<event>
12    1  0.8052519E-002  0.1890907E+03  0.7818608E-02  0.1159934E+00
         21   -1    0    0  501  502  0.00000000000E+00  0.00000000000E+00  0.34156384084E+02  0.34156384084E+02  0.00000000000E+00 0. -1.
         21   -1    0    0  502  503 -0.00000000000E+00 -0.00000000000E+00 -0.11436938360E+04  0.11436938360E+04  0.00000000000E+00 0. -1.
         -6    2    1    2    0  503  0.21155255028E+02  0.67534107523E+02 -0.74329134829E+03  0.76696632122E+03  0.17534796538E+03 0.  0.
        -24    2    3    3    0    0  0.31416162242E+02  0.44304889247E+02 -0.73327400881E+03  0.73926578172E+03  0.76636972582E+02 0.  0.
          6    2    1    2  501    0 -0.21155255028E+02 -0.67534107523E+02 -0.36624610368E+03  0.41088389891E+03  0.17228165726E+03 0.  0.
         24    2    5    5    0    0  0.40530272734E+02 -0.95817164435E+01 -0.28961969907E+03  0.29661544372E+03  0.48648114730E+02 0.  0.
          5    1    5    5  501    0 -0.61685527763E+02 -0.57952391080E+02 -0.76626404607E+02  0.11426845518E+03  0.47000000000E+01 0. -1.
        -11    1    6    6    0    0 -0.45709044486E+01  0.90353337238E+01 -0.11069652800E+03  0.11115867817E+03  0.00000000000E+00 0.  1.
         12    1    6    6    0    0  0.45101177183E+02 -0.18617050167E+02 -0.17892317107E+03  0.18545676555E+03  0.00000000000E+00 0. -1.
         -5    1    3    3    0  503 -0.10260907213E+02  0.23229218276E+02 -0.10017339473E+02  0.27700539502E+02  0.47000000000E+01 0.  1.
         11    1    4    4    0    0  0.39764514144E+02  0.59912069471E+02 -0.47794269926E+03  0.48332173179E+03  0.00000000000E+00 0. -1.
        -12    1    4    4    0    0 -0.83483519023E+01 -0.15607180224E+02 -0.25533130956E+03  0.25594404993E+03  0.00000000000E+00 0.  1.
</event>
<event>
12    1  0.8052519E-002  0.2763371E+03  0.7818608E-02  0.1097709E+00
         21   -1    0    0  501  502  0.00000000000E+00  0.00000000000E+00  0.50385159379E+02  0.50385159379E+02  0.00000000000E+00 0. -1.
         21   -1    0    0  502  503 -0.00000000000E+00 -0.00000000000E+00 -0.15174636138E+04  0.15174636138E+04  0.00000000000E+00 0.  1.
         -6    2    1    2    0  503 -0.20378842963E+03  0.71534145796E+02 -0.76190446892E+03  0.81046342268E+03  0.17235336279E+03 0.  0.
        -24    2    3    3    0    0 -0.14629673447E+03  0.91095833112E+02 -0.39036472123E+03  0.43396398212E+03  0.78986941139E+02 0.  0.
          6    2    1    2  501    0  0.20378842963E+03 -0.71534145796E+02 -0.70517398546E+03  0.75738535047E+03  0.17238144117E+03 0.  0.
         24    2    5    5    0    0  0.17592682778E+03 -0.91393778054E+02 -0.68387703828E+03  0.71681043443E+03  0.82621571233E+02 0.  0.
          5    1    5    5  501    0  0.27861601859E+02  0.19859632258E+02 -0.21296947187E+02  0.40574916032E+02  0.47000000000E+01 0. -1.
        -13    1    6    6    0    0 -0.39796463093E+01 -0.11816490149E+02 -0.97971524028E+02  0.98761766613E+02  0.00000000000E+00 0.  1.
         14    1    6    6    0    0  0.17990647408E+03 -0.79577287905E+02 -0.58590551425E+03  0.61804866782E+03  0.00000000000E+00 0. -1.
         -5    1    3    3    0  503 -0.57491695164E+02 -0.19561687316E+02 -0.37153974769E+03  0.37649944056E+03  0.47000000000E+01 0.  1.
         13    1    4    4    0    0 -0.79065165844E+02  0.41035636137E+02 -0.11116488094E+03  0.14245299097E+03  0.00000000000E+00 0. -1.
        -14    1    4    4    0    0 -0.67231568625E+02  0.50060196976E+02 -0.27919984029E+03  0.29151099115E+03  0.00000000000E+00 0.  1.
</event>
<event>
12    1  0.8052519E-002  0.1914424E+03  0.7818608E-02  0.1158070E+00
         21   -1    0    0  501  502  0.00000000000E+00  0.00000000000E+00  0.16697454486E+03  0.16697454486E+03  0.00000000000E+00 0. -1.
         21   -1    0    0  502  503 -0.00000000000E+00 -0.00000000000E+00 -0.25366062318E+03  0.25366062318E+03  0.00000000000E+00 0.  1.
         -6    2    1    2    0  503 -0.44561328625E+02 -0.66885340140E+02 -0.12590210002E+03  0.22913210579E+03  0.17375506433E+03 0.  0.
        -24    2    3    3    0    0  0.42339589872E+02 -0.21446148205E+02 -0.67275922023E+02  0.11478347858E+03  0.79978866749E+02 0.  0.
          6    2    1    2  501    0  0.44561328625E+02  0.66885340140E+02  0.39216021703E+02  0.19150306225E+03  0.16934038431E+03 0.  0.
         24    2    5    5    0    0 -0.60919403210E+01 -0.18212692903E+02  0.73502707423E+00  0.85153140617E+02  0.82956031562E+02 0.  0.
          5    1    5    5  501    0  0.50653268946E+02  0.85098033043E+02  0.38480994629E+02  0.10634992163E+03  0.47000000000E+01 0. -1.
        -13    1    6    6    0    0 -0.43697672389E+02 -0.34067118608E+01 -0.58013966421E+01  0.44212537373E+02  0.00000000000E+00 0.  1.
         14    1    6    6    0    0  0.37605732068E+02 -0.14805981042E+02  0.65364237164E+01  0.40940603244E+02  0.00000000000E+00 0. -1.
         -5    1    3    3    0  503 -0.86900918498E+02 -0.45439191935E+02 -0.58626178001E+02  0.11434862722E+03  0.47000000000E+01 0.  1.
         13    1    4    4    0    0  0.53264510018E+02 -0.30824283317E+02 -0.19000971368E+02  0.64407153193E+02  0.00000000000E+00 0. -1.
        -14    1    4    4    0    0 -0.10924920145E+02  0.93781351124E+01 -0.48274950655E+02  0.50376325383E+02  0.00000000000E+00 0.  1.
</event>
<event>
12    1  0.8052519E-002  0.1744391E+03  0.7818608E-02  0.1173959E+00
         21   -1    0    0  501  502  0.00000000000E+00  0.00000000000E+00  0.39671320886E+03  0.39671320886E+03  0.00000000000E+00 0. -1.
         21   -1    0    0  502  503 -0.00000000000E+00 -0.00000000000E+00 -0.14982376699E+03  0.14982376699E+03  0.00000000000E+00 0. -1.
         -6    2    1    2    0  503  0.21418794843E+02 -0.24097212419E+02 -0.69415012002E+02  0.18532028115E+03  0.16877713795E+03 0.  0.
        -24    2    3    3    0    0 -0.28566334285E+02  0.25632757654E+02 -0.73213885440E+02  0.11455231879E+03  0.79302503102E+02 0.  0.
          6    2    1    2  501    0 -0.21418794843E+02  0.24097212419E+02  0.31630445388E+03  0.36121669470E+03  0.17143381396E+03 0.  0.
         24    2    5    5    0    0 -0.95319198211E+01 -0.45106911436E+02  0.14910665560E+03  0.17981189238E+03  0.89297429649E+02 0.  0.
          5    1    5    5  501    0 -0.11886875022E+02  0.69204123854E+02  0.16719779828E+03  0.18140480232E+03  0.47000000000E+01 0. -1.
        -13    1    6    6    0    0  0.33667962381E+02 -0.42930066492E+02  0.62205141734E+02  0.82740570206E+02  0.00000000000E+00 0.  1.
         14    1    6    6    0    0 -0.43199882202E+02 -0.21768449438E+01  0.86901513866E+02  0.97071322172E+02  0.00000000000E+00 0. -1.
         -5    1    3    3    0  503  0.49985129128E+02 -0.49729970073E+02  0.37988734389E+01  0.70767962362E+02  0.47000000000E+01 0.  1.
         11    1    4    4    0    0 -0.10939321076E+02 -0.27663268023E+02 -0.13731537419E+02  0.32764008656E+02  0.00000000000E+00 0. -1.
        -12    1    4    4    0    0 -0.17627013209E+02  0.53296025677E+02 -0.59482348021E+02  0.81788310129E+02  0.00000000000E+00 0.  1.
</event>
<event>
12    1  0.8052519E-002  0.1747786E+03  0.7818608E-02  0.1172969E+00
         21   -1    0    0  503  502  0.00000000000E+00  0.00000000000E+00  0.12330615382E+03  0.12330615382E+03  0.00000000000E+00 0. -1.
         21   -1    0    0  501  503 -0.00000000000E+00 -0.00000000000E+00 -0.34719022357E+03  0.34719022357E+03  0.00000000000E+00 0. -1.
          6    2    1    2  501    0  0.67816815392E+01 -0.21175559427E+02 -0.23788937844E+03  0.29515750308E+03  0.17329800842E+03 0.  0.
         24    2    3    3    0    0  0.65434496976E+02  0.19955183771E+02 -0.16322429968E+03  0.19157731780E+03  0.73347214918E+02 0.  0.
         -6    2    1    2    0  502 -0.67816815392E+01  0.21175559427E+02  0.14005308695E+02  0.17533887432E+03  0.17335852057E+03 0.  0.
        -24    2    5    5    0    0  0.60310017735E+02 -0.12056691426E+02  0.13689142138E+02  0.10031975296E+03  0.78064064548E+02 0.  0.
          5    1    3    3  501    0 -0.58652815437E+02 -0.41130743198E+02 -0.74665078767E+02  0.10358018528E+03  0.47000000000E+01 0. -1.
        -13    1    4    4    0    0  0.20051855461E+02 -0.27569665092E+02 -0.46991927597E+02  0.58055185815E+02  0.00000000000E+00 0.  1.
         14    1    4    4    0    0  0.45382641515E+02  0.47524848863E+02 -0.11623237208E+03  0.13352213198E+03  0.00000000000E+00 0. -1.
         -5    1    5    5    0  502 -0.67091699274E+02  0.33232250854E+02  0.31616655652E+00  0.75019121360E+02  0.47000000000E+01 0.  1.
         13    1    6    6    0    0  0.29503885520E+02  0.32253761245E+02  0.15344199060E+02  0.46327408950E+02  0.00000000000E+00 0. -1.
        -14    1    6    6    0    0  0.30806132215E+02 -0.44310452672E+02 -0.16550569222E+01  0.53992344008E+02  0.00000000000E+00 0.  1.
</event>
<event>
12    1  0.8052519E-002  0.1934782E+03  0.7818608E-02  0.1155385E+00
         21   -1    0    0  501  502  0.00000000000E+00  0.00000000000E+00  0.12523921126E+03  0.12523921126E+03  0.00000000000E+00 0.  1.
         21   -1    0    0  502  503 -0.00000000000E+00 -0.00000000000E+00 -0.37466817560E+03  0.37466817560E+03  0.00000000000E+00 0.  1.
         -6    2    1    2    0  503 -0.87618728914E+02 -0.10462003661E+02 -0.12215669635E+02  0.19386343429E+03  0.17218395220E+03 0.  0.
        -24    2    3    3    0    0 -0.19286648771E+02  0.22367460758E+02 -0.60801191591E+02  0.10369864153E+03  0.78640608048E+02 0.  0.
          6    2    1    2  501    0  0.87618728914E+02  0.10462003661E+02 -0.23721329471E+03  0.30604395257E+03  0.17206469289E+03 0.  0.
         24    2    5    5    0    0 -0.15420439961E+01  0.55459184813E+02 -0.11552352388E+03  0.14854830164E+03  0.75118667923E+02 0.  0.
          5    1    5    5  501    0  0.89160772910E+02 -0.44997181151E+02 -0.12168977083E+03  0.15749565093E+03  0.47000000000E+01 0. -1.
        -13    1    6    6    0    0 -0.62333193853E+00 -0.14826662831E+02 -0.51060077756E+02  0.53172831539E+02  0.00000000000E+00 0.  1.
         14    1    6    6    0    0 -0.91871205753E+00  0.70285847643E+02 -0.64463446125E+02  0.95375470101E+02  0.00000000000E+00 0. -1.
         -5    1    3    3    0  503 -0.68332080142E+02 -0.32829464419E+02  0.48585521956E+02  0.90164792765E+02  0.47000000000E+01 0.  1.
         11    1    4    4    0    0 -0.44957195074E+02  0.26280326194E+01 -0.54517480767E+02  0.70712174720E+02  0.00000000000E+00 0. -1.
        -12    1    4    4    0    0  0.25670546303E+02  0.19739428138E+02 -0.62837108234E+01  0.32986466807E+02  0.00000000000E+00 0.  1.
</event>
<event>
12    1  0.8052519E-002  0.2135975E+03  0.7818608E-02  0.1138817E+00
         21   -1    0    0  501  502  0.00000000000E+00  0.00000000000E+00  0.24810601203E+02  0.24810601203E+02  0.00000000000E+00 0.  1.
         21   -1    0    0  502  503 -0.00000000000E+00 -0.00000000000E+00 -0.21502456472E+04  0.21502456472E+04  0.00000000000E+00 0.  1.
         -6    2    1    2    0  503  0.10658592131E+03  0.68010823158E+02 -0.14793102429E+04  0.14946513664E+04  0.17215656195E+03 0.  0.
        -24    2    3    3    0    0 -0.12568007028E+02  0.43120172622E+02 -0.59982261392E+03  0.60676748743E+03  0.79764099300E+02 0.  0.
          6    2    1    2  501    0 -0.10658592131E+03 -0.68010823158E+02 -0.64612480311E+03  0.68040488195E+03  0.17171928112E+03 0.  0.
         24    2    5    5    0    0 -0.13305065305E+03 -0.45739411908E+02 -0.39302676948E+03  0.42491104169E+03  0.79276615379E+02 0.  0.
          5    1    5    5  501    0  0.26464731739E+02 -0.22271411251E+02 -0.25309803363E+03  0.25549384026E+03  0.47000000000E+01 0. -1.
        -13    1    6    6    0    0 -0.82200634711E+02 -0.51798600018E+02 -0.32830470910E+03  0.34237993710E+03  0.00000000000E+00 0.  1.
         14    1    6    6    0    0 -0.50850018340E+02  0.60591881100E+01 -0.64722060380E+02  0.82531104594E+02  0.00000000000E+00 0. -1.
         -5    1    3    3    0  503  0.11915392834E+03  0.24890650536E+02 -0.87948762896E+03  0.88788387901E+03  0.47000000000E+01 0.  1.
         11    1    4    4    0    0  0.19863855446E+02 -0.10445191001E+01 -0.36879197528E+03  0.36932801790E+03  0.00000000000E+00 0. -1.
        -12    1    4    4    0    0 -0.32431862474E+02  0.44164691722E+02 -0.23103063864E+03  0.23743946953E+03  0.00000000000E+00 0.  1.
</event>
<event>
12    1  0.8052519E-002  0.2434407E+03  0.7818608E-02  0.1117740E+00
         21   -1    0    0  501  502  0.00000000000E+00  0.00000000000E+00  0.11272678350E+04  0.11272678350E+04  0.00000000000E+00 0.  1.
         21   -1    0    0  502  503 -0.00000000000E+00 -0.00000000000E+00 -0.41102054598E+03  0.41102054598E+03  0.00000000000E+00 0. -1.
         -6    2    1    2    0  503 -0.45448997811E+01  0.17192366056E+03 -0.36031103758E+03  0.43484181093E+03  0.17229322550E+03 0.  0.
        -24    2    3    3    0    0 -0.80114852637E+01  0.67138615923E+02 -0.69070339614E+02  0.12526927186E+03  0.79686266150E+02 0.  0.
          6    2    1    2  501    0  0.45448997811E+01 -0.17192366056E+03  0.10765583266E+04  0.11034465701E+04  0.17040569589E+03 0.  0.
         24    2    5    5    0    0  0.61325211354E+02 -0.81411991961E+02  0.44104410926E+03  0.45899581445E+03  0.75951019690E+02 0.  0.
          5    1    5    5  501    0 -0.56780311572E+02 -0.90511668599E+02  0.63551421739E+03  0.64445075563E+03  0.47000000000E+01 0. -1.
        -11    1    6    6    0    0  0.31195434916E+02 -0.57435875222E+02  0.38790197984E+03  0.39337003049E+03  0.00000000000E+00 0.  1.
         12    1    6    6    0    0  0.30129776438E+02 -0.23976116739E+02  0.53142129420E+02  0.65625783968E+02  0.00000000000E+00 0. -1.
         -5    1    3    3    0  503  0.34665854825E+01  0.10478504464E+03 -0.29124069797E+03  0.30957253907E+03  0.47000000000E+01 0.  1.
         13    1    4    4    0    0 -0.31667982591E+01  0.69383829387E+02 -0.84243576734E+02  0.10918390272E+03  0.00000000000E+00 0. -1.
        -14    1    4    4    0    0 -0.48446870046E+01 -0.22452134643E+01  0.15173237119E+02  0.16085369140E+02  0.00000000000E+00 0.  1.
</event>
<event>
12    1  0.8052519E-002  0.1918582E+03  0.7818608E-02  0.1156926E+00
         21   -1    0    0  501  502  0.00000000000E+00  0.00000000000E+00  0.60410551714E+03  0.60410551714E+03  0.00000000000E+00 0.  1.
         21   -1    0    0  502  503 -0.00000000000E+00 -0.00000000000E+00 -0.69678345790E+02  0.69678345790E+02  0.00000000000E+00 0.  1.
         -6    2    1    2    0  503 -0.72440832710E+02 -0.33952676212E+02  0.14624879016E+03  0.24078037019E+03  0.17374124316E+03 0.  0.
        -24    2    3    3    0    0  0.21030771604E+02  0.95932741221E+01  0.42034374544E+02  0.94097293361E+02  0.80951143982E+02 0.  0.
          6    2    1    2  501    0  0.72440832710E+02  0.33952676212E+02  0.38817838119E+03  0.43300349275E+03  0.17438208235E+03 0.  0.
         24    2    5    5    0    0  0.38982312472E+02 -0.33511979985E+02  0.32062637239E+03  0.33173001989E+03  0.67829653798E+02 0.  0.
          5    1    5    5  501    0  0.33458520238E+02  0.67464656197E+02  0.67552008797E+02  0.10127347286E+03  0.47000000000E+01 0. -1.
        -11    1    6    6    0    0 -0.15022264233E+02  0.34931859981E+01  0.29004704075E+02  0.32850321606E+02  0.00000000000E+00 0.  1.
         12    1    6    6    0    0  0.54004576705E+02 -0.37005165983E+02  0.29162166832E+03  0.29887969828E+03  0.00000000000E+00 0. -1.
         -5    1    3    3    0  503 -0.93471604314E+02 -0.43545950334E+02  0.10421441562E+03  0.14668307682E+03  0.47000000000E+01 0.  1.
         11    1    4    4    0    0 -0.20338869491E+02 -0.21766199247E+02  0.26605058545E+02  0.39940783443E+02  0.00000000000E+00 0. -1.
        -12    1    4    4    0    0  0.41369641095E+02  0.31359473369E+02  0.15429315999E+02  0.54156509918E+02  0.00000000000E+00 0.  1.
</event>
<event>
12    1  0.8052519E-002  0.2202603E+03  0.7818608E-02  0.1133918E+00
         21   -1    0    0  503  502  0.00000000000E+00  0.00000000000E+00  0.28488065019E+02  0.28488065019E+02  0.00000000000E+00 0.  1.
         21   -1    0    0  501  503 -0.00000000000E+00 -0.00000000000E+00 -0.17298464034E+04  0.17298464034E+04  0.00000000000E+00 0. -1.
          6    2    1    2  501    0  0.97076449948E+02 -0.95690422565E+02 -0.98044869879E+03  0.10048851931E+04  0.17301475706E+03 0.  0.
         24    2    3    3    0    0  0.80266251546E+02 -0.13641147682E+03 -0.74685601138E+03  0.76712813082E+03  0.75105959964E+02 0.  0.
         -6    2    1    2    0  502 -0.97076449948E+02  0.95690422565E+02 -0.72090963957E+03  0.75344927534E+03  0.17144855783E+03 0.  0.
        -24    2    5    5    0    0 -0.68899753311E+02  0.84662602097E+02 -0.70655504088E+03  0.71963088447E+03  0.82058831861E+02 0.  0.
          5    1    3    3  501    0  0.16810198401E+02  0.40721054258E+02 -0.23359268741E+03  0.23775706223E+03  0.47000000000E+01 0. -1.
        -13    1    4    4    0    0  0.21811676254E+02 -0.46815391139E+02 -0.11216429259E+03  0.12348383943E+03  0.00000000000E+00 0.  1.
         14    1    4    4    0    0  0.58454575292E+02 -0.89596085683E+02 -0.63469171879E+03  0.64364429139E+03  0.00000000000E+00 0. -1.
         -5    1    5    5    0  502 -0.28176696637E+02  0.11027820468E+02 -0.14354598688E+02  0.33818390872E+02  0.47000000000E+01 0.  1.
         11    1    6    6    0    0 -0.35870170512E+02  0.37926100414E+01 -0.37606618620E+03  0.37779204521E+03  0.00000000000E+00 0. -1.
        -12    1    6    6    0    0 -0.33029582799E+02  0.80869992055E+02 -0.33048885468E+03  0.34183883926E+03  0.00000000000E+00 0.  1.
</event>
<event>
12    1  0.8052519E-002  0.1796613E+03  0.7818608E-02  0.1168391E+00
         21   -1    0    0  501  502  0.00000000000E+00  0.00000000000E+00  0.42874750258E+02  0.42874750258E+02  0.00000000000E+00 0. -1.
         21   -1    0    0  502  503 -0.00000000000E+00 -0.00000000000E+00 -0.81672927885E+03  0.81672927885E+03  0.00000000000E+00 0. -1.
         -6    2    1    2    0  503 -0.43412364920E+02  0.17852149718E+02 -0.26153052942E+03  0.31669145822E+03  0.17231346208E+03 0.  0.
        -24    2    3    3    0    0  0.26613630814E+02 -0.17678187047E+02 -0.75869575711E+02  0.11505285913E+03  0.80375146868E+02 0.  0.
          6    2    1    2  501    0  0.43412364920E+02 -0.17852149718E+02 -0.51232399918E+03  0.54291257089E+03  0.17342101033E+03 0.  0.
         24    2    5    5    0    0  0.96466730640E+02 -0.21652231275E+02 -0.35463995230E+03  0.37643267727E+03  0.78469201017E+02 0.  0.
          5    1    5    5  501    0 -0.53054365720E+02  0.38000815573E+01 -0.15768404688E+03  0.16647989363E+03  0.47000000000E+01 0. -1.
        -13    1    6    6    0    0  0.63913607682E+02  0.17099499351E+02 -0.26844380533E+03  0.27647679604E+03  0.00000000000E+00 0.  1.
         14    1    6    6    0    0  0.32553122958E+02 -0.38751730626E+02 -0.86196146967E+02  0.99955881231E+02  0.00000000000E+00 0. -1.
         -5    1    3    3    0  503 -0.70025995734E+02  0.35530336765E+02 -0.18566095370E+03  0.20163859908E+03  0.47000000000E+01 0.  1.
         13    1    4    4    0    0  0.59607248285E+01  0.26423714058E+02 -0.56473941518E+02  0.62634247626E+02  0.00000000000E+00 0. -1.
        -14    1    4    4    0    0  0.20652905986E+02 -0.44101901105E+02 -0.19395634193E+02  0.52418611509E+02  0.00000000000E+00 0.  1.
</event>
<event>
12    1  0.8052519E-002  0.1954528E+03  0.7818608E-02  0.1154097E+00
         21   -1    0    0  503  502  0.00000000000E+00  0.00000000000E+00  0.67997154224E+03  0.67997154224E+03  0.00000000000E+00 0.  1.
         21   -1    0    0  501  503 -0.00000000000E+00 -0.00000000000E+00 -0.82677951459E+02  0.82677951459E+02  0.00000000000E+00 0. -1.
          6    2    1    2  501    0  0.31952047046E+02 -0.87601698958E+02  0.81409468109E+02  0.21172934139E+03  0.17177549749E+03 0.  0.
         24    2    3    3    0    0 -0.46387075711E+02 -0.67471594463E+02  0.56102824478E+02  0.12684851038E+03  0.78986333111E+02 0.  0.
         -6    2    1    2    0  502 -0.31952047046E+02  0.87601698958E+02  0.51588412267E+03  0.55092015231E+03  0.16935641478E+03 0.  0.
        -24    2    5    5    0    0 -0.70933958450E+02  0.84564396731E+02  0.47709665631E+03  0.49564473130E+03  0.76548785379E+02 0.  0.
          5    1    3    3  501    0  0.78339122756E+02 -0.20130104495E+02  0.25306643631E+02  0.84880831011E+02  0.47000000000E+01 0. -1.
        -11    1    4    4    0    0  0.10117565418E+02  0.15943611101E+01  0.33167870997E+02  0.34713322857E+02  0.00000000000E+00 0.  1.
         12    1    4    4    0    0 -0.56504641128E+02 -0.69065955573E+02  0.22934953481E+02  0.92135187521E+02  0.00000000000E+00 0. -1.
         -5    1    5    5    0  502  0.38981911405E+02  0.30373022269E+01  0.38787466363E+02  0.55275421015E+02  0.47000000000E+01 0.  1.
         13    1    6    6    0    0 -0.37477084444E+02  0.17498448194E+02  0.66869622419E+02  0.78627437641E+02  0.00000000000E+00 0. -1.
        -14    1    6    6    0    0 -0.33456874006E+02  0.67065948537E+02  0.41022703389E+03  0.41701729365E+03  0.00000000000E+00 0.  1.
</event>
<event>
12    1  0.8052519E-002  0.2231134E+03  0.7818608E-02  0.1132305E+00
         21   -1    0    0  503  502  0.00000000000E+00  0.00000000000E+00  0.47162421033E+03  0.47162421033E+03  0.00000000000E+00 0.  1.
         21   -1    0    0  501  503 -0.00000000000E+00 -0.00000000000E+00 -0.11004372376E+03  0.11004372376E+03  0.00000000000E+00 0.  1.
          6    2    1    2  501    0  0.96511227219E+02  0.10189283980E+03  0.25207927680E+03  0.33663563048E+03  0.17344456790E+03 0.  0.
         24    2    3    3    0    0  0.28926493418E+02  0.16876395689E+02  0.35401612698E+02  0.94217000561E+02  0.80635068426E+02 0.  0.
         -6    2    1    2    0  502 -0.96511227219E+02 -0.10189283980E+03  0.10950120977E+03  0.24503230361E+03  0.16838570928E+03 0.  0.
        -24    2    5    5    0    0 -0.12884828190E+03 -0.61212629803E+02  0.10094914643E+03  0.19215705062E+03  0.79904543942E+02 0.  0.
          5    1    3    3  501    0  0.67584733801E+02  0.85016444106E+02  0.21667766410E+03  0.24241862992E+03  0.47000000000E+01 0. -1.
        -13    1    4    4    0    0  0.10766378485E+02  0.47709702627E+02  0.89588373201E+01  0.49723147493E+02  0.00000000000E+00 0.  1.
         14    1    4    4    0    0  0.18160114933E+02 -0.30833306938E+02  0.26442775378E+02  0.44493853068E+02  0.00000000000E+00 0. -1.
         -5    1    5    5    0  502  0.32337054685E+02 -0.40680209992E+02  0.85520633466E+01  0.52875252985E+02  0.47000000000E+01 0.  1.
         11    1    6    6    0    0 -0.10561168660E+02  0.90984366178E+01 -0.85040188893E+01  0.16329059055E+02  0.00000000000E+00 0. -1.
        -12    1    6    6    0    0 -0.11828711324E+03 -0.70311066421E+02  0.10945316532E+03  0.17582799157E+03  0.00000000000E+00 0.  1.
</event>
<event>
12    1  0.8052519E-002  0.2718716E+03  0.7818608E-02  0.1100646E+00
         21   -1    0    0  501  502  0.00000000000E+00  0.00000000000E+00  0.96634650777E+02  0.96634650777E+02  0.00000000000E+00 0.  1.
         21   -1    0    0  502  503 -0.00000000000E+00 -0.00000000000E+00 -0.80580001924E+03  0.80580001924E+03  0.00000000000E+00 0.  1.
         -6    2    1    2    0  503 -0.57258080959E+02  0.20066972225E+03 -0.46820806628E+03  0.54141752520E+03  0.17426221047E+03 0.  0.
        -24    2    3    3    0    0  0.35998187780E+01  0.10068279011E+03 -0.13001975812E+03  0.18351461611E+03  0.81378706702E+02 0.  0.
          6    2    1    2  501    0  0.57258080959E+02 -0.20066972225E+03 -0.24095730219E+03  0.36101714483E+03  0.16948785241E+03 0.  0.
         24    2    5    5    0    0  0.47259758720E+02 -0.16512613164E+03 -0.25761088868E+03  0.32024037173E+03  0.81794874996E+02 0.  0.
          5    1    5    5  501    0  0.99983222389E+01 -0.35543590617E+02  0.16653586487E+02  0.40776773100E+02  0.47000000000E+01 0. -1.
        -13    1    6    6    0    0  0.24260977885E+01 -0.31171260476E+02 -0.11631665652E+03  0.12044541508E+03  0.00000000000E+00 0.  1.
         14    1    6    6    0    0  0.44833660931E+02 -0.13395487116E+03 -0.14129423215E+03  0.19979495664E+03  0.00000000000E+00 0. -1.
         -5    1    3    3    0  503 -0.60857899737E+02  0.99986932145E+02 -0.33818830815E+03  0.35790290909E+03  0.47000000000E+01 0.  1.
         11    1    4    4    0    0 -0.20274559766E+01 -0.10583795901E+02  0.17957025361E+01  0.10924827733E+02  0.00000000000E+00 0. -1.
        -12    1    4    4    0    0  0.56272747546E+01  0.11126658601E+03 -0.13181546066E+03  0.17258978838E+03  0.00000000000E+00 0.  1.
</event>
<event>
12    1  0.8052519E-002  0.1815529E+03  0.7818608E-02  0.1167618E+00
         21   -1    0    0  501  502  0.00000000000E+00  0.00000000000E+00  0.77372227061E+02  0.77372227061E+02  0.00000000000E+00 0. -1.
         21   -1    0    0  502  503 -0.00000000000E+00 -0.00000000000E+00 -0.42151554924E+03  0.42151554924E+03  0.00000000000E+00 0.  1.
         -6    2    1    2    0  503  0.23055728035E+02 -0.39340394716E+02 -0.14015336120E+03  0.22935653639E+03  0.17573338578E+03 0.  0.
        -24    2    3    3    0    0  0.63515471283E+02 -0.19543859382E+02 -0.15098281797E+03  0.18279194932E+03  0.78745843594E+02 0.  0.
          6    2    1    2  501    0 -0.23055728035E+02  0.39340394716E+02 -0.20398996098E+03  0.26953123991E+03  0.17016448471E+03 0.  0.
         24    2    5    5    0    0 -0.27747178463E+02  0.56524139523E+02 -0.22169248460E+03  0.24398206898E+03  0.80092496508E+02 0.  0.
          5    1    5    5  501    0  0.46914504280E+01 -0.17183744807E+02  0.17702523617E+02  0.25549170928E+02  0.47000000000E+01 0. -1.
        -13    1    6    6    0    0  0.21939390583E+02  0.30372634213E+01 -0.96945893136E+02  0.99443793292E+02  0.00000000000E+00 0.  1.
         14    1    6    6    0    0 -0.49686569046E+02  0.53486876102E+02 -0.12474659146E+03  0.14453827569E+03  0.00000000000E+00 0. -1.
         -5    1    3    3    0  503 -0.40459743248E+02 -0.19796535334E+02  0.10829456769E+02  0.46564587068E+02  0.47000000000E+01 0.  1.
         11    1    4    4    0    0  0.63101277303E+02 -0.18040674719E+02 -0.51832079697E+02  0.83628952088E+02  0.00000000000E+00 0. -1.
        -12    1    4    4    0    0  0.41419397995E+00 -0.15031846635E+01 -0.99150738269E+02  0.99162997232E+02  0.00000000000E+00 0.  1.
</event>
<event>
12    1  0.8052519E-002  0.1850565E+03  0.7818608E-02  0.1163256E+00
         21   -1    0    0  503  502  0.00000000000E+00  0.00000000000E+00  0.33934966615E+02  0.33934966615E+02  0.00000000000E+00 0.  1.
         21   -1    0    0  501  503 -0.00000000000E+00 -0.00000000000E+00 -0.11045539455E+04  0.11045539455E+04  0.00000000000E+00 0.  1.
          6    2    1    2  501    0  0.13339808320E+02  0.65054303014E+02 -0.70923825638E+03  0.73298349549E+03  0.17273067916E+03 0.  0.
         24    2    3    3    0    0 -0.40769916542E+02  0.40017783697E+02 -0.23467304211E+03  0.25466464554E+03  0.80740546740E+02 0.  0.
         -6    2    1    2    0  502 -0.13339808320E+02 -0.65054303014E+02 -0.36138072248E+03  0.40550541659E+03  0.17154767117E+03 0.  0.
        -24    2    5    5    0    0  0.33487083276E+02  0.22491106204E+01 -0.10288677196E+03  0.13427909096E+03  0.79490522578E+02 0.  0.
          5    1    3    3  501    0  0.54109724863E+02  0.25036519317E+02 -0.47456521427E+03  0.47831884995E+03  0.47000000000E+01 0. -1.
        -13    1    4    4    0    0 -0.25329798494E+02  0.54637357202E+02 -0.22174987806E+03  0.22978217492E+03  0.00000000000E+00 0.  1.
         14    1    4    4    0    0 -0.15440118048E+02 -0.14619573505E+02 -0.12923164050E+02  0.24882470615E+02  0.00000000000E+00 0. -1.
         -5    1    5    5    0  502 -0.46826891597E+02 -0.67303413635E+02 -0.25849395052E+03  0.27122632564E+03  0.47000000000E+01 0.  1.
         11    1    6    6    0    0  0.35924187342E+02  0.41478304473E+01 -0.11563712021E+03  0.12115979244E+03  0.00000000000E+00 0. -1.
        -12    1    6    6    0    0 -0.24371040660E+01 -0.18987198269E+01  0.12750348249E+02  0.13119298521E+02  0.00000000000E+00 0.  1.
</event>
<event>
12    1  0.8052519E-002  0.2144192E+03  0.7818608E-02  0.1140057E+00
         21   -1    0    0  501  502  0.00000000000E+00  0.00000000000E+00  0.62582357449E+02  0.62582357449E+02  0.00000000000E+00 0. -1.
         21   -1    0    0  502  503 -0.00000000000E+00 -0.00000000000E+00 -0.70401677001E+03  0.70401677001E+03  0.00000000000E+00 0. -1.
         -6    2    1    2    0  503 -0.11043918101E+03 -0.22316520648E+02 -0.30453155505E+03  0.37244469099E+03  0.18243009630E+03 0.  0.
        -24    2    3    3    0    0 -0.80693386813E+02 -0.22186340465E+02 -0.31891620179E+03  0.33907049016E+03  0.79104975524E+02 0.  0.
          6    2    1    2  501    0  0.11043918101E+03  0.22316520648E+02 -0.33690285751E+03  0.39415443646E+03  0.17076107457E+03 0.  0.
         24    2    5    5    0    0  0.16122004110E+02  0.29110211392E+02 -0.24131659891E+03  0.25961556875E+03  0.89773154143E+02 0.  0.
          5    1    5    5  501    0  0.94317176897E+02 -0.67936907440E+01 -0.95586258606E+02  0.13453886772E+03  0.47000000000E+01 0. -1.
        -13    1    6    6    0    0  0.19238982675E+02 -0.28268426638E+02 -0.12897102872E+03  0.13342701618E+03  0.00000000000E+00 0.  1.
         14    1    6    6    0    0 -0.31169785656E+01  0.57378638029E+02 -0.11234557019E+03  0.12618855257E+03  0.00000000000E+00 0. -1.
         -5    1    3    3    0  503 -0.29745794193E+02 -0.13018018291E+00  0.14384646749E+02  0.33374200831E+02  0.47000000000E+01 0.  1.
         11    1    4    4    0    0 -0.51445074744E+02  0.24793829095E+02 -0.19839785002E+03  0.20645347313E+03  0.00000000000E+00 0. -1.
        -12    1    4    4    0    0 -0.29248312070E+02 -0.46980169560E+02 -0.12051835177E+03  0.13261701703E+03  0.00000000000E+00 0.  1.
</event>
<event>
12    1  0.8052519E-002  0.1744048E+03  0.7818608E-02  0.1173556E+00
         21   -1    0    0  503  502  0.00000000000E+00  0.00000000000E+00  0.81908936744E+02  0.81908936744E+02  0.00000000000E+00 0. -1.
         21   -1    0    0  501  503 -0.00000000000E+00 -0.00000000000E+00 -0.80922443851E+03  0.80922443851E+03  0.00000000000E+00 0. -1.
          6    2    1    2  501    0 -0.14373126346E+01  0.23993394660E+02 -0.69169787810E+03  0.71312875186E+03  0.17183978962E+03 0.  0.
         24    2    3    3    0    0 -0.28549452149E+02  0.43102376678E+02 -0.21134106723E+03  0.23160515217E+03  0.79391521718E+02 0.  0.
         -6    2    1    2    0  502  0.14373126346E+01 -0.23993394660E+02 -0.35617623664E+02  0.17800462340E+03  0.17274050475E+03 0.  0.
        -24    2    5    5    0    0 -0.45935307647E+02 -0.61704466134E+02 -0.21381855901E+02  0.11562644494E+03  0.83634905259E+02 0.  0.
          5    1    3    3  501    0  0.27112139515E+02 -0.19108982018E+02 -0.48035681087E+03  0.48152359969E+03  0.47000000000E+01 0. -1.
        -13    1    4    4    0    0 -0.48092955138E+02  0.77844746473E+00 -0.10473239061E+03  0.11524934689E+03  0.00000000000E+00 0.  1.
         14    1    4    4    0    0  0.19543502989E+02  0.42323929214E+02 -0.10660867662E+03  0.11635580528E+03  0.00000000000E+00 0. -1.
         -5    1    5    5    0  502  0.47372620282E+02  0.37711071474E+02 -0.14235767762E+02  0.62378178459E+02  0.47000000000E+01 0.  1.
         11    1    6    6    0    0  0.20168514966E+02 -0.16689899271E+02  0.12206091714E+02  0.28884431940E+02  0.00000000000E+00 0. -1.
        -12    1    6    6    0    0 -0.66103822613E+02 -0.45014566863E+02 -0.33587947615E+02  0.86742012998E+02  0.00000000000E+00 0.  1.
</event>
<event>
12    1  0.8052519E-002  0.2386907E+03  0.7818608E-02  0.1120686E+00
         21   -1    0    0  501  502  0.00000000000E+00  0.00000000000E+00  0.66093271185E+03  0.66093271185E+03  0.00000000000E+00 0. -1.
         21   -1    0    0  502  503 -0.00000000000E+00 -0.00000000000E+00 -0.11620870339E+03  0.11620870339E+03  0.00000000000E+00 0.  1.
         -6    2    1    2    0  503 -0.21857643620E+02 -0.16380408133E+03  0.74738074870E+02  0.25001709739E+03  0.17208496596E+03 0.  0.
        -24    2    3    3    0    0  0.38080755810E+02 -0.51665390373E+02  0.17652018895E+02  0.11055884012E+03  0.88273477510E+02 0.  0.
          6    2    1    2  501    0  0.21857643620E+02  0.16380408133E+03  0.46998593359E+03  0.52712431786E+03  0.17223163199E+03 0.  0.
         24    2    5    5    0    0 -0.31742669140E+02  0.26517892754E+02  0.16146083965E+03  0.18517356893E+03  0.80677457873E+02 0.  0.
          5    1    5    5  501    0  0.53600312760E+02  0.13728618857E+03  0.30852509394E+03  0.34195074892E+03  0.47000000000E+01 0. -1.
        -11    1    6    6    0    0 -0.68826420054E+01  0.31468347240E+02  0.13283298495E+02  0.34843559776E+02  0.00000000000E+00 0.  1.
         12    1    6    6    0    0 -0.24860027135E+02 -0.49504544854E+01  0.14817754116E+03  0.15033000916E+03  0.00000000000E+00 0. -1.
         -5    1    3    3    0  503 -0.59938399430E+02 -0.11213869095E+03  0.57086055976E+02  0.13945825727E+03  0.47000000000E+01 0.  1.
         13    1    4    4    0    0 -0.85293157566E+01  0.14094733889E+02 -0.16227758786E+02  0.23124681747E+02  0.00000000000E+00 0. -1.
        -14    1    4    4    0    0  0.46610071566E+02 -0.65760124262E+02  0.33879777681E+02  0.87434158371E+02  0.00000000000E+00 0.  1.
</event>
<event>
12    1  0.8052519E-002  0.2352129E+03  0.7818608E-02  0.1123154E+00
         21   -1    0    0  503  502  0.00000000000E+00  0.00000000000E+00  0.10093650196E+03  0.10093650196E+03  0.00000000000E+00 0. -1.
         21   -1    0    0  501  503 -0.00000000000E+00 -0.00000000000E+00 -0.14756760476E+04  0.14756760476E+04  0.00000000000E+00 0. -1.
          6    2    1    2  501    0  0.15923710851E+03  0.19594676644E+02 -0.13125398210E+04  0.13333145519E+04  0.17095761039E+03 0.  0.
         24    2    3    3    0    0  0.49452462543E+02  0.65191670205E+02 -0.58484552484E+03  0.59595925562E+03  0.80172604505E+02 0.  0.
         -6    2    1    2    0  502 -0.15923710851E+03 -0.19594676644E+02 -0.62199724586E+02  0.24329799760E+03  0.17200204015E+03 0.  0.
        -24    2    5    5    0    0 -0.15170446968E+03  0.38569521448E+02 -0.37468260542E+02  0.17947362998E+03  0.79404402946E+02 0.  0.
          5    1    3    3  501    0  0.10978464597E+03 -0.45596993562E+02 -0.72769429617E+03  0.73735529631E+03  0.47000000000E+01 0. -1.
        -13    1    4    4    0    0 -0.23501936622E+01  0.42633070067E+02 -0.40985729204E+03  0.41207535951E+03  0.00000000000E+00 0.  1.
         14    1    4    4    0    0  0.51802656205E+02  0.22558600139E+02 -0.17498823280E+03  0.18388389611E+03  0.00000000000E+00 0. -1.
         -5    1    5    5    0  502 -0.75326388346E+01 -0.58164198091E+02 -0.24731464044E+02  0.63824367613E+02  0.47000000000E+01 0.  1.
         11    1    6    6    0    0 -0.43805532456E+02  0.47974550310E+02 -0.28032808003E+02  0.70755356516E+02  0.00000000000E+00 0. -1.
        -12    1    6    6    0    0 -0.10789893722E+03 -0.94050288624E+01 -0.94354525387E+01  0.10871827347E+03  0.00000000000E+00 0.  1.
</event>
<event>
12    1  0.8052519E-002  0.1992572E+03  0.7818608E-02  0.1153088E+00
         21   -1    0    0  501  502  0.00000000000E+00  0.00000000000E+00  0.38709192040E+02  0.38709192040E+02  0.00000000000E+00 0.  1.
         21   -1    0    0  502  503 -0.00000000000E+00 -0.00000000000E+00 -0.12143241863E+04  0.12143241863E+04  0.00000000000E+00 0.  1.
         -6    2    1    2    0  503  0.37506871388E+02  0.69580985373E+02 -0.85784044427E+03  0.87795459835E+03  0.16930968667E+03 0.  0.
        -24    2    3    3    0    0 -0.13991793844E+02  0.95062496493E+02 -0.65471349553E+03  0.66680520282E+03  0.82138716403E+02 0.  0.
          6    2    1    2  501    0 -0.37506871388E+02 -0.69580985373E+02 -0.31777454996E+03  0.37507877997E+03  0.18290748386E+03 0.  0.
         24    2    5    5    0    0 -0.40967246056E+02 -0.18415966395E+02 -0.55350246386E+02  0.10764946507E+03  0.80667803285E+02 0.  0.
          5    1    5    5  501    0  0.34603746679E+01 -0.51165018978E+02 -0.26242430358E+03  0.26742931490E+03  0.47000000000E+01 0. -1.
        -13    1    6    6    0    0  0.19565914914E+02 -0.18406801608E+02 -0.19590056235E+01  0.26934607383E+02  0.00000000000E+00 0.  1.
         14    1    6    6    0    0 -0.60533160970E+02 -0.91647876482E-02 -0.53391240762E+02  0.80714857686E+02  0.00000000000E+00 0. -1.
         -5    1    3    3    0  503  0.51498665232E+02 -0.25481511120E+02 -0.20312694874E+03  0.21114939553E+03  0.47000000000E+01 0.  1.
         13    1    4    4    0    0  0.44770988046E+01  0.42619134722E+02 -0.93599073149E+02  0.10294280719E+03  0.00000000000E+00 0. -1.
        -14    1    4    4    0    0 -0.18468892649E+02  0.52443361771E+02 -0.56111442239E+03  0.56386239562E+03  0.00000000000E+00 0.  1.
</event>
<event>
12    1  0.8052519E-002  0.2184413E+03  0.7818608E-02  0.1135397E+00
         21   -1    0    0  501  502  0.00000000000E+00  0.00000000000E+00  0.75106078830E+03  0.75106078830E+03  0.00000000000E+00 0. -1.
         21   -1    0    0  502  503 -0.00000000000E+00 -0.00000000000E+00 -0.15209645104E+03  0.15209645104E+03  0.00000000000E+00 0. -1.
         -6    2    1    2    0  503  0.24677855952E+02 -0.13002698426E+03 -0.46665598050E+02  0.22157481071E+03  0.17146925523E+03 0.  0.
        -24    2    3    3    0    0 -0.27359643215E+02 -0.10388982482E+03  0.12646452459E+02  0.13832181221E+03  0.86205250392E+02 0.  0.
          6    2    1    2  501    0 -0.24677855952E+02  0.13002698426E+03  0.64562993530E+03  0.68158242863E+03  0.17378314202E+03 0.  0.
         24    2    5    5    0    0  0.34203106342E+02  0.72459510036E+02  0.49974026892E+03  0.51399106082E+03  0.89589291440E+02 0.  0.
          5    1    5    5  501    0 -0.58880962294E+02  0.57567474222E+02  0.14588966638E+03  0.16759136781E+03  0.47000000000E+01 0. -1.
        -11    1    6    6    0    0 -0.55656817612E+01  0.69343770638E+01  0.50507221082E+00  0.89060370911E+01  0.00000000000E+00 0.  1.
         12    1    6    6    0    0  0.39768788103E+02  0.65525132972E+02  0.49923519671E+03  0.50508502373E+03  0.00000000000E+00 0. -1.
         -5    1    3    3    0  503  0.52037499168E+02 -0.26137159434E+02 -0.59312050509E+02  0.83252998495E+02  0.47000000000E+01 0.  1.
         13    1    4    4    0    0 -0.38370377231E+01 -0.10681005488E+03 -0.75999017471E+01  0.10714881795E+03  0.00000000000E+00 0. -1.
        -14    1    4    4    0    0 -0.23522605492E+02  0.29202300533E+01  0.20246354206E+02  0.31172994264E+02  0.00000000000E+00 0.  1.
</event>
<event>
12    1  0.8052519E-002  0.2014614E+03  0.7818608E-02  0.1148586E+00
         21   -1    0    0  503  502  0.00000000000E+00  0.00000000000E+00  0.36134550638E+03  0.36134550638E+03  0.00000000000E+00 0. -1.
         21   -1    0    0  501  503 -0.00000000000E+00 -0.00000000000E+00 -0.25216223633E+03  0.25216223633E+03  0.00000000000E+00 0. -1.
          6    2    1    2  501    0  0.80327558301E+02  0.67134358572E+02 -0.17402982683E+03  0.26595005436E+03  0.17170763542E+03 0.  0.
         24    2    3    3    0    0 -0.51621189190E+01  0.45724842988E+01 -0.12749802235E+03  0.15014948505E+03  0.79003588993E+02 0.  0.
         -6    2    1    2    0  502 -0.80327558301E+02 -0.67134358572E+02  0.28321309687E+03  0.34755768835E+03  0.17212538967E+03 0.  0.
        -24    2    5    5    0    0 -0.51043250507E+02 -0.24964200783E+02  0.27730698444E+03  0.29566486558E+03  0.85381053964E+02 0.  0.
          5    1    3    3  501    0  0.85489677220E+02  0.62561874274E+02 -0.46531804486E+02  0.11580056931E+03  0.47000000000E+01 0. -1.
        -13    1    4    4    0    0 -0.31767622140E+02  0.15827293067E+02 -0.24373622428E+02  0.43055295755E+02  0.00000000000E+00 0.  1.
         14    1    4    4    0    0  0.26605503221E+02 -0.11254808769E+02 -0.10312439992E+03  0.10709418929E+03  0.00000000000E+00 0. -1.
         -5    1    5    5    0  502 -0.29284307794E+02 -0.42170157789E+02  0.59061124311E+01  0.51892822769E+02  0.47000000000E+01 0.  1.
         13    1    6    6    0    0 -0.37640478221E+02 -0.56502700794E+02  0.19624845650E+03  0.20766034161E+03  0.00000000000E+00 0. -1.
        -14    1    6    6    0    0 -0.13402772286E+02  0.31538500011E+02  0.81058527942E+02  0.88004523975E+02  0.00000000000E+00 0.  1.
</event>
<event>
12    1  0.8052519E-002  0.1880900E+03  0.7818608E-02  0.1160597E+00
         21   -1    0    0  503  502  0.00000000000E+00  0.00000000000E+00  0.33991024203E+02  0.33991024203E+02  0.00000000000E+00 0.  1.
         21   -1    0    0  501  503 -0.00000000000E+00 -0.00000000000E+00 -0.15255427021E+04  0.15255427021E+04  0.00000000000E+00 0.  1.
          6    2    1    2  501    0  0.25509437469E+02  0.68749228957E+02 -0.11873260415E+04  0.12018591955E+04  0.17130443407E+03 0.  0.
         24    2    3    3    0    0  0.15442550645E+02  0.40670332038E+02 -0.11506607121E+04  0.11543596898E+04  0.81447349767E+02 0.  0.
         -6    2    1    2    0  502 -0.25509437469E+02 -0.68749228957E+02 -0.30422563638E+03  0.35767453078E+03  0.17320694054E+03 0.  0.
        -24    2    5    5    0    0 -0.33466170510E+02 -0.76545799079E+02 -0.31909710584E+03  0.33850823979E+03  0.76063273142E+02 0.  0.
          5    1    3    3  501    0  0.10066886824E+02  0.28078896919E+02 -0.36665329380E+02  0.47499505693E+02  0.47000000000E+01 0. -1.
        -13    1    4    4    0    0  0.42101995141E+02  0.34119993429E+01 -0.38046683922E+03  0.38280443503E+03  0.00000000000E+00 0.  1.
         14    1    4    4    0    0 -0.26659444496E+02  0.37258332695E+02 -0.77019387293E+03  0.77155525482E+03  0.00000000000E+00 0. -1.
         -5    1    5    5    0  502  0.79567330410E+01  0.77965701217E+01  0.14871469461E+02  0.19166290989E+02  0.47000000000E+01 0.  1.
         11    1    6    6    0    0  0.19431425602E+02 -0.35649245081E+02 -0.73458631189E+02  0.83932231424E+02  0.00000000000E+00 0. -1.
        -12    1    6    6    0    0 -0.52897596112E+02 -0.40896553998E+02 -0.24563847466E+03  0.25457600836E+03  0.00000000000E+00 0.  1.
</event>
<event>
12    1  0.8052519E-002  0.2155683E+03  0.7818608E-02  0.1137283E+00
         21   -1    0    0  503  502  0.00000000000E+00  0.00000000000E+00  0.15990762641E+04  0.15990762641E+04  0.00000000000E+00 0.  1.
         21   -1    0    0  501  503 -0.00000000000E+00 -0.00000000000E+00 -0.45153288469E+02  0.45153288469E+02  0.00000000000E+00 0.  1.
          6    2    1    2  501    0 -0.91733141130E+02 -0.91803810274E+02  0.28591694717E+03  0.35807568981E+03  0.17212434514E+03 0.  0.
         24    2    3    3    0    0 -0.96596489953E+02 -0.12730877757E+03  0.23459445899E+03  0.29530354106E+03  0.81432269168E+02 0.  0.
         -6    2    1    2    0  502  0.91733141130E+02  0.91803810274E+02  0.12680060284E+04  0.12861538627E+04  0.17178347337E+03 0.  0.
        -24    2    5    5    0    0  0.10747779701E+03  0.17986472196E+02  0.92626952032E+03  0.93614982766E+03  0.80785428923E+02 0.  0.
          5    1    3    3  501    0  0.48633488227E+01  0.35504967293E+02  0.51322488184E+02  0.62772148742E+02  0.47000000000E+01 0. -1.
        -11    1    4    4    0    0 -0.53837063318E+01 -0.46672855745E+02  0.25781280674E+02  0.53591176423E+02  0.00000000000E+00 0.  1.
         12    1    4    4    0    0 -0.91212783621E+02 -0.80635921822E+02  0.20881317831E+03  0.24171236464E+03  0.00000000000E+00 0. -1.
         -5    1    5    5    0  502 -0.15744655883E+02  0.73817338078E+02  0.34173650810E+03  0.35000403506E+03  0.47000000000E+01 0.  1.
         11    1    6    6    0    0  0.90154000786E+02 -0.20847593745E+02  0.67384694866E+03  0.68017062289E+03  0.00000000000E+00 0. -1.
        -12    1    6    6    0    0  0.17323796227E+02  0.38834065941E+02  0.25242257166E+03  0.25597920478E+03  0.00000000000E+00 0.  1.
</event>
<event>
12    1  0.8052519E-002  0.2339400E+03  0.7818608E-02  0.1124380E+00
         21   -1    0    0  501  502  0.00000000000E+00  0.00000000000E+00  0.52973069149E+02  0.52973069149E+02  0.00000000000E+00 0.  1.
         21   -1    0    0  502  503 -0.00000000000E+00 -0.00000000000E+00 -0.15827694073E+04  0.15827694073E+04  0.00000000000E+00 0. -1.
         -6    2    1    2    0  503 -0.20604610668E+01  0.15886579182E+03 -0.12551615773E+04  0.12767766124E+04  0.17171298065E+03 0.  0.
        -24    2    3    3    0    0  0.27388721367E+02  0.66248996132E+02 -0.95790408437E+03  0.96399996327E+03  0.81096379517E+02 0.  0.
          6    2    1    2  501    0  0.20604610668E+01 -0.15886579182E+03 -0.27463476093E+03  0.35896586405E+03  0.16789774964E+03 0.  0.
         24    2    5    5    0    0  0.32461272639E+02 -0.15211574892E+03 -0.27684879554E+03  0.32739428866E+03  0.79679541701E+02 0.  0.
          5    1    5    5  501    0 -0.30400811572E+02 -0.67500428990E+01  0.22140346102E+01  0.31571575390E+02  0.47000000000E+01 0. -1.
        -13    1    6    6    0    0  0.18824036825E+02 -0.77047158107E+02 -0.66055756550E+02  0.10321807937E+03  0.00000000000E+00 0.  1.
         14    1    6    6    0    0  0.13637235814E+02 -0.75068590809E+02 -0.21079303899E+03  0.22417620929E+03  0.00000000000E+00 0. -1.
         -5    1    3    3    0  503 -0.29449182434E+02  0.92616795683E+02 -0.29725749288E+03  0.31277664916E+03  0.47000000000E+01 0.  1.
         13    1    4    4    0    0  0.21289479738E+02 -0.12885631414E+02 -0.35869894408E+03  0.35956114074E+03  0.00000000000E+00 0. -1.
        -14    1    4    4    0    0  0.60992416295E+01  0.79134627546E+02 -0.59920514029E+03  0.60443882253E+03  0.00000000000E+00 0.  1.
</event>
<event>
12    1  0.8052519E-002  0.1959885E+03  0.7818608E-02  0.1153791E+00
         21   -1    0    0  503  502  0.00000000000E+00  0.00000000000E+00  0.68792829707E+02  0.68792829707E+02  0.00000000000E+00 0. -1.
         21   -1    0    0  501  503 -0.00000000000E+00 -0.00000000000E+00 -0.59669083195E+03  0.59669083195E+03  0.00000000000E+00 0.  1.
          6    2    1    2  501    0 -0.20544269419E+02  0.87853733818E+02 -0.35854757090E+03  0.40861697865E+03  0.17398600257E+03 0.  0.
         24    2    3    3    0    0 -0.49426725923E+02  0.55264771599E+02 -0.34654029730E+03  0.36320220824E+03  0.79551682569E+02 0.  0.
         -6    2    1    2    0  502  0.20544269419E+02 -0.87853733818E+02 -0.16935043135E+03  0.25686668301E+03  0.17076468807E+03 0.  0.
        -24    2    5    5    0    0 -0.12137776746E+02  0.16306266121E+02 -0.93959119554E+02  0.12411367317E+03  0.78502660979E+02 0.  0.
          5    1    3    3  501    0  0.28882456504E+02  0.32588962219E+02 -0.12007273597E+02  0.45414770411E+02  0.47000000000E+01 0. -1.
        -13    1    4    4    0    0 -0.66523331640E+01 -0.18687887857E+02 -0.35760951703E+02  0.40894209319E+02  0.00000000000E+00 0.  1.
         14    1    4    4    0    0 -0.42774392759E+02  0.73952659456E+02 -0.31077934560E+03  0.32230799892E+03  0.00000000000E+00 0. -1.
         -5    1    5    5    0  502  0.32682046165E+02 -0.10415999994E+03 -0.75391311795E+02  0.13275300985E+03  0.47000000000E+01 0.  1.
         13    1    6    6    0    0 -0.43549894127E+02  0.22564554823E+02 -0.55714163032E+02  0.74228164299E+02  0.00000000000E+00 0. -1.
        -14    1    6    6    0    0  0.31412117381E+02 -0.62582887021E+01 -0.38244956522E+02  0.49885508869E+02  0.00000000000E+00 0.  1.
</event>
<event>
12    1  0.8052519E-002  0.3222715E+03  0.7818608E-02  0.1074639E+00
         21   -1    0    0  501  502  0.00000000000E+00  0.00000000000E+00  0.12971310393E+04  0.12971310393E+04  0.00000000000E+00 0.  1.
         21   -1    0    0  502  503 -0.00000000000E+00 -0.00000000000E+00 -0.15439280190E+03  0.15439280190E+03  0.00000000000E+00 0. -1.
         -6    2    1    2    0  503  0.19809931938E+03  0.18707460634E+03  0.67713537129E+02  0.32930840409E+03  0.17210070661E+03 0.  0.
        -24    2    3    3    0    0  0.91510026474E+02  0.37930751807E+02 -0.24455050209E+02  0.12407121155E+03  0.70588874320E+02 0.  0.
          6    2    1    2  501    0 -0.19809931938E+03 -0.18707460634E+03  0.10750247002E+04  0.11222154371E+04  0.17160749529E+03 0.  0.
         24    2    5    5    0    0 -0.17107482612E+03 -0.91092166066E+02  0.56978743517E+03  0.60721083896E+03  0.80516475491E+02 0.  0.
          5    1    5    5  501    0 -0.27024493259E+02 -0.95982440273E+02  0.50523726508E+03  0.51500459813E+03  0.47000000000E+01 0. -1.
        -11    1    6    6    0    0 -0.14150248076E+03 -0.98657284738E+02  0.52798615014E+03  0.55545079587E+03  0.00000000000E+00 0.  1.
         12    1    6    6    0    0 -0.29572345364E+02  0.75651186714E+01  0.41801285026E+02  0.51760043090E+02  0.00000000000E+00 0. -1.
         -5    1    3    3    0  503  0.10658929290E+03  0.14914385453E+03  0.92168587338E+02  0.20523719253E+03  0.47000000000E+01 0.  1.
         13    1    4    4    0    0  0.77391631069E+02  0.57966402941E+02 -0.23670699550E+02  0.99548332214E+02  0.00000000000E+00 0. -1.
        -14    1    4    4    0    0  0.14118395405E+02 -0.20035651133E+02 -0.78435065869E+00  0.24522879340E+02  0.00000000000E+00 0.  1.
</event>
<event>
12    1  0.8052519E-002  0.2897150E+03  0.7818608E-02  0.1090611E+00
         21   -1    0    0  501  502  0.00000000000E+00  0.00000000000E+00  0.17760996721E+04  0.17760996721E+04  0.00000000000E+00 0.  1.
         21   -1    0    0  502  503 -0.00000000000E+00 -0.00000000000E+00 -0.50139029758E+02  0.50139029758E+02  0.00000000000E+00 0. -1.
         -6    2    1    2    0  503 -0.18256637111E+03  0.14700836171E+03  0.63758243721E+03  0.69996080188E+03  0.16879520623E+03 0.  0.
        -24    2    3    3    0    0 -0.88998697389E+02  0.47712347430E+02  0.45077732761E+03  0.46858913768E+03  0.78602446718E+02 0.  0.
          6    2    1    2  501    0  0.18256637111E+03 -0.14700836171E+03  0.10883782051E+04  0.11262778999E+04  0.17027287603E+03 0.  0.
         24    2    5    5    0    0  0.14414600793E+03 -0.17556744475E+03  0.85977607080E+03  0.89266974227E+03  0.77732731737E+02 0.  0.
          5    1    5    5  501    0  0.38420363178E+02  0.28559083033E+02  0.22860213429E+03  0.23360815767E+03  0.47000000000E+01 0. -1.
        -13    1    6    6    0    0  0.63090452288E+02 -0.12312317846E+03  0.59412793374E+03  0.61002272408E+03  0.00000000000E+00 0.  1.
         14    1    6    6    0    0  0.81055555646E+02 -0.52444266283E+02  0.26564813707E+03  0.28264701819E+03  0.00000000000E+00 0. -1.
         -5    1    3    3    0  503 -0.93567673722E+02  0.99296014284E+02  0.18680510960E+03  0.23137166419E+03  0.47000000000E+01 0.  1.
         13    1    4    4    0    0 -0.52426651047E+02 -0.59231973776E+01  0.11406641588E+03  0.12567730598E+03  0.00000000000E+00 0. -1.
        -14    1    4    4    0    0 -0.36572046343E+02  0.53635544808E+02  0.33671091173E+03  0.34291183170E+03  0.00000000000E+00 0.  1.
</event>
<event>
12    1  0.8052519E-002  0.2753744E+03  0.7818608E-02  0.1098388E+00
         21   -1    0    0  503  502  0.00000000000E+00  0.00000000000E+00  0.33634635964E+03  0.33634635964E+03  0.00000000000E+00 0. -1.
         21   -1    0    0  501  503 -0.00000000000E+00 -0.00000000000E+00 -0.22835930127E+03  0.22835930127E+03  0.00000000000E+00 0. -1.
          6    2    1    2  501    0 -0.19094331071E+03  0.96303122171E+02  0.17890831589E+02  0.27595491859E+03  0.17348601094E+03 0.  0.
         24    2    3    3    0    0 -0.34825505596E+02  0.33908647529E+02  0.49967615288E+02  0.10473327979E+03  0.78164474672E+02 0.  0.
         -6    2    1    2    0  502  0.19094331071E+03 -0.96303122171E+02  0.90096226787E+02  0.28875074233E+03  0.17183137626E+03 0.  0.
        -24    2    5    5    0    0  0.19732024174E+03 -0.46023115568E+02  0.95299428915E+02  0.23758524980E+03  0.79444098615E+02 0.  0.
          5    1    3    3  501    0 -0.15611780512E+03  0.62394474643E+02 -0.32076783700E+02  0.17122163880E+03  0.47000000000E+01 0. -1.
        -13    1    4    4    0    0 -0.11119357391E+02 -0.18235083755E+02  0.41711732289E+02  0.46861786126E+02  0.00000000000E+00 0.  1.
         14    1    4    4    0    0 -0.23706148205E+02  0.52143731284E+02  0.82558829995E+01  0.57871493665E+02  0.00000000000E+00 0. -1.
         -5    1    5    5    0  502 -0.63769310239E+01 -0.50280006603E+02 -0.52032021284E+01  0.51165492529E+02  0.47000000000E+01 0.  1.
         13    1    6    6    0    0  0.13115863168E+03 -0.41849971721E+02  0.10143907683E+03  0.17100845916E+03  0.00000000000E+00 0. -1.
        -14    1    6    6    0    0  0.66161610056E+02 -0.41731438472E+01 -0.61396479148E+01  0.66576790635E+02  0.00000000000E+00 0.  1.
</event>
<event>
12    1  0.8052519E-002  0.2026700E+03  0.7818608E-02  0.1147543E+00
         21   -1    0    0  501  502  0.00000000000E+00  0.00000000000E+00  0.17145749373E+03  0.17145749373E+03  0.00000000000E+00 0.  1.
         21   -1    0    0  502  503 -0.00000000000E+00 -0.00000000000E+00 -0.25454985836E+03  0.25454985836E+03  0.00000000000E+00 0. -1.
         -6    2    1    2    0  503 -0.10570935299E+03  0.11303545106E+02  0.10516318541E+02  0.20276374554E+03  0.17233776750E+03 0.  0.
        -24    2    3    3    0    0 -0.23752303123E+02 -0.36316769580E+01  0.63212480875E+02  0.10407740197E+03  0.79113379919E+02 0.  0.
          6    2    1    2  501    0  0.10570935299E+03 -0.11303545106E+02 -0.93608683165E+02  0.22324360655E+03  0.17254821025E+03 0.  0.
         24    2    5    5    0    0  0.30605358630E+02  0.45756177649E+02 -0.75942802707E+02  0.12716761963E+03  0.85871872171E+02 0.  0.
          5    1    5    5  501    0  0.75103994361E+02 -0.57059722755E+02 -0.17665880458E+02  0.96075986918E+02  0.47000000000E+01 0. -1.
        -11    1    6    6    0    0  0.22225329122E+02 -0.23431419546E+02 -0.24986152314E+02  0.40832639934E+02  0.00000000000E+00 0.  1.
         12    1    6    6    0    0  0.83800295085E+01  0.69187597196E+02 -0.50956650393E+02  0.86334979699E+02  0.00000000000E+00 0. -1.
         -5    1    3    3    0  503 -0.81957049868E+02  0.14935222064E+02 -0.52696162334E+02  0.98686343564E+02  0.47000000000E+01 0.  1.
         11    1    4    4    0    0  0.33658079384E+01 -0.21299385042E+02 -0.10194418183E+02  0.23852015184E+02  0.00000000000E+00 0. -1.
        -12    1    4    4    0    0 -0.27118111061E+02  0.17667708084E+02  0.73406899058E+02  0.80225386791E+02  0.00000000000E+00 0.  1.
</event>
<event>
12    1  0.8052519E-002  0.2157467E+03  0.7818608E-02  0.1137808E+00
         21   -1    0    0  501  502  0.00000000000E+00  0.00000000000E+00  0.13377011392E+04  0.13377011392E+04  0.00000000000E+00 0. -1.
         21   -1    0    0  502  503 -0.00000000000E+00 -0.00000000000E+00 -0.11937597766E+03  0.11937597766E+03  0.00000000000E+00 0. -1.
         -6    2    1    2    0  503  0.12229632149E+03  0.35642473623E+02 -0.77274195921E+01  0.21218693457E+03  0.16951933817E+03 0.  0.
        -24    2    3    3    0    0  0.13031690624E+03 -0.10724085951E+02 -0.34603467259E+02  0.15779392432E+03  0.81265124946E+02 0.  0.
          6    2    1    2  501    0 -0.12229632149E+03 -0.35642473623E+02  0.12260525812E+04  0.12448901823E+04  0.17412598336E+03 0.  0.
         24    2    5    5    0    0 -0.46924617811E+02 -0.48249683063E+02  0.10137495867E+04  0.10192034815E+04  0.80978766401E+02 0.  0.
          5    1    5    5  501    0 -0.75371703674E+02  0.12607209441E+02  0.21230299451E+03  0.22568670081E+03  0.47000000000E+01 0. -1.
        -13    1    6    6    0    0  0.12298025763E+02  0.51326837253E+01  0.39308198627E+02  0.41505666591E+02  0.00000000000E+00 0.  1.
         14    1    6    6    0    0 -0.59222643574E+02 -0.53382366789E+02  0.97444138803E+03  0.97769781492E+03  0.00000000000E+00 0. -1.
         -5    1    3    3    0  503 -0.80205847579E+01  0.46366559574E+02  0.26876047667E+02  0.54393010256E+02  0.47000000000E+01 0.  1.
         13    1    4    4    0    0  0.38085225796E+02  0.34162039943E+02 -0.15479914063E+02  0.53452381953E+02  0.00000000000E+00 0. -1.
        -14    1    4    4    0    0  0.92231680447E+02 -0.44886125895E+02 -0.19123553196E+02  0.10434154236E+03  0.00000000000E+00 0.  1.
</event>
<event>
12    1  0.8052519E-002  0.1847979E+03  0.7818608E-02  0.1163409E+00
         21   -1    0    0  501  502  0.00000000000E+00  0.00000000000E+00  0.52788052704E+02  0.52788052704E+02  0.00000000000E+00 0. -1.
         21   -1    0    0  502  503 -0.00000000000E+00 -0.00000000000E+00 -0.64684019917E+03  0.64684019917E+03  0.00000000000E+00 0. -1.
         -6    2    1    2    0  503 -0.64087532716E+02  0.26615246091E+01 -0.27608089347E+03  0.33222121531E+03  0.17330891668E+03 0.  0.
        -24    2    3    3    0    0  0.13012019421E+01  0.50149564776E+02 -0.20579032172E+03  0.22501274990E+03  0.75923705985E+02 0.  0.
          6    2    1    2  501    0  0.64087532716E+02 -0.26615246091E+01 -0.31797125300E+03  0.36740703656E+03  0.17253381471E+03 0.  0.
         24    2    5    5    0    0  0.53641834935E+02 -0.52467999618E+02 -0.11669372042E+03  0.15974256518E+03  0.79182859919E+02 0.  0.
          5    1    5    5  501    0  0.10445697781E+02  0.49806475009E+02 -0.20127753258E+03  0.20766447138E+03  0.47000000000E+01 0. -1.
        -13    1    6    6    0    0 -0.54457602552E+01  0.33562691391E+01  0.83995256262E+01  0.10558071701E+02  0.00000000000E+00 0.  1.
         14    1    6    6    0    0  0.59087595190E+02 -0.55824268757E+02 -0.12509324605E+03  0.14918449348E+03  0.00000000000E+00 0. -1.
         -5    1    3    3    0  503 -0.65388734658E+02 -0.47488040167E+02 -0.70290571747E+02  0.10720846541E+03  0.47000000000E+01 0.  1.
         11    1    4    4    0    0 -0.22433063548E+02  0.56648652168E+01 -0.14114939391E+03  0.14303315853E+03  0.00000000000E+00 0. -1.
        -12    1    4    4    0    0  0.23734265490E+02  0.44484699559E+02 -0.64640927816E+02  0.81979591376E+02  0.00000000000E+00 0.  1.
</event>
<event>
12    1  0.8052519E-002  0.2612663E+03  0.7818608E-02  0.1106703E+00
         21   -1    0    0  501  502  0.00000000000E+00  0.00000000000E+00  0.28928688501E+03  0.28928688501E+03  0.00000000000E+00 0. -1.
         21   -1    0    0  502  503 -0.00000000000E+00 -0.00000000000E+00 -0.32901443471E+03  0.32901443471E+03  0.00000000000E+00 0.  1.
         -6    2    1    2    0  503  0.30163434336E+02 -0.19174325502E+03 -0.18589830088E+03  0.31892535773E+03  0.17169710807E+03 0.  0.
        -24    2    3    3    0    0  0.83990245059E+02 -0.14911239702E+03 -0.13566979770E+03  0.23372143683E+03  0.83249911791E+02 0.  0.
          6    2    1    2  501    0 -0.30163434336E+02  0.19174325502E+03  0.14617075118E+03  0.29937596199E+03  0.17488501795E+03 0.  0.
         24    2    5    5    0    0  0.96623895967E+01  0.39655939747E+02  0.93681029094E+01  0.90920445653E+02  0.80701987310E+02 0.  0.
          5    1    5    5  501    0 -0.39825823933E+02  0.15208731527E+03  0.13680264827E+03  0.20845551634E+03  0.47000000000E+01 0. -1.
        -11    1    6    6    0    0  0.40897277688E+02  0.33589943292E+02 -0.97302615387E+01  0.53810311301E+02  0.00000000000E+00 0.  1.
         12    1    6    6    0    0 -0.31234888091E+02  0.60659964546E+01  0.19098364448E+02  0.37110134353E+02  0.00000000000E+00 0. -1.
         -5    1    3    3    0  503 -0.53826810723E+02 -0.42630857993E+02 -0.50228503183E+02  0.85203920907E+02  0.47000000000E+01 0.  1.
         13    1    4    4    0    0 -0.81523835561E+00 -0.15081640934E+02  0.10208228483E+02  0.18229877553E+02  0.00000000000E+00 0. -1.
        -14    1    4    4    0    0  0.84805483415E+02 -0.13403075609E+03 -0.14587802618E+03  0.21549155927E+03  0.00000000000E+00 0.  1.
</event>
<event>
12    1  0.8052519E-002  0.3195706E+03  0.7818608E-02  0.1076041E+00
         21   -1    0    0  503  502  0.00000000000E+00  0.00000000000E+00  0.73594549004E+03  0.73594549004E+03  0.00000000000E+00 0. -1.
         21   -1    0    0  501  503 -0.00000000000E+00 -0.00000000000E+00 -0.13871139859E+03  0.13871139859E+03  0.00000000000E+00 0.  1.
          6    2    1    2  501    0 -0.55084169703E+02  0.26313374513E+03  0.26736654734E+03  0.41537702734E+03  0.16964542621E+03 0.  0.
         24    2    3    3    0    0  0.19696303410E+02  0.63629767726E+02  0.71066843165E+02  0.12563641919E+03  0.79355667218E+02 0.  0.
         -6    2    1    2    0  502  0.55084169703E+02 -0.26313374513E+03  0.32986754411E+03  0.45927986128E+03  0.17277662094E+03 0.  0.
        -24    2    5    5    0    0  0.80730713367E+02 -0.13848579112E+03  0.25433068580E+03  0.31121648092E+03  0.80472590569E+02 0.  0.
          5    1    3    3  501    0 -0.74780473113E+02  0.19950397740E+03  0.19629970417E+03  0.28974060816E+03  0.47000000000E+01 0. -1.
        -13    1    4    4    0    0  0.96676139870E+01  0.62878114967E+02  0.10788969302E+02  0.64525359051E+02  0.00000000000E+00 0.  1.
         14    1    4    4    0    0  0.10028689423E+02  0.75165275882E+00  0.60277873864E+02  0.61111060136E+02  0.00000000000E+00 0. -1.
         -5    1    5    5    0  502 -0.25646543664E+02 -0.12464795401E+03  0.75536858307E+02  0.14806338036E+03  0.47000000000E+01 0.  1.
         11    1    6    6    0    0  0.40494723244E+01  0.81703873528E+01  0.36665471670E+02  0.37782406863E+02  0.00000000000E+00 0. -1.
        -12    1    6    6    0    0  0.76681241042E+02 -0.14665617847E+03  0.21766521413E+03  0.27343407406E+03  0.00000000000E+00 0.  1.
</event>
<event>
12    1  0.8052519E-002  0.1805748E+03  0.7818608E-02  0.1167934E+00
         21   -1    0    0  501  502  0.00000000000E+00  0.00000000000E+00  0.48131811921E+03  0.48131811921E+03  0.00000000000E+00 0.  1.
         21   -1    0    0  502  503 -0.00000000000E+00 -0.00000000000E+00 -0.10684695139E+03  0.10684695139E+03  0.00000000000E+00 0.  1.
         -6    2    1    2    0  503  0.45742975650E+02  0.10229663241E+02  0.78727187331E+01  0.18074637702E+03  0.17438522665E+03 0.  0.
        -24    2    3    3    0    0  0.11221193211E+02  0.59591258390E+02 -0.35416024361E+02  0.10642056847E+03  0.79962549721E+02 0.  0.
          6    2    1    2  501    0 -0.45742975650E+02 -0.10229663241E+02  0.36659844909E+03  0.40741869358E+03  0.17145991710E+03 0.  0.
         24    2    5    5    0    0  0.10746670647E+00  0.55353767287E+02  0.20195881811E+03  0.22430193434E+03  0.80373767093E+02 0.  0.
          5    1    5    5  501    0 -0.45850442356E+02 -0.65583430528E+02  0.16463963099E+03  0.18311675924E+03  0.47000000000E+01 0. -1.
        -11    1    6    6    0    0 -0.28870571186E+02  0.26270676607E+02  0.16333317180E+03  0.16793267502E+03  0.00000000000E+00 0.  1.
         12    1    6    6    0    0  0.28978037892E+02  0.29083090680E+02  0.38625646304E+02  0.56369259318E+02  0.00000000000E+00 0. -1.
         -5    1    3    3    0  503  0.34521782439E+02 -0.49361595148E+02  0.43288743094E+02  0.74325808552E+02  0.47000000000E+01 0.  1.
         13    1    4    4    0    0 -0.20844089536E+02 -0.95621061321E+01 -0.15356650837E+02  0.27599577301E+02  0.00000000000E+00 0. -1.
        -14    1    4    4    0    0  0.32065282747E+02  0.69153364522E+02 -0.20059373524E+02  0.78820991167E+02  0.00000000000E+00 0.  1.
</event>
<event>
12    1  0.8052519E-002  0.1896879E+03  0.7818608E-02  0.1159408E+00
         21   -1    0    0  503  502  0.00000000000E+00  0.00000000000E+00  0.37760830671E+03  0.37760830671E+03  0.00000000000E+00 0. -1.
         21   -1    0    0  501  503 -0.00000000000E+00 -0.00000000000E+00 -0.11726638063E+03  0.11726638063E+03  0.00000000000E+00 0. -1.
          6    2    1    2  501    0 -0.63324922329E+02 -0.40233123765E+02  0.20359566042E+02  0.19077739340E+03  0.17422041174E+03 0.  0.
         24    2    3    3    0    0  0.33038858251E+02 -0.69178480360E+01  0.18844009188E+02  0.88697656342E+02  0.79829535777E+02 0.  0.
         -6    2    1    2    0  502  0.63324922329E+02  0.40233123765E+02  0.23998236003E+03  0.30409729395E+03  0.17104058297E+03 0.  0.
        -24    2    5    5    0    0 -0.26634025789E+02  0.27565798409E+02  0.76192991238E+02  0.11674169406E+03  0.79712023228E+02 0.  0.
          5    1    3    3  501    0 -0.96363780580E+02 -0.33315275729E+02  0.15155568543E+01  0.10207973705E+03  0.47000000000E+01 0. -1.
        -11    1    4    4    0    0  0.15973385188E+01  0.29155681281E+02  0.27451277249E+02  0.40077148900E+02  0.00000000000E+00 0.  1.
         12    1    4    4    0    0  0.31441519732E+02 -0.36073529317E+02 -0.86072680613E+01  0.48620507442E+02  0.00000000000E+00 0. -1.
         -5    1    5    5    0  502  0.89958948118E+02  0.12667325356E+02  0.16378936880E+03  0.18735559989E+03  0.47000000000E+01 0.  1.
         11    1    6    6    0    0  0.14371328971E+01  0.41449881632E+02  0.74636511083E+02  0.85385987287E+02  0.00000000000E+00 0. -1.
        -12    1    6    6    0    0 -0.28071158686E+02 -0.13884083223E+02  0.15564801549E+01  0.31355706776E+02  0.00000000000E+00 0.  1.
</event>
<event>
12    1  0.8052519E-002  0.2290248E+03  0.7818608E-02  0.1127429E+00
         21   -1    0    0  501  502  0.00000000000E+00  0.00000000000E+00  0.18741316550E+04  0.18741316550E+04  0.00000000000E+00 0.  1.
         21   -1    0    0  502  503 -0.00000000000E+00 -0.00000000000E+00 -0.54483340434E+02  0.54483340434E+02  0.00000000000E+00 0.  1.
         -6    2    1    2    0  503  0.12608451788E+03  0.83051981663E+02  0.23705480233E+03  0.32961695238E+03  0.17221329414E+03 0.  0.
        -24    2    3    3    0    0  0.13633410321E+03  0.14351477944E+02  0.17739639258E+03  0.23793255313E+03  0.79683543617E+02 0.  0.
          6    2    1    2  501    0 -0.12608451788E+03 -0.83051981663E+02  0.15825935122E+04  0.15989980430E+04  0.17145722329E+03 0.  0.
         24    2    5    5    0    0 -0.13266462098E+03 -0.77082509659E+02  0.91389883367E+03  0.93022783177E+03  0.81062481288E+02 0.  0.
          5    1    5    5  501    0  0.65801031015E+01 -0.59694720042E+01  0.66869467856E+03  0.66877021127E+03  0.47000000000E+01 0. -1.
        -11    1    6    6    0    0 -0.18111864572E+02 -0.27300711730E+02  0.40114593594E+03  0.40248159017E+03  0.00000000000E+00 0.  1.
         12    1    6    6    0    0 -0.11455275641E+03 -0.49781797929E+02  0.51275289772E+03  0.52774624161E+03  0.00000000000E+00 0. -1.
         -5    1    3    3    0  503 -0.10249585330E+02  0.68700503718E+02  0.59658409749E+02  0.91684399242E+02  0.47000000000E+01 0.  1.
         13    1    4    4    0    0  0.43196102270E+02  0.32479631398E+02  0.10669645656E+03  0.11960335927E+03  0.00000000000E+00 0. -1.
        -14    1    4    4    0    0  0.93138000939E+02 -0.18128153453E+02  0.70699936023E+02  0.11832919386E+03  0.00000000000E+00 0.  1.
</event>
<event>
12    1  0.8052519E-002  0.1916824E+03  0.7818608E-02  0.1156982E+00
         21   -1    0    0  503  502  0.00000000000E+00  0.00000000000E+00  0.26292152023E+03  0.26292152023E+03  0.00000000000E+00 0.  1.
         21   -1    0    0  501  503 -0.00000000000E+00 -0.00000000000E+00 -0.20912245636E+03  0.20912245636E+03  0.00000000000E+00 0. -1.
          6    2    1    2  501    0  0.84649823733E+02  0.52869918296E+01 -0.10913094638E+03  0.22057128801E+03  0.17189701770E+03 0.  0.
         24    2    3    3    0    0  0.50602007848E+02  0.51159854212E+02 -0.13290911371E+02  0.10889776572E+03  0.80648503842E+02 0.  0.
         -6    2    1    2    0  502 -0.84649823733E+02 -0.52869918296E+01  0.16293001025E+03  0.25147268858E+03  0.17175208855E+03 0.  0.
        -24    2    5    5    0    0 -0.10092071160E+02 -0.49786199496E+02  0.12505844326E+03  0.15662869279E+03  0.79450724429E+02 0.  0.
          5    1    3    3  501    0  0.34047815885E+02 -0.45872862383E+02 -0.95840035013E+02  0.11167352229E+03  0.47000000000E+01 0. -1.
        -13    1    4    4    0    0  0.60663291852E+02  0.25696357795E+02  0.17027898972E+02  0.68046213162E+02  0.00000000000E+00 0.  1.
         14    1    4    4    0    0 -0.10061284004E+02  0.25463496417E+02 -0.30318810343E+02  0.40851552556E+02  0.00000000000E+00 0. -1.
         -5    1    5    5    0  502 -0.74557752573E+02  0.44499207666E+02  0.37871566987E+02  0.94843995792E+02  0.47000000000E+01 0.  1.
         13    1    6    6    0    0  0.10062069693E+02 -0.36729398991E+01 -0.86468749168E+01  0.13766051716E+02  0.00000000000E+00 0. -1.
        -14    1    6    6    0    0 -0.20154140853E+02 -0.46113259597E+02  0.13370531818E+03  0.14286264107E+03  0.00000000000E+00 0.  1.
</event>
<event>
12    1  0.8052519E-002  0.1898266E+03  0.7818608E-02  0.1158712E+00
         21   -1    0    0  503  502  0.00000000000E+00  0.00000000000E+00  0.39299809022E+03  0.39299809022E+03  0.00000000000E+00 0.  1.
         21   -1    0    0  501  503 -0.00000000000E+00 -0.00000000000E+00 -0.13267905352E+03  0.13267905352E+03  0.00000000000E+00 0.  1.
          6    2    1    2  501    0  0.48221378611E+02  0.63632506544E+02 -0.16188586654E+02  0.19051564653E+03  0.17222004526E+03 0.  0.
         24    2    3    3    0    0  0.97786633108E+01 -0.16685564865E+02 -0.50228410563E+02  0.95071240895E+02  0.78368471254E+02 0.  0.
         -6    2    1    2    0  502 -0.48221378611E+02 -0.63632506544E+02  0.27650762336E+03  0.33516149721E+03  0.17176252849E+03 0.  0.
        -24    2    5    5    0    0  0.79129409899E+01  0.54297603860E+01  0.20728536854E+03  0.22231439218E+03  0.79776989341E+02 0.  0.
          5    1    3    3  501    0  0.38442715300E+02  0.80318071410E+02  0.34039823910E+02  0.95444405632E+02  0.47000000000E+01 0. -1.
        -13    1    4    4    0    0  0.13554007007E+02 -0.47607000728E+02 -0.32740274778E+02  0.59346973106E+02  0.00000000000E+00 0.  1.
         14    1    4    4    0    0 -0.37753436965E+01  0.30921435863E+02 -0.17488135786E+02  0.35724267790E+02  0.00000000000E+00 0. -1.
         -5    1    5    5    0  502 -0.56134319601E+02 -0.69062266930E+02  0.69222254817E+02  0.11284710503E+03  0.47000000000E+01 0.  1.
         11    1    6    6    0    0  0.13405995836E+02 -0.35649243869E+02  0.83521058583E+02  0.91795187998E+02  0.00000000000E+00 0. -1.
        -12    1    6    6    0    0 -0.54930548466E+01  0.41079004255E+02  0.12376430996E+03  0.13051920419E+03  0.00000000000E+00 0.  1.
</event>
<event>
12    1  0.8052519E-002  0.1843620E+03  0.7818608E-02  0.1163666E+00
         21   -1    0    0  503  502  0.00000000000E+00  0.00000000000E+00  0.57933201416E+03  0.57933201416E+03  0.00000000000E+00 0. -1.
         21   -1    0    0  501  503 -0.00000000000E+00 -0.00000000000E+00 -0.59287543417E+02  0.59287543417E+02  0.00000000000E+00 0.  1.
          6    2    1    2  501    0 -0.43073639167E+02 -0.51070359401E+02  0.22669604140E+03  0.29214783960E+03  0.17174325313E+03 0.  0.
         24    2    3    3    0    0  0.24117415153E+02 -0.68255996137E+02  0.96584778923E+02  0.14463168959E+03  0.79681713030E+02 0.  0.
         -6    2    1    2    0  502  0.43073639167E+02  0.51070359401E+02  0.29334842935E+03  0.34647171798E+03  0.17183081900E+03 0.  0.
        -24    2    5    5    0    0  0.74868691694E+02  0.76430606318E+02  0.16934064765E+03  0.21588041884E+03  0.80505538415E+02 0.  0.
          5    1    3    3  501    0 -0.67191054320E+02  0.17185636736E+02  0.13011126247E+03  0.14751615001E+03  0.47000000000E+01 0. -1.
        -13    1    4    4    0    0  0.52837272804E+02 -0.39431120472E+02  0.69236554162E+02  0.95604869601E+02  0.00000000000E+00 0.  1.
         14    1    4    4    0    0 -0.28719857651E+02 -0.28824875666E+02  0.27348224761E+02  0.49026819989E+02  0.00000000000E+00 0. -1.
         -5    1    5    5    0  502 -0.31795052527E+02 -0.25360246916E+02  0.12400778169E+03  0.13059129913E+03  0.47000000000E+01 0.  1.
         13    1    6    6    0    0  0.35544376395E+02  0.15371737174E+02  0.12483126821E+03  0.13070018561E+03  0.00000000000E+00 0. -1.
        -14    1    6    6    0    0  0.39324315299E+02  0.61058869144E+02  0.44509379444E+02  0.85180233232E+02  0.00000000000E+00 0.  1.
</event>
<event>
12    1  0.8052519E-002  0.2021923E+03  0.7818608E-02  0.1148055E+00
         21   -1    0    0  503  502  0.00000000000E+00  0.00000000000E+00  0.13805762734E+03  0.13805762734E+03  0.00000000000E+00 0.  1.
         21   -1    0    0  501  503 -0.00000000000E+00 -0.00000000000E+00 -0.31090610581E+03  0.31090610581E+03  0.00000000000E+00 0. -1.
          6    2    1    2  501    0  0.61231313475E+02 -0.88838298507E+02 -0.13727040521E+03  0.24438673678E+03  0.17099764893E+03 0.  0.
         24    2    3    3    0    0  0.63303493799E-01  0.11411505242E+02 -0.78668111656E+02  0.11305560031E+03  0.80390736479E+02 0.  0.
         -6    2    1    2    0  502 -0.61231313475E+02  0.88838298507E+02 -0.35578073263E+02  0.20457699637E+03  0.17013062957E+03 0.  0.
        -24    2    5    5    0    0 -0.33909279925E+02 -0.17739037461E+02 -0.33534306952E+02  0.94433957375E+02  0.79553188797E+02 0.  0.
          5    1    3    3  501    0  0.61168009981E+02 -0.10024980375E+03 -0.58602293550E+02  0.13133113647E+03  0.47000000000E+01 0. -1.
        -11    1    4    4    0    0 -0.20141739493E+02  0.28828386865E+02 -0.60387507225E+01  0.35682377574E+02  0.00000000000E+00 0.  1.
         12    1    4    4    0    0  0.20205042987E+02 -0.17416881623E+02 -0.72629360934E+02  0.77373222740E+02  0.00000000000E+00 0. -1.
         -5    1    5    5    0  502 -0.27322033550E+02  0.10657733597E+03 -0.20437663107E+01  0.11014303900E+03  0.47000000000E+01 0.  1.
         11    1    6    6    0    0 -0.49028813175E+02  0.13787050106E+01  0.45060994941E+01  0.49254748822E+02  0.00000000000E+00 0. -1.
        -12    1    6    6    0    0  0.15119533250E+02 -0.19117742472E+02 -0.38040406446E+02  0.45179208554E+02  0.00000000000E+00 0.  1.
</event>
<event>
12    1  0.8052519E-002  0.2634913E+03  0.7818608E-02  0.1105302E+00
         21   -1    0    0  501  502  0.00000000000E+00  0.00000000000E+00  0.56728868379E+03  0.56728868379E+03  0.00000000000E+00 0.  1.
         21   -1    0    0  502  503 -0.00000000000E+00 -0.00000000000E+00 -0.12345574262E+03  0.12345574262E+03  0.00000000000E+00 0. -1.
         -6    2    1    2    0  503 -0.19673654486E+03 -0.34414654259E+02  0.18068425413E+03  0.31949098735E+03  0.17186638647E+03 0.  0.
        -24    2    3    3    0    0 -0.17251134203E+03  0.11669359748E+01  0.73377428340E+02  0.20377687898E+03  0.79870173075E+02 0.  0.
          6    2    1    2  501    0  0.19673654486E+03  0.34414654259E+02  0.26314868704E+03  0.37125343906E+03  0.16938786265E+03 0.  0.
         24    2    5    5    0    0  0.21772935468E+03  0.38234732281E+02  0.25751118428E+03  0.34868880971E+03  0.80024429724E+02 0.  0.
          5    1    5    5  501    0 -0.20992809816E+02 -0.38200780219E+01  0.56375027616E+01  0.22564629345E+02  0.47000000000E+01 0. -1.
        -13    1    6    6    0    0  0.29808627331E+02  0.34839435243E+02  0.36792297212E+02  0.58787869884E+02  0.00000000000E+00 0.  1.
         14    1    6    6    0    0  0.18792072734E+03  0.33952970388E+01  0.22071888706E+03  0.28990093983E+03  0.00000000000E+00 0. -1.
         -5    1    3    3    0  503 -0.24225202830E+02 -0.35581590234E+02  0.10730682579E+03  0.11571410838E+03  0.47000000000E+01 0.  1.
         11    1    4    4    0    0 -0.71002331643E+02  0.12007998340E+02 -0.90373999814E+01  0.72575462253E+02  0.00000000000E+00 0. -1.
        -12    1    4    4    0    0 -0.10150901039E+03 -0.10841062365E+02  0.82414828321E+02  0.13120141672E+03  0.00000000000E+00 0.  1.
</event>
<event>
12    1  0.8052519E-002  0.2453990E+03  0.7818608E-02  0.1117160E+00
         21   -1    0    0  501  502  0.00000000000E+00  0.00000000000E+00  0.91566299872E+02  0.91566299872E+02  0.00000000000E+00 0. -1.
         21   -1    0    0  502  503 -0.00000000000E+00 -0.00000000000E+00 -0.18710928315E+04  0.18710928315E+04  0.00000000000E+00 0.  1.
         -6    2    1    2    0  503 -0.17182280174E+03 -0.27076907675E+02 -0.16813197513E+04  0.16983387800E+04  0.16511290431E+03 0.  0.
        -24    2    3    3    0    0 -0.86548698802E+02  0.29636320932E+02 -0.85943891829E+03  0.87008866275E+03  0.10024987779E+03 0.  0.
          6    2    1    2  501    0  0.17182280174E+03  0.27076907675E+02 -0.98206780284E+02  0.26432035140E+03  0.17310240421E+03 0.  0.
         24    2    5    5    0    0  0.48021025759E+02 -0.36434995496E+02 -0.13818683353E+02  0.10151960667E+03  0.80509295846E+02 0.  0.
          5    1    5    5  501    0  0.12380177598E+03  0.63511903171E+02 -0.84388096931E+02  0.16280074473E+03  0.47000000000E+01 0. -1.
        -13    1    6    6    0    0  0.68812105270E+02 -0.19261963482E+02 -0.53535919058E+00  0.71459188901E+02  0.00000000000E+00 0.  1.
         14    1    6    6    0    0 -0.20791079511E+02 -0.17173032014E+02 -0.13283324162E+02  0.30060417771E+02  0.00000000000E+00 0. -1.
         -5    1    3    3    0  503 -0.85274102937E+02 -0.56713228608E+02 -0.82188083305E+03  0.82825011721E+03  0.47000000000E+01 0.  1.
         13    1    4    4    0    0 -0.33543109643E+02 -0.33781620655E+01 -0.65214628647E+02  0.73413213885E+02  0.00000000000E+00 0. -1.
        -14    1    4    4    0    0 -0.53005589159E+02  0.33014482998E+02 -0.79422428964E+03  0.79667544887E+03  0.00000000000E+00 0.  1.
</event>
<event>
12    1  0.8052519E-002  0.1831536E+03  0.7818608E-02  0.1165013E+00
         21   -1    0    0  503  502  0.00000000000E+00  0.00000000000E+00  0.48827496484E+03  0.48827496484E+03  0.00000000000E+00 0. -1.
         21   -1    0    0  501  503 -0.00000000000E+00 -0.00000000000E+00 -0.14715708538E+03  0.14715708538E+03  0.00000000000E+00 0. -1.
          6    2    1    2  501    0  0.55130438368E+02  0.34677565880E+02 -0.62163171106E+02  0.19250898320E+03  0.17015742699E+03 0.  0.
         24    2    3    3    0    0 -0.21766426268E+02  0.56544484852E+02 -0.19156723925E+02  0.10160829874E+03  0.79285624308E+02 0.  0.
         -6    2    1    2    0  502 -0.55130438368E+02 -0.34677565880E+02  0.40328105057E+03  0.44292306702E+03  0.17118217997E+03 0.  0.
        -24    2    5    5    0    0 -0.23522209791E+02  0.18928669381E+02  0.95178641854E+02  0.12856357085E+03  0.80981658462E+02 0.  0.
          5    1    3    3  501    0  0.76896864635E+02 -0.21866918972E+02 -0.43006447181E+02  0.90900684459E+02  0.47000000000E+01 0. -1.
        -13    1    4    4    0    0 -0.49692578110E+02  0.24235505242E+02 -0.12525766624E+01  0.55301726753E+02  0.00000000000E+00 0.  1.
         14    1    4    4    0    0  0.27926151842E+02  0.32308979610E+02 -0.17904147262E+02  0.46306571989E+02  0.00000000000E+00 0. -1.
         -5    1    5    5    0  502 -0.31608228577E+02 -0.53606235261E+02  0.30810240872E+03  0.31435949617E+03  0.47000000000E+01 0.  1.
         13    1    6    6    0    0 -0.33646564173E+02 -0.77182700326E+01  0.93883302067E+02  0.10002868279E+03  0.00000000000E+00 0. -1.
        -14    1    6    6    0    0  0.10124354383E+02  0.26646939413E+02  0.12953397865E+01  0.28534888066E+02  0.00000000000E+00 0.  1.
</event>
<event>
12    1  0.8052519E-002  0.1889560E+03  0.7818608E-02  0.1159532E+00
         21   -1    0    0  501  502  0.00000000000E+00  0.00000000000E+00  0.19171004520E+04  0.19171004520E+04  0.00000000000E+00 0.  1.
         21   -1    0    0  502  503 -0.00000000000E+00 -0.00000000000E+00 -0.21220286607E+02  0.21220286607E+02  0.00000000000E+00 0. -1.
         -6    2    1    2    0  503 -0.66709096196E+02  0.45397004845E+02  0.60664155770E+03  0.63538833733E+03  0.17086066872E+03 0.  0.
        -24    2    3    3    0    0 -0.85701841397E+02 -0.86913774812E+01  0.27749074580E+03  0.30124970674E+03  0.79560832993E+02 0.  0.
          6    2    1    2  501    0  0.66709096196E+02 -0.45397004845E+02  0.12892386077E+04  0.13029324013E+04  0.17025176411E+03 0.  0.
         24    2    5    5    0    0  0.58563466205E+02  0.36853485432E+02  0.80180677512E+03  0.80852024949E+03  0.77608184097E+02 0.  0.
          5    1    5    5  501    0  0.81456299910E+01 -0.82250490276E+02  0.48743183261E+03  0.49441215184E+03  0.47000000000E+01 0. -1.
        -13    1    6    6    0    0  0.61143100019E+02  0.24372004295E+02  0.32784954396E+03  0.33439168164E+03  0.00000000000E+00 0.  1.
         14    1    6    6    0    0 -0.25796338137E+01  0.12481481137E+02  0.47395723116E+03  0.47412856785E+03  0.00000000000E+00 0. -1.
         -5    1    3    3    0  503  0.18992745201E+02  0.54088382326E+02  0.32915081191E+03  0.33413863059E+03  0.47000000000E+01 0.  1.
         11    1    4    4    0    0 -0.37947696876E+02  0.65496190553E+01  0.30224330418E+02  0.48953399853E+02  0.00000000000E+00 0. -1.
        -12    1    4    4    0    0 -0.47754144522E+02 -0.15240996537E+02  0.24726641538E+03  0.25229630689E+03  0.00000000000E+00 0.  1.
</event>
<event>
12    1  0.8052519E-002  0.2068708E+03  0.7818608E-02  0.1144234E+00
         21   -1    0    0  501  502  0.00000000000E+00  0.00000000000E+00  0.16116571702E+04  0.16116571702E+04  0.00000000000E+00 0. -1.
         21   -1    0    0  502  503 -0.00000000000E+00 -0.00000000000E+00 -0.29546960087E+02  0.29546960087E+02  0.00000000000E+00 0. -1.
         -6    2    1    2    0  503  0.67307455527E+02 -0.92937513600E+02  0.52672751414E+03  0.56589523081E+03  0.17212746180E+03 0.  0.
        -24    2    3    3    0    0 -0.16161548788E+02 -0.37039006854E+02  0.36297542727E+03  0.37372719578E+03  0.79295475101E+02 0.  0.
          6    2    1    2  501    0 -0.67307455527E+02  0.92937513600E+02  0.10553826960E+04  0.10753088995E+04  0.17114005761E+03 0.  0.
         24    2    5    5    0    0 -0.60018575232E+02 -0.10748861980E+02  0.60243147463E+03  0.61056069757E+03  0.78376759192E+02 0.  0.
          5    1    5    5  501    0 -0.72888802950E+01  0.10368637558E+03  0.45295122137E+03  0.46474820193E+03  0.47000000000E+01 0. -1.
        -13    1    6    6    0    0 -0.54506515726E+02  0.57593946593E+01  0.18962145350E+03  0.19738395707E+03  0.00000000000E+00 0.  1.
         14    1    6    6    0    0 -0.55120595057E+01 -0.16508256640E+02  0.41281002113E+03  0.41317674049E+03  0.00000000000E+00 0. -1.
         -5    1    3    3    0  503  0.83469004314E+02 -0.55898506746E+02  0.16375208686E+03  0.19216803504E+03  0.47000000000E+01 0.  1.
         11    1    4    4    0    0 -0.24107828147E+02 -0.59679398394E+02  0.28315598275E+03  0.29037928393E+03  0.00000000000E+00 0. -1.
        -12    1    4    4    0    0  0.79462793589E+01  0.22640391540E+02  0.79819444526E+02  0.83347911847E+02  0.00000000000E+00 0.  1.
</event>
<event>
12    1  0.8052519E-002  0.1946875E+03  0.7818608E-02  0.1154477E+00
         21   -1    0    0  503  502  0.00000000000E+00  0.00000000000E+00  0.30439500446E+02  0.30439500446E+02  0.00000000000E+00 0. -1.
         21   -1    0    0  501  503 -0.00000000000E+00 -0.00000000000E+00 -0.16353408989E+04  0.16353408989E+04  0.00000000000E+00 0.  1.
          6    2    1    2  501    0  0.86229539947E+02  0.21279562760E+02 -0.12132087250E+04  0.12287304906E+04  0.17324795721E+03 0.  0.
         24    2    3    3    0    0  0.11128550157E+03  0.57911063716E+02 -0.89294635850E+03  0.90537350290E+03  0.81300839087E+02 0.  0.
         -6    2    1    2    0  502 -0.86229539947E+02 -0.21279562760E+02 -0.39169267349E+03  0.43704990881E+03  0.17234012586E+03 0.  0.
        -24    2    5    5    0    0 -0.72820003486E+02 -0.72698349748E+02 -0.20160420836E+03  0.23961783974E+03  0.78642541481E+02 0.  0.
          5    1    3    3  501    0 -0.25055961621E+02 -0.36631500955E+02 -0.32026236650E+03  0.32335698766E+03  0.47000000000E+01 0. -1.
        -11    1    4    4    0    0  0.18019120934E+02  0.12985365385E+02 -0.44770417487E+03  0.44825476755E+03  0.00000000000E+00 0.  1.
         12    1    4    4    0    0  0.93266380633E+02  0.44925698330E+02 -0.44524218363E+03  0.45711873536E+03  0.00000000000E+00 0. -1.
         -5    1    5    5    0  502 -0.13409536461E+02  0.51418786988E+02 -0.19008846513E+03  0.19743206907E+03  0.47000000000E+01 0.  1.
         11    1    6    6    0    0 -0.89078083812E+02 -0.59926432398E+02 -0.15411264761E+03  0.18782116619E+03  0.00000000000E+00 0. -1.
        -12    1    6    6    0    0  0.16258080326E+02 -0.12771917350E+02 -0.47491560746E+02  0.51796673549E+02  0.00000000000E+00 0.  1.
</event>
<event>
12    1  0.8052519E-002  0.2884294E+03  0.7818608E-02  0.1091248E+00
         21   -1    0    0  503  502  0.00000000000E+00  0.00000000000E+00  0.91488381803E+02  0.91488381803E+02  0.00000000000E+00 0. -1.
         21   -1    0    0  501  503 -0.00000000000E+00 -0.00000000000E+00 -0.92030154412E+03  0.92030154412E+03  0.00000000000E+00 0.  1.
          6    2    1    2  501    0 -0.20618916003E+03  0.10541470093E+03 -0.47447773289E+03  0.55526627966E+03  0.17194561185E+03 0.  0.
         24    2    3    3    0    0 -0.10900017181E+03  0.18885321908E+02 -0.13295161588E+03  0.18975949249E+03  0.78069456183E+02 0.  0.
         -6    2    1    2    0  502  0.20618916003E+03 -0.10541470093E+03 -0.35433542943E+03  0.45652364627E+03  0.17097957235E+03 0.  0.
        -24    2    5    5    0    0  0.24604688958E+02 -0.29327981821E+02 -0.13689979645E+03  0.16315961737E+03  0.80087360022E+02 0.  0.
          5    1    3    3  501    0 -0.97188988227E+02  0.86529379023E+02 -0.34152611701E+03  0.36550678717E+03  0.47000000000E+01 0. -1.
        -13    1    4    4    0    0 -0.68432699674E+01 -0.20507321751E+02 -0.42727904737E+02  0.47885847935E+02  0.00000000000E+00 0.  1.
         14    1    4    4    0    0 -0.10215690184E+03  0.39392643659E+02 -0.90223711141E+02  0.14187364456E+03  0.00000000000E+00 0. -1.
         -5    1    5    5    0  502  0.18158447108E+03 -0.76086719110E+02 -0.21743563298E+03  0.29336402890E+03  0.47000000000E+01 0.  1.
         13    1    6    6    0    0  0.41755213606E+02 -0.36167187310E+02 -0.13337508281E+03  0.14436230815E+03  0.00000000000E+00 0. -1.
        -14    1    6    6    0    0 -0.17150524648E+02  0.68392054884E+01 -0.35247136396E+01  0.18797309214E+02  0.00000000000E+00 0.  1.
</event>
<event>
12    1  0.8052519E-002  0.2119835E+03  0.7818608E-02  0.1140144E+00
         21   -1    0    0  503  502  0.00000000000E+00  0.00000000000E+00  0.21014900742E+03  0.21014900742E+03  0.00000000000E+00 0. -1.
         21   -1    0    0  501  503 -0.00000000000E+00 -0.00000000000E+00 -0.42552485747E+03  0.42552485747E+03  0.00000000000E+00 0. -1.
          6    2    1    2  501    0 -0.72995421150E+02 -0.99234399599E+02 -0.33215373389E+03  0.39365301797E+03  0.17164148113E+03 0.  0.
         24    2    3    3    0    0 -0.55593941816E+02 -0.95324430675E+02 -0.12283439966E+03  0.18352264648E+03  0.80092687433E+02 0.  0.
         -6    2    1    2    0  502  0.72995421150E+02  0.99234399599E+02  0.11677788383E+03  0.24202084693E+03  0.17251440120E+03 0.  0.
        -24    2    5    5    0    0  0.21230386379E+02  0.11920464166E+03  0.44403174079E+02  0.15070481326E+03  0.77973219581E+02 0.  0.
          5    1    3    3  501    0 -0.17401479334E+02 -0.39099689238E+01 -0.20931933423E+03  0.21013037149E+03  0.47000000000E+01 0. -1.
        -11    1    4    4    0    0 -0.48581390985E+02 -0.98615624955E+01 -0.34384707568E+02  0.60330009775E+02  0.00000000000E+00 0.  1.
         12    1    4    4    0    0 -0.70125508315E+01 -0.85462868180E+02 -0.88449692096E+02  0.12319263671E+03  0.00000000000E+00 0. -1.
         -5    1    5    5    0  502  0.51765034771E+02 -0.19970242062E+02  0.72374709756E+02  0.91316033669E+02  0.47000000000E+01 0.  1.
         13    1    6    6    0    0 -0.99584571490E+01  0.52745316874E+02  0.54623440323E+02  0.76583023926E+02  0.00000000000E+00 0. -1.
        -14    1    6    6    0    0  0.31188843528E+02  0.66459324787E+02 -0.10220266245E+02  0.74121789332E+02  0.00000000000E+00 0.  1.
</event>
<event>
12    1  0.8052519E-002  0.2066007E+03  0.7818608E-02  0.1144297E+00
         21   -1    0    0  503  502  0.00000000000E+00  0.00000000000E+00  0.81384909661E+02  0.81384909661E+02  0.00000000000E+00 0.  1.
         21   -1    0    0  501  503 -0.00000000000E+00 -0.00000000000E+00 -0.12070283413E+04  0.12070283413E+04  0.00000000000E+00 0.  1.
          6    2    1    2  501    0  0.10901696861E+03 -0.37523238829E+02 -0.78369587836E+02  0.22096521948E+03  0.17143845258E+03 0.  0.
         24    2    3    3    0    0 -0.27810475655E+01 -0.47117835472E+02 -0.22725853528E+02  0.95629000160E+02  0.80003853707E+02 0.  0.
         -6    2    1    2    0  502 -0.10901696861E+03  0.37523238829E+02 -0.10472738438E+04  0.10674480315E+04  0.17137707873E+03 0.  0.
        -24    2    5    5    0    0 -0.14494740877E+03  0.37491503833E+02 -0.84254046710E+03  0.85953256050E+03  0.80662380906E+02 0.  0.
          5    1    3    3  501    0  0.11179801617E+03  0.95945966427E+01 -0.55643734309E+02  0.12533621932E+03  0.47000000000E+01 0. -1.
        -13    1    4    4    0    0 -0.65342106857E+01 -0.16428294650E+01  0.27182897269E+02  0.28005440576E+02  0.00000000000E+00 0.  1.
         14    1    4    4    0    0  0.37531631201E+01 -0.45475006007E+02 -0.49908750796E+02  0.67623559584E+02  0.00000000000E+00 0. -1.
         -5    1    5    5    0  502  0.35930440169E+02  0.31734995834E-01 -0.20473337667E+03  0.20791547095E+03  0.47000000000E+01 0.  1.
         13    1    6    6    0    0 -0.55339767115E+02  0.54817166554E+02 -0.43241572286E+03  0.43937543052E+03  0.00000000000E+00 0. -1.
        -14    1    6    6    0    0 -0.89607641660E+02 -0.17325662721E+02 -0.41012474424E+03  0.42015712998E+03  0.00000000000E+00 0.  1.
</event>
<event>
12    1  0.8052519E-002  0.1750595E+03  0.7818608E-02  0.1172801E+00
         21   -1    0    0  503  502  0.00000000000E+00  0.00000000000E+00  0.19074286793E+03  0.19074286793E+03  0.00000000000E+00 0.  1.
         21   -1    0    0  501  503 -0.00000000000E+00 -0.00000000000E+00 -0.20125705766E+03  0.20125705766E+03  0.00000000000E+00 0.  1.
          6    2    1    2  501    0 -0.12281896997E+02  0.29885923792E+02 -0.93793796369E+02  0.19860289011E+03  0.17205178956E+03 0.  0.
         24    2    3    3    0    0 -0.52725678330E+02  0.65717177332E+02 -0.51494563645E+02  0.12982140083E+03  0.84280255558E+02 0.  0.
         -6    2    1    2    0  502  0.12281896997E+02 -0.29885923792E+02  0.83279606635E+02  0.19339703548E+03  0.17153106720E+03 0.  0.
        -24    2    5    5    0    0  0.29689812659E+02  0.28466054842E+02  0.95720561135E+02  0.13106842016E+03  0.79528005672E+02 0.  0.
          5    1    3    3  501    0  0.40443781334E+02 -0.35831253540E+02 -0.42299232724E+02  0.68781489282E+02  0.47000000000E+01 0. -1.
        -11    1    4    4    0    0 -0.27676589912E+01 -0.15613221141E+01 -0.45713333686E+02  0.45823646077E+02  0.00000000000E+00 0.  1.
         12    1    4    4    0    0 -0.49958019339E+02  0.67278499446E+02 -0.57812299585E+01  0.83997754755E+02  0.00000000000E+00 0. -1.
         -5    1    5    5    0  502 -0.17407915662E+02 -0.58351978634E+02 -0.12440954500E+02  0.62328615315E+02  0.47000000000E+01 0.  1.
         13    1    6    6    0    0  0.24566232206E+01  0.74546237306E+01 -0.14017805371E+02  0.16065655294E+02  0.00000000000E+00 0. -1.
        -14    1    6    6    0    0  0.27233189438E+02  0.21011431112E+02  0.10973836651E+03  0.11500276487E+03  0.00000000000E+00 0.  1.
</event>
<event>
12    1  0.8052519E-002  0.1771598E+03  0.7818608E-02  0.1170789E+00
         21   -1    0    0  501  502  0.00000000000E+00  0.00000000000E+00  0.28800433629E+04  0.28800433629E+04  0.00000000000E+00 0.  1.
         21   -1    0    0  502  503 -0.00000000000E+00 -0.00000000000E+00 -0.15185269892E+02  0.15185269892E+02  0.00000000000E+00 0.  1.
         -6    2    1    2    0  503  0.35151284761E+02 -0.15415222776E+02  0.65612955201E+03  0.67940657832E+03  0.17208738398E+03 0.  0.
        -24    2    3    3    0    0 -0.29189639808E+02 -0.27026825703E+02  0.52831398097E+03  0.53576294255E+03  0.79647873412E+02 0.  0.
          6    2    1    2  501    0 -0.35151284761E+02  0.15415222776E+02  0.22087285410E+04  0.22158220545E+04  0.17295192211E+03 0.  0.
         24    2    5    5    0    0 -0.53995536365E+02 -0.47274670902E+02  0.16048779873E+04  0.16084155104E+04  0.78845973303E+02 0.  0.
          5    1    5    5  501    0  0.18844251604E+02  0.62689893679E+02  0.60385055374E+03  0.60740654412E+03  0.47000000000E+01 0. -1.
        -11    1    6    6    0    0 -0.61774361465E+02 -0.14242154187E+02  0.13203214058E+04  0.13218424737E+04  0.00000000000E+00 0.  1.
         12    1    6    6    0    0  0.77788250996E+01 -0.33032516715E+02  0.28455658151E+03  0.28657303670E+03  0.00000000000E+00 0. -1.
         -5    1    3    3    0  503  0.64340924569E+02  0.11611602927E+02  0.12781557104E+03  0.14364363577E+03  0.47000000000E+01 0.  1.
         13    1    4    4    0    0 -0.52621711166E+02  0.25094303494E+00  0.33968398780E+03  0.34373582738E+03  0.00000000000E+00 0. -1.
        -14    1    4    4    0    0  0.23432071357E+02 -0.27277768738E+02  0.18862999317E+03  0.19202711517E+03  0.00000000000E+00 0.  1.
</event>
<event>
12    1  0.8052519E-002  0.2221518E+03  0.7818608E-02  0.1132526E+00
         21   -1    0    0  501  502  0.00000000000E+00  0.00000000000E+00  0.47544223570E+02  0.47544223570E+02  0.00000000000E+00 0.  1.
         21   -1    0    0  502  503 -0.00000000000E+00 -0.00000000000E+00 -0.17838237625E+04  0.17838237625E+04  0.00000000000E+00 0. -1.
         -6    2    1    2    0  503 -0.81588340787E+02  0.11298219805E+03 -0.14611409331E+04  0.14777401298E+04  0.17135177398E+03 0.  0.
        -24    2    3    3    0    0 -0.11359949882E+00  0.44619292132E+02 -0.40558211712E+03  0.41682631410E+03  0.85184671528E+02 0.  0.
          6    2    1    2  501    0  0.81588340787E+02 -0.11298219805E+03 -0.27513860587E+03  0.35362785630E+03  0.17300223664E+03 0.  0.
         24    2    5    5    0    0  0.81335912812E+02 -0.75956379481E+01 -0.10798360111E+03  0.15596836023E+03  0.77410896230E+02 0.  0.
          5    1    5    5  501    0  0.25242797481E+00 -0.10538656010E+03 -0.16715500477E+03  0.19765949608E+03  0.47000000000E+01 0. -1.
        -11    1    6    6    0    0  0.28972702942E+02 -0.23031420370E+02 -0.23788613605E+01  0.37088041488E+02  0.00000000000E+00 0.  1.
         12    1    6    6    0    0  0.52363209870E+02  0.15435782421E+02 -0.10560473974E+03  0.11888031874E+03  0.00000000000E+00 0. -1.
         -5    1    3    3    0  503 -0.81474741288E+02  0.68362905917E+02 -0.10555588160E+04  0.10609138157E+04  0.47000000000E+01 0.  1.
         13    1    4    4    0    0 -0.33315068032E+02  0.15597104086E+02 -0.30221859679E+03  0.30444908222E+03  0.00000000000E+00 0. -1.
        -14    1    4    4    0    0  0.33201468533E+02  0.29022188047E+02 -0.10336352033E+03  0.11237723189E+03  0.00000000000E+00 0.  1.
</event>
<event>
12    1  0.8052519E-002  0.2036639E+03  0.7818608E-02  0.1148880E+00
         21   -1    0    0  503  502  0.00000000000E+00  0.00000000000E+00  0.18835186518E+03  0.18835186518E+03  0.00000000000E+00 0.  1.
         21   -1    0    0  501  503 -0.00000000000E+00 -0.00000000000E+00 -0.74729963965E+03  0.74729963965E+03  0.00000000000E+00 0.  1.
          6    2    1    2  501    0 -0.10315657305E+03 -0.41481648897E+02 -0.67847408452E+03  0.70838270517E+03  0.17063694749E+03 0.  0.
         24    2    3    3    0    0 -0.39802426915E+02  0.40771296698E+02 -0.33090151093E+03  0.34560442741E+03  0.81854007180E+02 0.  0.
         -6    2    1    2    0  502  0.10315657305E+03  0.41481648897E+02  0.11952631005E+03  0.22726879967E+03  0.15812198693E+03 0.  0.
        -24    2    5    5    0    0 -0.11711141369E+01  0.33855418834E+02  0.45502818167E+02  0.99034665956E+02  0.81177568990E+02 0.  0.
          5    1    3    3  501    0 -0.63354146132E+02 -0.82252945595E+02 -0.34757257360E+03  0.36277827775E+03  0.47000000000E+01 0. -1.
        -13    1    4    4    0    0 -0.57754497043E+02  0.11295444934E+02 -0.26218143226E+03  0.26870480536E+03  0.00000000000E+00 0.  1.
         14    1    4    4    0    0  0.17952070128E+02  0.29475851764E+02 -0.68720078670E+02  0.76899622050E+02  0.00000000000E+00 0. -1.
         -5    1    5    5    0  502  0.10432768718E+03  0.76262300628E+01  0.74023491882E+02  0.12823413371E+03  0.47000000000E+01 0.  1.
         13    1    6    6    0    0 -0.12998762330E+02  0.50563187056E+02  0.35185311489E+01  0.52325746710E+02  0.00000000000E+00 0. -1.
        -14    1    6    6    0    0  0.11827648194E+02 -0.16707768221E+02  0.41984287018E+02  0.46708919246E+02  0.00000000000E+00 0.  1.
</event>
<event>
12    1  0.8052519E-002  0.1753463E+03  0.7818608E-02  0.1172854E+00
         21   -1    0    0  503  502  0.00000000000E+00  0.00000000000E+00  0.97524687378E+02  0.97524687378E+02  0.00000000000E+00 0. -1.
         21   -1    0    0  501  503 -0.00000000000E+00 -0.00000000000E+00 -0.31407719975E+03  0.31407719975E+03  0.00000000000E+00 0. -1.
          6    2    1    2  501    0  0.14927868658E+02  0.28713812423E+02 -0.90661071653E+02  0.19574320212E+03  0.17043663625E+03 0.  0.
         24    2    3    3    0    0  0.51094228121E+02 -0.20565055272E+02 -0.16904899413E+02  0.99834520020E+02  0.81532902057E+02 0.  0.
         -6    2    1    2    0  502 -0.14927868658E+02 -0.28713812423E+02 -0.12589144072E+03  0.21585868501E+03  0.17233395708E+03 0.  0.
        -24    2    5    5    0    0 -0.50579456132E+02 -0.40622047449E+02 -0.22020636670E+02  0.10529614305E+03  0.79962098400E+02 0.  0.
          5    1    3    3  501    0 -0.36166359463E+02  0.49278867695E+02 -0.73756172240E+02  0.95908682097E+02  0.47000000000E+01 0. -1.
        -13    1    4    4    0    0  0.21837307719E+02 -0.12864988705E+02 -0.49346981488E+02  0.55475224423E+02  0.00000000000E+00 0.  1.
         14    1    4    4    0    0  0.29256920401E+02 -0.77000665676E+01  0.32442082075E+02  0.44359295597E+02  0.00000000000E+00 0. -1.
         -5    1    5    5    0  502  0.35651587474E+02  0.11908235026E+02 -0.10387080405E+03  0.11056254196E+03  0.47000000000E+01 0.  1.
         11    1    6    6    0    0  0.15125100985E+01 -0.45983570504E+02 -0.25878539084E+02  0.52787074442E+02  0.00000000000E+00 0. -1.
        -12    1    6    6    0    0 -0.52091966230E+02  0.53615230545E+01  0.38579024135E+01  0.52509068609E+02  0.00000000000E+00 0.  1.
</event>
<event>
12    1  0.8052519E-002  0.2149275E+03  0.7818608E-02  0.1139126E+00
         21   -1    0    0  501  502  0.00000000000E+00  0.00000000000E+00  0.13105474326E+03  0.13105474326E+03  0.00000000000E+00 0.  1.
         21   -1    0    0  502  503 -0.00000000000E+00 -0.00000000000E+00 -0.49291478448E+03  0.49291478448E+03  0.00000000000E+00 0. -1.
         -6    2    1    2    0  503 -0.98039567784E+02  0.59606987554E+02 -0.35209885379E+03  0.40882049072E+03  0.17319307428E+03 0.  0.
        -24    2    3    3    0    0 -0.83634590941E+02  0.66022601426E+02 -0.12892224935E+03  0.18503811825E+03  0.79148153026E+02 0.  0.
          6    2    1    2  501    0  0.98039567784E+02 -0.59606987554E+02 -0.97611874323E+01  0.21514903702E+03  0.18173903691E+03 0.  0.
         24    2    5    5    0    0  0.10938975462E+03 -0.91611403087E+02  0.26109500549E+02  0.16553144326E+03  0.79750768624E+02 0.  0.
          5    1    5    5  501    0 -0.11350186840E+02  0.32004415533E+02 -0.35870687981E+02  0.49617593766E+02  0.47000000000E+01 0. -1.
        -11    1    6    6    0    0  0.43855188468E+02 -0.86703958797E+02  0.87377288970E+01  0.97556147591E+02  0.00000000000E+00 0.  1.
         12    1    6    6    0    0  0.65534566156E+02 -0.49074442905E+01  0.17371771652E+02  0.67975295667E+02  0.00000000000E+00 0. -1.
         -5    1    3    3    0  503 -0.14404976843E+02 -0.64156138720E+01 -0.22317660444E+03  0.22378237247E+03  0.47000000000E+01 0.  1.
         13    1    4    4    0    0 -0.39315230773E+02 -0.13564965131E+02 -0.38111516339E+02  0.56410844058E+02  0.00000000000E+00 0. -1.
        -14    1    4    4    0    0 -0.44319360168E+02  0.79587566557E+02 -0.90810733009E+02  0.12862727419E+03  0.00000000000E+00 0.  1.
</event>
<event>
12    1  0.8052519E-002  0.1875671E+03  0.7818608E-02  0.1160891E+00
         21   -1    0    0  501  502  0.00000000000E+00  0.00000000000E+00  0.17051405666E+03  0.17051405666E+03  0.00000000000E+00 0. -1.
         21   -1    0    0  502  503 -0.00000000000E+00 -0.00000000000E+00 -0.25129502574E+03  0.25129502574E+03  0.00000000000E+00 0. -1.
         -6    2    1    2    0  503  0.54215012310E+02  0.51004690659E+02 -0.13054520845E+03  0.22775261775E+03  0.17113870811E+03 0.  0.
        -24    2    3    3    0    0  0.83382875112E+02  0.23829398844E+02 -0.14040070300E+03  0.18641883643E+03  0.86712634953E+02 0.  0.
          6    2    1    2  501    0 -0.54215012310E+02 -0.51004690659E+02  0.49764239368E+02  0.19405646465E+03  0.17216470580E+03 0.  0.
         24    2    5    5    0    0  0.23125570667E+02 -0.66076843548E+02  0.42020097936E+02  0.11474191810E+03  0.80616858457E+02 0.  0.
          5    1    5    5  501    0 -0.77340582976E+02  0.15072152889E+02  0.77441414325E+01  0.79314546549E+02  0.47000000000E+01 0. -1.
        -13    1    6    6    0    0  0.23524677617E+02  0.59424961633E+01 -0.96410312507E+01  0.26108872078E+02  0.00000000000E+00 0.  1.
         14    1    6    6    0    0 -0.39910695048E+00 -0.72019339711E+02  0.51661129186E+02  0.88633046024E+02  0.00000000000E+00 0. -1.
         -5    1    3    3    0  503 -0.29167862802E+02  0.27175291815E+02  0.98554945542E+01  0.41333781324E+02  0.47000000000E+01 0.  1.
         11    1    4    4    0    0  0.22384519965E+02  0.85621458494E+01 -0.11683545918E+03  0.11926819190E+03  0.00000000000E+00 0. -1.
        -12    1    4    4    0    0  0.60998355146E+02  0.15267252995E+02 -0.23565243815E+02  0.67150644529E+02  0.00000000000E+00 0.  1.
</event>
<event>
12    1  0.8052519E-002  0.1740079E+03  0.7818608E-02  0.1174457E+00
         21   -1    0    0  501  502  0.00000000000E+00  0.00000000000E+00  0.27492246851E+03  0.27492246851E+03  0.00000000000E+00 0. -1.
         21   -1    0    0  502  503 -0.00000000000E+00 -0.00000000000E+00 -0.11244040075E+03  0.11244040075E+03  0.00000000000E+00 0. -1.
         -6    2    1    2    0  503  0.20650173265E+02 -0.52310728362E+01  0.11756645347E+03  0.20765150821E+03  0.16983369542E+03 0.  0.
        -24    2    3    3    0    0  0.41554750037E+02 -0.62840786954E+02  0.61192423091E+02  0.12424885962E+03  0.77572577094E+02 0.  0.
          6    2    1    2  501    0 -0.20650173265E+02  0.52310728362E+01  0.44915614287E+02  0.17971136106E+03  0.17269906516E+03 0.  0.
         24    2    5    5    0    0 -0.16262663118E+02 -0.62264139512E+02  0.70886293187E+01  0.10207229404E+03  0.78912655919E+02 0.  0.
          5    1    5    5  501    0 -0.43875101470E+01  0.67495212349E+02  0.37826984968E+02  0.77639067016E+02  0.47000000000E+01 0. -1.
        -13    1    6    6    0    0 -0.35149348031E+02 -0.72088551308E+01  0.21869034023E+02  0.42020220233E+02  0.00000000000E+00 0.  1.
         14    1    6    6    0    0  0.18886684914E+02 -0.55055284382E+02 -0.14780404704E+02  0.60052073807E+02  0.00000000000E+00 0. -1.
         -5    1    3    3    0  503 -0.20904576773E+02  0.57609714118E+02  0.56374030375E+02  0.83402648588E+02  0.47000000000E+01 0.  1.
         11    1    4    4    0    0  0.21095621735E+02 -0.16487857198E+02  0.68042328480E+02  0.73120675300E+02  0.00000000000E+00 0. -1.
        -12    1    4    4    0    0  0.20459128303E+02 -0.46352929756E+02 -0.68499053884E+01  0.51128184319E+02  0.00000000000E+00 0.  1.
</event>
<event>
12    1  0.8052519E-002  0.3024013E+03  0.7818608E-02  0.1084364E+00
         21   -1    0    0  503  502  0.00000000000E+00  0.00000000000E+00  0.72899775868E+03  0.72899775868E+03  0.00000000000E+00 0. -1.
         21   -1    0    0  501  503 -0.00000000000E+00 -0.00000000000E+00 -0.28542440730E+03  0.28542440730E+03  0.00000000000E+00 0.  1.
          6    2    1    2  501    0 -0.24455838196E+03  0.39560992007E+02 -0.15961097937E+03  0.33967932941E+03  0.16891568257E+03 0.  0.
         24    2    3    3    0    0 -0.10598258080E+03  0.49960074944E+02 -0.19799681317E+02  0.14249747766E+03  0.78645961371E+02 0.  0.
         -6    2    1    2    0  502  0.24455838196E+03 -0.39560992007E+02  0.60318433075E+03  0.67474283657E+03  0.17341477551E+03 0.  0.
        -24    2    5    5    0    0  0.77391593013E+02 -0.59362515613E+02  0.33746625646E+03  0.36015577284E+03  0.79469110543E+02 0.  0.
          5    1    3    3  501    0 -0.13857580116E+03 -0.10399082937E+02 -0.13981129806E+03  0.19718185175E+03  0.47000000000E+01 0. -1.
        -11    1    4    4    0    0 -0.31427872731E+01  0.18592082252E+00 -0.27788853589E+02  0.27966624076E+02  0.00000000000E+00 0.  1.
         12    1    4    4    0    0 -0.10283979352E+03  0.49774154121E+02  0.79891722715E+01  0.11453085359E+03  0.00000000000E+00 0. -1.
         -5    1    5    5    0  502  0.16716678895E+03  0.19801523606E+02  0.26571807429E+03  0.31458706373E+03  0.47000000000E+01 0.  1.
         11    1    6    6    0    0  0.58125593425E+02 -0.84458650849E+01  0.25252765694E+03  0.25926846080E+03  0.00000000000E+00 0. -1.
        -12    1    6    6    0    0  0.19265999588E+02 -0.50916650528E+02  0.84938599521E+02  0.10088731204E+03  0.00000000000E+00 0.  1.
</event>
<event>
12    1  0.8052519E-002  0.1793898E+03  0.7818608E-02  0.1171207E+00
         21   -1    0    0  503  502  0.00000000000E+00  0.00000000000E+00  0.10279502882E+04  0.10279502882E+04  0.00000000000E+00 0.  1.
         21   -1    0    0  501  503 -0.00000000000E+00 -0.00000000000E+00 -0.35358970308E+02  0.35358970308E+02  0.00000000000E+00 0.  1.
          6    2    1    2  501    0  0.13422067621E+02  0.47121744360E+02  0.29113022865E+03  0.34196129019E+03  0.17256912606E+03 0.  0.
         24    2    3    3    0    0  0.47764949454E+02  0.11107550681E+02  0.73699754066E+02  0.11885916794E+03  0.79315698163E+02 0.  0.
         -6    2    1    2    0  502 -0.13422067621E+02 -0.47121744360E+02  0.70146108925E+03  0.72134796832E+03  0.16091805670E+03 0.  0.
        -24    2    5    5    0    0  0.49858339885E+02 -0.34086284203E+02  0.47863117113E+03  0.48929281193E+03  0.81681876842E+02 0.  0.
          5    1    3    3  501    0 -0.34342881833E+02  0.36014193679E+02  0.21743047458E+03  0.22310212226E+03  0.47000000000E+01 0. -1.
        -11    1    4    4    0    0  0.42271634967E+02  0.21762527700E+02  0.35330379785E+01  0.47675791467E+02  0.00000000000E+00 0.  1.
         12    1    4    4    0    0  0.54933144869E+01 -0.10654977018E+02  0.70166716088E+02  0.71183376471E+02  0.00000000000E+00 0. -1.
         -5    1    5    5    0  502 -0.63280407506E+02 -0.13035460158E+02  0.22282991812E+03  0.23205515638E+03  0.47000000000E+01 0.  1.
         13    1    6    6    0    0  0.64835934947E+02 -0.28219294408E+02  0.24209357790E+03  0.25220889655E+03  0.00000000000E+00 0. -1.
        -14    1    6    6    0    0 -0.14977595062E+02 -0.58669897948E+01  0.23653759323E+03  0.23708391538E+03  0.00000000000E+00 0.  1.
</event>
<event>
12    1  0.8052519E-002  0.2545869E+03  0.7818608E-02  0.1110940E+00
         21   -1    0    0  503  502  0.00000000000E+00  0.00000000000E+00  0.89321347923E+02  0.89321347923E+02  0.00000000000E+00 0. -1.
         21   -1    0    0  501  503 -0.00000000000E+00 -0.00000000000E+00 -0.72339217789E+03  0.72339217789E+03  0.00000000000E+00 0. -1.
          6    2    1    2  501    0  0.15768122166E+03  0.10086807007E+03 -0.27934502779E+03  0.37795256827E+03  0.17255945088E+03 0.  0.
         24    2    3    3    0    0  0.82486449256E+02  0.97339410451E+02 -0.26058500660E+03  0.30023041164E+03  0.77167216285E+02 0.  0.
         -6    2    1    2    0  502 -0.15768122166E+03 -0.10086807007E+03 -0.35472580218E+03  0.43476095754E+03  0.16777651876E+03 0.  0.
        -24    2    5    5    0    0 -0.15007775012E+03 -0.13225448732E+03 -0.27825605992E+03  0.35161872129E+03  0.78706478648E+02 0.  0.
          5    1    3    3  501    0  0.75194772407E+02  0.35286596143E+01 -0.18760021182E+02  0.77722156627E+02  0.47000000000E+01 0. -1.
        -13    1    4    4    0    0 -0.66867398984E+01  0.43912821133E+02 -0.92202443764E+02  0.10234421814E+03  0.00000000000E+00 0.  1.
         14    1    4    4    0    0  0.89173189155E+02  0.53426589318E+02 -0.16838256284E+03  0.19788619350E+03  0.00000000000E+00 0. -1.
         -5    1    5    5    0  502 -0.76034715455E+01  0.31386417259E+02 -0.76469742258E+02  0.83142236252E+02  0.47000000000E+01 0.  1.
         13    1    6    6    0    0 -0.97105597278E+02 -0.83340449724E+02 -0.23487637294E+03  0.26747343447E+03  0.00000000000E+00 0. -1.
        -14    1    6    6    0    0 -0.52972152840E+02 -0.48914037600E+02 -0.43379686976E+02  0.84145286814E+02  0.00000000000E+00 0.  1.
</event>
<event>
12    1  0.8052519E-002  0.2170762E+03  0.7818608E-02  0.1136135E+00
         21   -1    0    0  501  502  0.00000000000E+00  0.00000000000E+00  0.16052555266E+03  0.16052555266E+03  0.00000000000E+00 0.  1.
         21   -1    0    0  502  503 -0.00000000000E+00 -0.00000000000E+00 -0.34589620698E+03  0.34589620698E+03  0.00000000000E+00 0. -1.
         -6    2    1    2    0  503 -0.12000441809E+03  0.55484423831E+02 -0.19149527324E+03  0.28925920329E+03  0.17181637107E+03 0.  0.
        -24    2    3    3    0    0 -0.46355642607E+02  0.84071097286E+02 -0.66999242497E+02  0.14173736864E+03  0.79898611833E+02 0.  0.
          6    2    1    2  501    0  0.12000441809E+03 -0.55484423831E+02  0.61246189118E+01  0.21716255635E+03  0.17216992559E+03 0.  0.
         24    2    5    5    0    0 -0.66319563659E+00  0.28558566606E+01 -0.13556587537E+02  0.81612929957E+02  0.80425701892E+02 0.  0.
          5    1    5    5  501    0  0.12066761372E+03 -0.58340280491E+02  0.19681206449E+02  0.13554962640E+03  0.47000000000E+01 0. -1.
        -13    1    6    6    0    0 -0.33626604793E+02 -0.21100858977E+02 -0.78215156703E+01  0.40461968648E+02  0.00000000000E+00 0.  1.
         14    1    6    6    0    0  0.32963409156E+02  0.23956715637E+02 -0.57350718665E+01  0.41150961309E+02  0.00000000000E+00 0. -1.
         -5    1    3    3    0  503 -0.73648775479E+02 -0.28586673455E+02 -0.12449603074E+03  0.14752183465E+03  0.47000000000E+01 0.  1.
         11    1    4    4    0    0 -0.17653298288E+02  0.36568393498E+02 -0.75366406433E+02  0.85609471217E+02  0.00000000000E+00 0. -1.
        -12    1    4    4    0    0 -0.28702344319E+02  0.47502703789E+02  0.83671639355E+01  0.56127897421E+02  0.00000000000E+00 0.  1.
</event>
<event>
12    1  0.8052519E-002  0.1835046E+03  0.7818608E-02  0.1164912E+00
         21   -1    0    0  503  502  0.00000000000E+00  0.00000000000E+00  0.12270432311E+03  0.12270432311E+03  0.00000000000E+00 0.  1.
         21   -1    0    0  501  503 -0.00000000000E+00 -0.00000000000E+00 -0.30255402698E+03  0.30255402698E+03  0.00000000000E+00 0.  1.
          6    2    1    2  501    0 -0.58810371785E+02 -0.17938449116E+02 -0.15841815806E+03  0.24242579688E+03  0.17289738691E+03 0.  0.
         24    2    3    3    0    0  0.29064031656E+02 -0.22678474166E+02 -0.11757344988E+03  0.14529311029E+03  0.76990523140E+02 0.  0.
         -6    2    1    2    0  502  0.58810371785E+02  0.17938449116E+02 -0.21431545805E+02  0.18283255321E+03  0.17084491088E+03 0.  0.
        -24    2    5    5    0    0 -0.31725517329E+02  0.39441134478E+01 -0.28959507929E+02  0.90792622412E+02  0.79891067738E+02 0.  0.
          5    1    3    3  501    0 -0.87874403441E+02  0.47400250498E+01 -0.40844708178E+02  0.97132686588E+02  0.47000000000E+01 0. -1.
        -11    1    4    4    0    0 -0.25297779736E+02 -0.15325641523E+02 -0.51763169929E+02  0.59617771753E+02  0.00000000000E+00 0.  1.
         12    1    4    4    0    0  0.54361811392E+02 -0.73528326430E+01 -0.65810279953E+02  0.85675338535E+02  0.00000000000E+00 0. -1.
         -5    1    5    5    0  502  0.90535889114E+02  0.13994335668E+02  0.75279621235E+01  0.92039930803E+02  0.47000000000E+01 0.  1.
         11    1    6    6    0    0 -0.13158891552E+02 -0.16795585993E+02 -0.51002471123E+02  0.55285623777E+02  0.00000000000E+00 0. -1.
        -12    1    6    6    0    0 -0.18566625777E+02  0.20739699441E+02  0.22042963195E+02  0.35506998635E+02  0.00000000000E+00 0.  1.
</event>
<event>
12    1  0.8052519E-002  0.1891951E+03  0.7818608E-02  0.1159425E+00
         21   -1    0    0  503  502  0.00000000000E+00  0.00000000000E+00  0.22103281873E+02  0.22103281873E+02  0.00000000000E+00 0.  1.
         21   -1    0    0  501  503 -0.00000000000E+00 -0.00000000000E+00 -0.16507245725E+04  0.16507245725E+04  0.00000000000E+00 0.  1.
          6    2    1    2  501    0  0.60776068918E+02 -0.44612625585E+02 -0.68605190752E+03  0.71166143220E+03  0.17352451514E+03 0.  0.
         24    2    3    3    0    0  0.10160679772E+03 -0.62841787734E+02 -0.50302140709E+03  0.52318940548E+03  0.80147279355E+02 0.  0.
         -6    2    1    2    0  502 -0.60776068918E+02  0.44612625585E+02 -0.94256938306E+03  0.96116642213E+03  0.17239440892E+03 0.  0.
        -24    2    5    5    0    0  0.23334214543E+02 -0.11527804535E+02 -0.54871354436E+03  0.55450833558E+03  0.75601353253E+02 0.  0.
          5    1    3    3  501    0 -0.40830728807E+02  0.18229162149E+02 -0.18303050043E+03  0.18847202672E+03  0.47000000000E+01 0. -1.
        -13    1    4    4    0    0  0.76206050357E+02 -0.41148508701E+02 -0.46313602805E+03  0.47116402914E+03  0.00000000000E+00 0.  1.
         14    1    4    4    0    0  0.25400747367E+02 -0.21693279034E+02 -0.39885379037E+02  0.52025376337E+02  0.00000000000E+00 0. -1.
         -5    1    5    5    0  502 -0.84110283461E+02  0.56140430121E+02 -0.39385583870E+03  0.40665808655E+03  0.47000000000E+01 0.  1.
         11    1    6    6    0    0 -0.17931152175E+02 -0.14959321712E+02 -0.38258736984E+03  0.38329936483E+03  0.00000000000E+00 0. -1.
        -12    1    6    6    0    0  0.41265366718E+02  0.34315171772E+01 -0.16612617453E+03  0.17120897075E+03  0.00000000000E+00 0.  1.
</event>
<event>
12    1  0.8052519E-002  0.1793363E+03  0.7818608E-02  0.1168884E+00
         21   -1    0    0  503  502  0.00000000000E+00  0.00000000000E+00  0.71844066676E+02  0.71844066676E+02  0.00000000000E+00 0. -1.
         21   -1    0    0  501  503 -0.00000000000E+00 -0.00000000000E+00 -0.88159660235E+03  0.88159660235E+03  0.00000000000E+00 0. -1.
          6    2    1    2  501    0 -0.33096981880E+02  0.34295408446E+02 -0.74002579069E+03  0.76102624008E+03  0.17102976921E+03 0.  0.
         24    2    3    3    0    0 -0.44395243452E+02 -0.20667862348E+02 -0.24611880513E+03  0.26391980054E+03  0.81737975888E+02 0.  0.
         -6    2    1    2    0  502  0.33096981880E+02 -0.34295408446E+02 -0.69726744985E+02  0.19241442894E+03  0.17288698115E+03 0.  0.
        -24    2    5    5    0    0 -0.70472816592E+01  0.42498209274E+02 -0.24117612756E+02  0.94378187889E+02  0.80435198352E+02 0.  0.
          5    1    3    3  501    0  0.11298261573E+02  0.54963270794E+02 -0.49390698556E+03  0.49710643954E+03  0.47000000000E+01 0. -1.
        -13    1    4    4    0    0  0.16876385621E+02 -0.19344758485E+02 -0.31043404442E+02  0.40283061351E+02  0.00000000000E+00 0.  1.
         14    1    4    4    0    0 -0.61271629073E+02 -0.13231038628E+01 -0.21507540069E+03  0.22363673918E+03  0.00000000000E+00 0. -1.
         -5    1    5    5    0  502  0.40144263539E+02 -0.76793617720E+02 -0.45609132229E+02  0.98036241055E+02  0.47000000000E+01 0.  1.
         13    1    6    6    0    0 -0.21850964360E+02  0.45208264721E+02  0.15049764818E+02  0.52418959010E+02  0.00000000000E+00 0. -1.
        -14    1    6    6    0    0  0.14803682701E+02 -0.27100554475E+01 -0.39167377575E+02  0.41959228879E+02  0.00000000000E+00 0.  1.
</event>
<event>
12    1  0.8052519E-002  0.2902960E+03  0.7818608E-02  0.1090230E+00
         21   -1    0    0  503  502  0.00000000000E+00  0.00000000000E+00  0.25957051391E+03  0.25957051391E+03  0.00000000000E+00 0. -1.
         21   -1    0    0  501  503 -0.00000000000E+00 -0.00000000000E+00 -0.33507581240E+03  0.33507581240E+03  0.00000000000E+00 0. -1.
          6    2    1    2  501    0 -0.15487510764E+03 -0.17569318404E+03  0.15410070511E+02  0.29070476429E+03  0.17151500174E+03 0.  0.
         24    2    3    3    0    0 -0.14198844055E+03 -0.85519642722E+02 -0.35440873085E+02  0.18627659659E+03  0.77256639919E+02 0.  0.
         -6    2    1    2    0  502  0.15487510764E+03  0.17569318404E+03 -0.90915368996E+02  0.30394156203E+03  0.17105693474E+03 0.  0.
        -24    2    5    5    0    0  0.16851193090E+03  0.16475429817E+03 -0.43653938585E+02  0.25333173119E+03  0.82042976862E+02 0.  0.
          5    1    3    3  501    0 -0.12886667082E+02 -0.90173541320E+02  0.50850943596E+02  0.10442816769E+03  0.47000000000E+01 0. -1.
        -11    1    4    4    0    0 -0.57675685442E+01 -0.36112192624E+02 -0.16570272740E+02  0.40148838610E+02  0.00000000000E+00 0.  1.
         12    1    4    4    0    0 -0.13622087201E+03 -0.49407450098E+02 -0.18870600345E+02  0.14612775798E+03  0.00000000000E+00 0. -1.
         -5    1    5    5    0  502 -0.13636823266E+02  0.10938885874E+02 -0.47261430411E+02  0.50609830838E+02  0.47000000000E+01 0.  1.
         11    1    6    6    0    0  0.31217297869E+02  0.85480620890E+02 -0.16431276272E+02  0.92474012965E+02  0.00000000000E+00 0. -1.
        -12    1    6    6    0    0  0.13729463303E+03  0.79273677278E+02 -0.27222662313E+02  0.16085771822E+03  0.00000000000E+00 0.  1.
</event>
<event>
12    1  0.8052519E-002  0.2914936E+03  0.7818608E-02  0.1089810E+00
         21   -1    0    0  501  502  0.00000000000E+00  0.00000000000E+00  0.31208627088E+03  0.31208627088E+03  0.00000000000E+00 0. -1.
         21   -1    0    0  502  503 -0.00000000000E+00 -0.00000000000E+00 -0.27055697472E+03  0.27055697472E+03  0.00000000000E+00 0.  1.
         -6    2    1    2    0  503  0.15234897569E+03 -0.18042748706E+03  0.21397057415E+02  0.29227791133E+03  0.17089252442E+03 0.  0.
        -24    2    3    3    0    0  0.16851336764E+03 -0.11881408182E+03  0.41317501426E+02  0.22537190740E+03  0.81066760202E+02 0.  0.
          6    2    1    2  501    0 -0.15234897569E+03  0.18042748706E+03  0.20132238745E+02  0.29036533428E+03  0.16775706195E+03 0.  0.
         24    2    5    5    0    0 -0.98525448918E+02  0.19593545810E+03  0.19483923979E+02  0.23415163922E+03  0.79683116342E+02 0.  0.
          5    1    5    5  501    0 -0.53823526776E+02 -0.15507971043E+02  0.64831476570E+00  0.56213695061E+02  0.47000000000E+01 0. -1.
        -11    1    6    6    0    0 -0.27075798858E+02  0.53903557964E+02 -0.30359766903E+02  0.67530792172E+02  0.00000000000E+00 0.  1.
         12    1    6    6    0    0 -0.71449650060E+02  0.14203190013E+03  0.49843690882E+02  0.16662084705E+03  0.00000000000E+00 0. -1.
         -5    1    3    3    0  503 -0.16164391945E+02 -0.61613405236E+02 -0.19920444011E+02  0.66906003926E+02  0.47000000000E+01 0.  1.
         13    1    4    4    0    0  0.13031934175E+03 -0.69172366944E+02  0.61095266727E+02  0.15968900651E+03  0.00000000000E+00 0. -1.
        -14    1    4    4    0    0  0.38194025887E+02 -0.49641714875E+02 -0.19777765302E+02  0.65682900891E+02  0.00000000000E+00 0.  1.
</event>
<event>
12    1  0.8052519E-002  0.1744217E+03  0.7818608E-02  0.1173444E+00
         21   -1    0    0  503  502  0.00000000000E+00  0.00000000000E+00  0.91385485899E+02  0.91385485899E+02  0.00000000000E+00 0. -1.
         21   -1    0    0  501  503 -0.00000000000E+00 -0.00000000000E+00 -0.72014519187E+03  0.72014519187E+03  0.00000000000E+00 0. -1.
          6    2    1    2  501    0  0.24213411998E+02 -0.13019122443E+02 -0.16242519809E+02  0.17466316136E+03  0.17171957844E+03 0.  0.
         24    2    3    3    0    0 -0.16475911681E+02 -0.23373366087E+02  0.48372424793E+02  0.97462044217E+02  0.79631580888E+02 0.  0.
         -6    2    1    2    0  502 -0.24213411998E+02  0.13019122443E+02 -0.61251718616E+03  0.63686751640E+03  0.17224152588E+03 0.  0.
        -24    2    5    5    0    0 -0.67750429768E+02 -0.12455304057E+02 -0.47012113494E+03  0.48572803207E+03  0.10085923005E+03 0.  0.
          5    1    3    3  501    0  0.40689323679E+02  0.10354243644E+02 -0.64614944602E+02  0.77201117148E+02  0.47000000000E+01 0. -1.
        -11    1    4    4    0    0  0.23678915520E+02 -0.32458825346E+02  0.10512234574E+02  0.41530391990E+02  0.00000000000E+00 0.  1.
         12    1    4    4    0    0 -0.40154827201E+02  0.90854592589E+01  0.37860190219E+02  0.55931652228E+02  0.00000000000E+00 0. -1.
         -5    1    5    5    0  502  0.43537017770E+02  0.25474426500E+02 -0.14239605122E+03  0.15113948434E+03  0.47000000000E+01 0.  1.
         11    1    6    6    0    0  0.11273212665E+02 -0.29353892151E+02 -0.60199114922E+02  0.67916638208E+02  0.00000000000E+00 0. -1.
        -12    1    6    6    0    0 -0.79023642432E+02  0.16898588093E+02 -0.40992202002E+03  0.41781139386E+03  0.00000000000E+00 0.  1.
</event>
<event>
12    1  0.8052519E-002  0.2391470E+03  0.7818608E-02  0.1120554E+00
         21   -1    0    0  503  502  0.00000000000E+00  0.00000000000E+00  0.13022569008E+03  0.13022569008E+03  0.00000000000E+00 0. -1.
         21   -1    0    0  501  503 -0.00000000000E+00 -0.00000000000E+00 -0.56755019432E+03  0.56755019432E+03  0.00000000000E+00 0. -1.
          6    2    1    2  501    0  0.16292061079E+03 -0.32614938007E+02 -0.38554005190E+03  0.45308643833E+03  0.17040929957E+03 0.  0.
         24    2    3    3    0    0  0.14574433772E+03 -0.40273356485E+02 -0.18721885923E+03  0.25382013111E+03  0.80687065176E+02 0.  0.
         -6    2    1    2    0  502 -0.16292061079E+03  0.32614938007E+02 -0.51784452345E+02  0.24468944607E+03  0.17200126718E+03 0.  0.
        -24    2    5    5    0    0 -0.57374803606E+02 -0.34523669798E+02  0.11585750368E+02  0.10438483936E+03  0.79235176604E+02 0.  0.
          5    1    3    3  501    0  0.17176273070E+02  0.76584184776E+01 -0.19832119267E+03  0.19926630722E+03  0.47000000000E+01 0. -1.
        -11    1    4    4    0    0  0.11837475203E+03  0.38675568702E+01 -0.14241001332E+03  0.18522459828E+03  0.00000000000E+00 0.  1.
         12    1    4    4    0    0  0.27369585689E+02 -0.44140913355E+02 -0.44808845905E+02  0.68595532828E+02  0.00000000000E+00 0. -1.
         -5    1    5    5    0  502 -0.10554580718E+03  0.67138607805E+02 -0.63370202714E+02  0.14030460671E+03  0.47000000000E+01 0.  1.
         11    1    6    6    0    0 -0.61465594582E+02 -0.54684268619E+02  0.36988400347E+01  0.82353323972E+02  0.00000000000E+00 0. -1.
        -12    1    6    6    0    0  0.40907909754E+01  0.20160598822E+02  0.78869103337E+01  0.22031515387E+02  0.00000000000E+00 0.  1.
</event>
<event>
12    1  0.8052519E-002  0.2040101E+03  0.7818608E-02  0.1146910E+00
         21   -1    0    0  501  502  0.00000000000E+00  0.00000000000E+00  0.96675677311E+02  0.96675677311E+02  0.00000000000E+00 0. -1.
         21   -1    0    0  502  503 -0.00000000000E+00 -0.00000000000E+00 -0.43191727480E+03  0.43191727480E+03  0.00000000000E+00 0. -1.
         -6    2    1    2    0  503 -0.24731634515E+02 -0.10382683116E+03 -0.19927357728E+03  0.28342477924E+03  0.17096193223E+03 0.  0.
        -24    2    3    3    0    0  0.32350235784E+02 -0.97793616801E+02 -0.18040717828E+03  0.22282139152E+03  0.80576009451E+02 0.  0.
          6    2    1    2  501    0  0.24731634515E+02  0.10382683116E+03 -0.13596802022E+03  0.24516817288E+03  0.17386335398E+03 0.  0.
         24    2    5    5    0    0  0.33934888772E+02  0.79750072275E+02 -0.11953608006E+02  0.11841623150E+03  0.79798899957E+02 0.  0.
          5    1    5    5  501    0 -0.92032542569E+01  0.24076758881E+02 -0.12401441221E+03  0.12675194138E+03  0.47000000000E+01 0. -1.
        -13    1    6    6    0    0  0.58221677525E+02  0.38756982213E+02 -0.10673116040E+02  0.70751556945E+02  0.00000000000E+00 0.  1.
         14    1    6    6    0    0 -0.24286788753E+02  0.40993090062E+02 -0.12804919658E+01  0.47664674555E+02  0.00000000000E+00 0. -1.
         -5    1    3    3    0  503 -0.57081870299E+02 -0.60332143553E+01 -0.18866398994E+02  0.60603387721E+02  0.47000000000E+01 0.  1.
         13    1    4    4    0    0  0.39606230258E+01 -0.98201976255E+02 -0.11349592369E+03  0.15013540345E+03  0.00000000000E+00 0. -1.
        -14    1    4    4    0    0  0.28389612758E+02  0.40835945408E+00 -0.66911254588E+02  0.72685988062E+02  0.00000000000E+00 0.  1.
</event>
<event>
12    1  0.8052519E-002  0.2546951E+03  0.7818608E-02  0.1111047E+00
         21   -1    0    0  503  502  0.00000000000E+00  0.00000000000E+00  0.38410090443E+03  0.38410090443E+03  0.00000000000E+00 0.  1.
         21   -1    0    0  501  503 -0.00000000000E+00 -0.00000000000E+00 -0.56807522400E+03  0.56807522400E+03  0.00000000000E+00 0.  1.
          6    2    1    2  501    0  0.10197705457E+03 -0.15232439853E+03 -0.49273129907E+03  0.55466542007E+03  0.17682633598E+03 0.  0.
         24    2    3    3    0    0  0.19755102017E+02 -0.58880715074E+02 -0.35426483787E+03  0.36842036018E+03  0.79829717381E+02 0.  0.
         -6    2    1    2    0  502 -0.10197705457E+03  0.15232439853E+03  0.30875697950E+03  0.39751070836E+03  0.17053401076E+03 0.  0.
        -24    2    5    5    0    0 -0.86983029736E+02  0.18157259625E+03  0.25576558972E+03  0.33497707548E+03  0.79113519964E+02 0.  0.
          5    1    3    3  501    0  0.82221952552E+02 -0.93443683455E+02 -0.13846646120E+03  0.18624505990E+03  0.47000000000E+01 0. -1.
        -11    1    4    4    0    0  0.44962196357E+02 -0.36409497168E+02 -0.13957298788E+03  0.15108894576E+03  0.00000000000E+00 0.  1.
         12    1    4    4    0    0 -0.25207094340E+02 -0.22471217906E+02 -0.21469184999E+03  0.21733141441E+03  0.00000000000E+00 0. -1.
         -5    1    5    5    0  502 -0.14994024833E+02 -0.29248197720E+02  0.52991389780E+02  0.62533632882E+02  0.47000000000E+01 0.  1.
         13    1    6    6    0    0 -0.47428523176E+02  0.72594048959E+02  0.53642741735E+02  0.10196521218E+03  0.00000000000E+00 0. -1.
        -14    1    6    6    0    0 -0.39554506560E+02  0.10897854729E+03  0.20212284798E+03  0.23301186329E+03  0.00000000000E+00 0.  1.
</event>
<event>
12    1  0.8052519E-002  0.2540038E+03  0.7818608E-02  0.1111023E+00
         21   -1    0    0  501  502  0.00000000000E+00  0.00000000000E+00  0.12875327274E+03  0.12875327274E+03  0.00000000000E+00 0. -1.
         21   -1    0    0  502  503 -0.00000000000E+00 -0.00000000000E+00 -0.52075299080E+03  0.52075299080E+03  0.00000000000E+00 0.  1.
         -6    2    1    2    0  503  0.60811197189E+02 -0.17602583267E+03 -0.26294835657E+03  0.36459890566E+03  0.17060899248E+03 0.  0.
        -24    2    3    3    0    0 -0.24320445129E+02 -0.40697086274E+02 -0.75046312147E+02  0.11783883105E+03  0.77500350017E+02 0.  0.
          6    2    1    2  501    0 -0.60811197189E+02  0.17602583267E+03 -0.12905136148E+03  0.28490735788E+03  0.17272768510E+03 0.  0.
         24    2    5    5    0    0 -0.93139522622E+02  0.15835445319E+03 -0.64737732176E+02  0.21063938906E+03  0.80167791138E+02 0.  0.
          5    1    5    5  501    0  0.32328325433E+02  0.17671379479E+02 -0.64313629305E+02  0.74267968818E+02  0.47000000000E+01 0. -1.
        -13    1    6    6    0    0  0.97711104710E+01  0.46640839646E+02 -0.24132886016E+02  0.53415715948E+02  0.00000000000E+00 0.  1.
         14    1    6    6    0    0 -0.10291063309E+03  0.11171361354E+03 -0.40604846160E+02  0.15722367311E+03  0.00000000000E+00 0. -1.
         -5    1    3    3    0  503  0.85131642317E+02 -0.13532874640E+03 -0.18790204443E+03  0.24676007462E+03  0.47000000000E+01 0.  1.
         13    1    4    4    0    0  0.24074064673E+02 -0.78634277235E+01 -0.37118802444E+01  0.25596330604E+02  0.00000000000E+00 0. -1.
        -14    1    4    4    0    0 -0.48394509801E+02 -0.32833658550E+02 -0.71334431903E+02  0.92242500441E+02  0.00000000000E+00 0.  1.
</event>
<event>
12    1  0.8052519E-002  0.2075605E+03  0.7818608E-02  0.1143931E+00
         21   -1    0    0  503  502  0.00000000000E+00  0.00000000000E+00  0.98203609486E+03  0.98203609486E+03  0.00000000000E+00 0.  1.
         21   -1    0    0  501  503 -0.00000000000E+00 -0.00000000000E+00 -0.19502909862E+03  0.19502909862E+03  0.00000000000E+00 0. -1.
          6    2    1    2  501    0 -0.45879713668E+02 -0.10293014392E+03 -0.12581302433E+03  0.24094460936E+03  0.17183080351E+03 0.  0.
         24    2    3    3    0    0  0.36904097565E+02 -0.58097354088E+02 -0.83384532661E+02  0.13757437500E+03  0.85067698926E+02 0.  0.
         -6    2    1    2    0  502  0.45879713668E+02  0.10293014392E+03  0.91282002058E+03  0.93612058412E+03  0.17430374463E+03 0.  0.
        -24    2    5    5    0    0  0.35578018633E+02  0.13885107065E+03  0.60931789012E+03  0.63029044975E+03  0.73839993183E+02 0.  0.
          5    1    3    3  501    0 -0.82783811233E+02 -0.44832789829E+02 -0.42428491672E+02  0.10337023436E+03  0.47000000000E+01 0. -1.
        -13    1    4    4    0    0  0.11423402885E+02  0.18775461220E+02 -0.92589462017E+00  0.21997030671E+02  0.00000000000E+00 0.  1.
         14    1    4    4    0    0  0.25480694680E+02 -0.76872815307E+02 -0.82458638041E+02  0.11557734433E+03  0.00000000000E+00 0. -1.
         -5    1    5    5    0  502  0.10301695035E+02 -0.35920926731E+02  0.30350213046E+03  0.30583013437E+03  0.47000000000E+01 0.  1.
         13    1    6    6    0    0  0.57414268400E+02  0.98392869948E+02  0.46879694058E+03  0.48243976470E+03  0.00000000000E+00 0. -1.
        -14    1    6    6    0    0 -0.21836249767E+02  0.40458200700E+02  0.14052094954E+03  0.14785068504E+03  0.00000000000E+00 0.  1.
</event>
<event>
12    1  0.8052519E-002  0.2961146E+03  0.7818608E-02  0.1088117E+00
         21   -1    0    0  501  502  0.00000000000E+00  0.00000000000E+00  0.15594622547E+04  0.15594622547E+04  0.00000000000E+00 0. -1.
         21   -1    0    0  502  503 -0.00000000000E+00 -0.00000000000E+00 -0.61076623538E+02  0.61076623538E+02  0.00000000000E+00 0. -1.
         -6    2    1    2    0  503  0.22646593752E+03 -0.52140209002E+02  0.49935518938E+03  0.58055097861E+03  0.18351678766E+03 0.  0.
        -24    2    3    3    0    0  0.16645691505E+03 -0.88828547060E+02  0.45092787865E+03  0.49502664668E+03  0.78211340857E+02 0.  0.
          6    2    1    2  501    0 -0.22646593752E+03  0.52140209002E+02  0.99903044174E+03  0.10399878996E+04  0.17177772121E+03 0.  0.
         24    2    5    5    0    0 -0.15278143006E+03  0.97391447446E+02  0.60100155554E+03  0.63264754377E+03  0.78821224786E+02 0.  0.
          5    1    5    5  501    0 -0.73684507462E+02 -0.45251238444E+02  0.39802888620E+03  0.40734035581E+03  0.47000000000E+01 0. -1.
        -11    1    6    6    0    0 -0.15664410990E+02  0.14168881717E+02  0.17279611923E+02  0.27289484586E+02  0.00000000000E+00 0.  1.
         12    1    6    6    0    0 -0.13711701907E+03  0.83222565729E+02  0.58372194362E+03  0.60535805919E+03  0.00000000000E+00 0. -1.
         -5    1    3    3    0  503  0.60009022472E+02  0.36688338058E+02  0.48427310727E+02  0.85524331928E+02  0.47000000000E+01 0.  1.
         13    1    4    4    0    0  0.12357238613E+03 -0.36901005971E+02  0.35596997671E+03  0.37861120318E+03  0.00000000000E+00 0. -1.
        -14    1    4    4    0    0  0.42884528917E+02 -0.51927541089E+02  0.94957901944E+02  0.11641544350E+03  0.00000000000E+00 0.  1.
</event>
<event>
12    1  0.8052519E-002  0.1801956E+03  0.7818608E-02  0.1169162E+00
         21   -1    0    0  503  502  0.00000000000E+00  0.00000000000E+00  0.30797059381E+02  0.30797059381E+02  0.00000000000E+00 0. -1.
         21   -1    0    0  501  503 -0.00000000000E+00 -0.00000000000E+00 -0.12613066834E+04  0.12613066834E+04  0.00000000000E+00 0. -1.
          6    2    1    2  501    0  0.54185756798E+01 -0.38396479604E+02 -0.90785138190E+03  0.92556176302E+03  0.17597384730E+03 0.  0.
         24    2    3    3    0    0  0.49596714481E+02 -0.27798834655E+02 -0.82890342822E+03  0.83435382797E+03  0.76372819967E+02 0.  0.
         -6    2    1    2    0  502 -0.54185756798E+01  0.38396479604E+02 -0.32265824207E+03  0.36654197971E+03  0.16953179970E+03 0.  0.
        -24    2    5    5    0    0  0.20022925300E+02  0.70460417297E+02 -0.30113339048E+03  0.32005783932E+03  0.79938186760E+02 0.  0.
          5    1    3    3  501    0 -0.44178138801E+02 -0.10597644949E+02 -0.78947953683E+02  0.91207935056E+02  0.47000000000E+01 0. -1.
        -13    1    4    4    0    0  0.24646038376E+02 -0.51813720002E+02 -0.40590201768E+03  0.40993723513E+03  0.00000000000E+00 0.  1.
         14    1    4    4    0    0  0.24950676104E+02  0.24014885347E+02 -0.42300141054E+03  0.42441659284E+03  0.00000000000E+00 0. -1.
         -5    1    5    5    0  502 -0.25441500980E+02 -0.32063937693E+02 -0.21524851588E+02  0.46484140396E+02  0.47000000000E+01 0.  1.
         11    1    6    6    0    0  0.40815169832E+02  0.69350457732E+01 -0.12430615678E+03  0.13101905801E+03  0.00000000000E+00 0. -1.
        -12    1    6    6    0    0 -0.20792244532E+02  0.63525371524E+02 -0.17682723370E+03  0.18903878131E+03  0.00000000000E+00 0.  1.
</event>
<event>
12    1  0.8052519E-002  0.1980209E+03  0.7818608E-02  0.1151866E+00
         21   -1    0    0  503  502  0.00000000000E+00  0.00000000000E+00  0.45257450372E+02  0.45257450372E+02  0.00000000000E+00 0.  1.
         21   -1    0    0  501  503 -0.00000000000E+00 -0.00000000000E+00 -0.98119112645E+03  0.98119112645E+03  0.00000000000E+00 0. -1.
          6    2    1    2  501    0  0.98247172523E+02 -0.31295354642E+01 -0.64813374573E+03  0.67710477500E+03  0.16950287041E+03 0.  0.
         24    2    3    3    0    0  0.41336335393E+02  0.21149540459E+02 -0.15466503247E+03  0.17974999432E+03  0.78948036711E+02 0.  0.
         -6    2    1    2    0  502 -0.98247172523E+02  0.31295354642E+01 -0.28779993035E+03  0.34934380183E+03  0.17190110838E+03 0.  0.
        -24    2    5    5    0    0 -0.46136335286E+02  0.60116753924E+02 -0.12727131929E+03  0.17114557682E+03  0.85733506958E+02 0.  0.
          5    1    3    3  501    0  0.56910837130E+02 -0.24279075923E+02 -0.49346871325E+03  0.49735478068E+03  0.47000000000E+01 0. -1.
        -11    1    4    4    0    0  0.30791813473E+01 -0.23111829531E+02 -0.13500436986E+02  0.26942528108E+02  0.00000000000E+00 0.  1.
         12    1    4    4    0    0  0.38257154046E+02  0.44261369990E+02 -0.14116459549E+03  0.15280746621E+03  0.00000000000E+00 0. -1.
         -5    1    5    5    0  502 -0.52110837236E+02 -0.56987218459E+02 -0.16052861106E+03  0.17819822501E+03  0.47000000000E+01 0.  1.
         13    1    6    6    0    0 -0.12945137078E+02  0.62615606801E+02 -0.12159298896E+03  0.13737956818E+03  0.00000000000E+00 0. -1.
        -14    1    6    6    0    0 -0.33191198209E+02 -0.24988528776E+01 -0.56783303310E+01  0.33766008641E+02  0.00000000000E+00 0.  1.
</event>
<event>
12    1  0.8052519E-002  0.2255419E+03  0.7818608E-02  0.1130010E+00
         21   -1    0    0  501  502  0.00000000000E+00  0.00000000000E+00  0.21586045722E+03  0.21586045722E+03  0.00000000000E+00 0. -1.
         21   -1    0    0  502  503 -0.00000000000E+00 -0.00000000000E+00 -0.40569378308E+03  0.40569378308E+03  0.00000000000E+00 0.  1.
         -6    2    1    2    0  503  0.11738381050E+03 -0.85101257624E+02 -0.29689931845E+03  0.37285167989E+03  0.17276569939E+03 0.  0.
        -24    2    3    3    0    0  0.46906693253E+02 -0.11193067710E+03 -0.22987629439E+03  0.27185159297E+03  0.79570494082E+02 0.  0.
          6    2    1    2  501    0 -0.11738381050E+03  0.85101257624E+02  0.10706599259E+03  0.24870256041E+03  0.17137285015E+03 0.  0.
         24    2    5    5    0    0 -0.13006269096E+03  0.11468665256E+03  0.99199103978E+02  0.21523574791E+03  0.80103889375E+02 0.  0.
          5    1    5    5  501    0  0.12678880453E+02 -0.29585394932E+02  0.78668886082E+01  0.33466812504E+02  0.47000000000E+01 0. -1.
        -13    1    6    6    0    0  0.26339609582E+01 -0.19653615526E+01  0.22307708881E+02  0.22548487130E+02  0.00000000000E+00 0.  1.
         14    1    6    6    0    0 -0.13269665191E+03  0.11665201411E+03  0.76891395097E+02  0.19268726077E+03  0.00000000000E+00 0. -1.
         -5    1    3    3    0  503  0.70477117251E+02  0.26829419473E+02 -0.67023024057E+02  0.10100008693E+03  0.47000000000E+01 0.  1.
         11    1    4    4    0    0  0.20534610233E+02 -0.32494152666E+02 -0.15022292488E+02  0.41269958160E+02  0.00000000000E+00 0. -1.
        -12    1    4    4    0    0  0.26372083020E+02 -0.79436524431E+02 -0.21485400191E+03  0.23058163481E+03  0.00000000000E+00 0.  1.
</event>
<event>
12    1  0.8052519E-002  0.1961119E+03  0.7818608E-02  0.1153909E+00
         21   -1    0    0  501  502  0.00000000000E+00  0.00000000000E+00  0.48856752048E+03  0.48856752048E+03  0.00000000000E+00 0.  1.
         21   -1    0    0  502  503 -0.00000000000E+00 -0.00000000000E+00 -0.83256464020E+02  0.83256464020E+02  0.00000000000E+00 0. -1.
         -6    2    1    2    0  503 -0.37213130825E+02  0.79187069606E+02  0.27806639717E+03  0.33804827088E+03  0.17117331308E+03 0.  0.
        -24    2    3    3    0    0 -0.25866926067E+02  0.63329267782E+02  0.63612323584E+02  0.12265828523E+03  0.79491088820E+02 0.  0.
          6    2    1    2  501    0  0.37213130825E+02 -0.79187069606E+02  0.12724465929E+03  0.23377571362E+03  0.17551202768E+03 0.  0.
         24    2    5    5    0    0  0.18601520829E+02  0.30060468236E+02  0.63635277098E+02  0.10590992439E+03  0.76927337572E+02 0.  0.
          5    1    5    5  501    0  0.18611609996E+02 -0.10924753784E+03  0.63609382192E+02  0.12786578923E+03  0.47000000000E+01 0. -1.
        -11    1    6    6    0    0  0.47437047522E+02  0.14997068704E+02  0.50305986239E+02  0.70752228225E+02  0.00000000000E+00 0.  1.
         12    1    6    6    0    0 -0.28835526692E+02  0.15063399532E+02  0.13329290859E+02  0.35157696169E+02  0.00000000000E+00 0. -1.
         -5    1    3    3    0  503 -0.11346204758E+02  0.15857801824E+02  0.21445407358E+03  0.21538998565E+03  0.47000000000E+01 0.  1.
         13    1    4    4    0    0  0.15276138861E+02 -0.10705824084E+02  0.39832320745E+01  0.19074622554E+02  0.00000000000E+00 0. -1.
        -14    1    4    4    0    0 -0.41143064928E+02  0.74035091866E+02  0.59629091509E+02  0.10358366268E+03  0.00000000000E+00 0.  1.
</event>
<event>
12    1  0.8052519E-002  0.2035912E+03  0.7818608E-02  0.1146916E+00
         21   -1    0    0  503  502  0.00000000000E+00  0.00000000000E+00  0.55978136287E+03  0.55978136287E+03  0.00000000000E+00 0. -1.
         21   -1    0    0  501  503 -0.00000000000E+00 -0.00000000000E+00 -0.86133138253E+03  0.86133138253E+03  0.00000000000E+00 0.  1.
          6    2    1    2  501    0  0.63008623484E+02 -0.89393103120E+02 -0.83025962168E+03  0.85485696300E+03  0.17172121093E+03 0.  0.
         24    2    3    3    0    0  0.22541231603E+02 -0.85297612536E+02 -0.78602078225E+03  0.79457804660E+03  0.75774746299E+02 0.  0.
         -6    2    1    2    0  502 -0.63008623484E+02  0.89393103120E+02  0.52870960202E+03  0.56625578240E+03  0.17073533411E+03 0.  0.
        -24    2    5    5    0    0 -0.10106353553E+03  0.80534899766E+02  0.32123152334E+03  0.35507839907E+03  0.78684621143E+02 0.  0.
          5    1    3    3  501    0  0.40467391881E+02 -0.40954905845E+01 -0.44238839424E+02  0.60278916400E+02  0.47000000000E+01 0. -1.
        -13    1    4    4    0    0  0.41065206094E+02 -0.21450258611E+02 -0.42208782320E+03  0.42462288591E+03  0.00000000000E+00 0.  1.
         14    1    4    4    0    0 -0.18523974491E+02 -0.63847353925E+02 -0.36393295905E+03  0.36995516069E+03  0.00000000000E+00 0. -1.
         -5    1    5    5    0  502  0.38054912042E+02  0.88582033544E+01  0.20747807868E+03  0.21117738333E+03  0.47000000000E+01 0.  1.
         13    1    6    6    0    0 -0.46118909445E+02  0.83014903806E+02  0.22533734986E+03  0.24453087597E+03  0.00000000000E+00 0. -1.
        -14    1    6    6    0    0 -0.54944626080E+02 -0.24800040399E+01  0.95894173486E+02  0.11054752310E+03  0.00000000000E+00 0.  1.
</event>
<event>
12    1  0.8052519E-002  0.1782766E+03  0.7818608E-02  0.1169867E+00
         21   -1    0    0  501  502  0.00000000000E+00  0.00000000000E+00  0.29029867889E+03  0.29029867889E+03  0.00000000000E+00 0. -1.
         21   -1    0    0  502  503 -0.00000000000E+00 -0.00000000000E+00 -0.12201481127E+03  0.12201481127E+03  0.00000000000E+00 0. -1.
         -6    2    1    2    0  503  0.99736005683E+01 -0.47566656658E+02  0.15260146584E+02  0.17736924282E+03  0.16989678247E+03 0.  0.
        -24    2    3    3    0    0 -0.33656051417E+02 -0.66504851628E+02  0.47965796099E+02  0.11945593458E+03  0.80083566509E+02 0.  0.
          6    2    1    2  501    0 -0.99736005683E+01  0.47566656658E+02  0.15302372103E+03  0.23494424733E+03  0.17152399431E+03 0.  0.
         24    2    5    5    0    0 -0.36674765660E+01 -0.34673335002E+02  0.11149626956E+03  0.14247910442E+03  0.81567067661E+02 0.  0.
          5    1    5    5  501    0 -0.63061240023E+01  0.82239991660E+02  0.41527451471E+02  0.92465142912E+02  0.47000000000E+01 0. -1.
        -11    1    6    6    0    0  0.13134120057E+02 -0.35233966063E+02  0.90677943307E+01  0.38680258119E+02  0.00000000000E+00 0.  1.
         12    1    6    6    0    0 -0.16801596623E+02  0.56063106046E+00  0.10242847523E+03  0.10379884630E+03  0.00000000000E+00 0. -1.
         -5    1    3    3    0  503  0.43629651985E+02  0.18938194971E+02 -0.32705649515E+02  0.57913308240E+02  0.47000000000E+01 0.  1.
         13    1    4    4    0    0 -0.11211390324E+02 -0.27379656506E+02 -0.21540282882E+02  0.36596784695E+02  0.00000000000E+00 0. -1.
        -14    1    4    4    0    0 -0.22444661093E+02 -0.39125195122E+02  0.69506078982E+02  0.82859149889E+02  0.00000000000E+00 0.  1.
</event>
<event>
12    1  0.8052519E-002  0.1779849E+03  0.7818608E-02  0.1171773E+00
         21   -1    0    0  503  502  0.00000000000E+00  0.00000000000E+00  0.64386120248E+03  0.64386120248E+03  0.00000000000E+00 0. -1.
         21   -1    0    0  501  503 -0.00000000000E+00 -0.00000000000E+00 -0.51417245112E+02  0.51417245112E+02  0.00000000000E+00 0.  1.
          6    2    1    2  501    0  0.52571763625E+01  0.17790652512E+02  0.20082013981E+03  0.26834186815E+03  0.17701549206E+03 0.  0.
         24    2    3    3    0    0  0.62162454485E+02  0.42253419570E+02  0.16239870626E+03  0.19530123421E+03  0.78228575825E+02 0.  0.
         -6    2    1    2    0  502 -0.52571763625E+01 -0.17790652512E+02  0.39162381756E+03  0.42693657944E+03  0.16900142948E+03 0.  0.
        -24    2    5    5    0    0 -0.84627697608E+01  0.90742630478E+01  0.82894088265E+02  0.11698797843E+03  0.81613702937E+02 0.  0.
          5    1    3    3  501    0 -0.56905278123E+02 -0.24462767057E+02  0.38421433551E+02  0.73040633941E+02  0.47000000000E+01 0. -1.
        -11    1    4    4    0    0  0.21009165717E+02 -0.27897068924E+01 -0.65786987190E+00  0.21203780357E+02  0.00000000000E+00 0.  1.
         12    1    4    4    0    0  0.41153288769E+02  0.45043126462E+02  0.16305657613E+03  0.17409745385E+03  0.00000000000E+00 0. -1.
         -5    1    5    5    0  502  0.32055933983E+01 -0.26864915560E+02  0.30872972929E+03  0.30994860101E+03  0.47000000000E+01 0.  1.
         13    1    6    6    0    0  0.22717107005E+02  0.23213732277E+02  0.75176348974E+02  0.81892782111E+02  0.00000000000E+00 0. -1.
        -14    1    6    6    0    0 -0.31179876766E+02 -0.14139469229E+02  0.77177392910E+01  0.35095196324E+02  0.00000000000E+00 0.  1.
</event>
<event>
12    1  0.8052519E-002  0.1788385E+03  0.7818608E-02  0.1168985E+00
         21   -1    0    0  501  502  0.00000000000E+00  0.00000000000E+00  0.56384632102E+03  0.56384632102E+03  0.00000000000E+00 0.  1.
         21   -1    0    0  502  503 -0.00000000000E+00 -0.00000000000E+00 -0.79206889926E+02  0.79206889926E+02  0.00000000000E+00 0.  1.
         -6    2    1    2    0  503  0.16366654604E+02  0.49196076052E+02  0.70645082146E+02  0.19208256772E+03  0.17092941206E+03 0.  0.
        -24    2    3    3    0    0 -0.48874220490E+02 -0.30958980806E+01  0.32979739755E+02  0.10025887601E+03  0.81030271943E+02 0.  0.
          6    2    1    2  501    0 -0.16366654604E+02 -0.49196076052E+02  0.41399434895E+03  0.45097064323E+03  0.17115805213E+03 0.  0.
         24    2    5    5    0    0 -0.61916559353E+02 -0.32465888559E+02  0.15337498679E+03  0.18583061432E+03  0.78239608922E+02 0.  0.
          5    1    5    5  501    0  0.45549904749E+02 -0.16730187493E+02  0.26061936216E+03  0.26514002890E+03  0.47000000000E+01 0. -1.
        -11    1    6    6    0    0 -0.59055294962E+02 -0.23338711359E+02  0.16133812267E+03  0.17338458160E+03  0.00000000000E+00 0.  1.
         12    1    6    6    0    0 -0.28612643908E+01 -0.91271771999E+01 -0.79631358758E+01  0.12446032722E+02  0.00000000000E+00 0. -1.
         -5    1    3    3    0  503  0.65240875093E+02  0.52291974133E+02  0.37665342390E+02  0.91823691709E+02  0.47000000000E+01 0.  1.
         13    1    4    4    0    0 -0.48526490867E+02 -0.45328811837E+01 -0.15969472447E+02  0.51287341303E+02  0.00000000000E+00 0. -1.
        -14    1    4    4    0    0 -0.34772962258E+00  0.14369831031E+01  0.48949212203E+02  0.48971534707E+02  0.00000000000E+00 0.  1.
</event>
<event>
12    1  0.8052519E-002  0.1947041E+03  0.7818608E-02  0.1154430E+00
         21   -1    0    0  501  502  0.00000000000E+00  0.00000000000E+00  0.11032589844E+03  0.11032589844E+03  0.00000000000E+00 0. -1.
         21   -1    0    0  502  503 -0.00000000000E+00 -0.00000000000E+00 -0.34591644398E+03  0.34591644398E+03  0.00000000000E+00 0. -1.
         -6    2    1    2    0  503 -0.45094625032E+02  0.79041562951E+02 -0.94771544908E+02  0.21595150830E+03  0.17138352993E+03 0.  0.
        -24    2    3    3    0    0 -0.47218779419E+02  0.27935140413E+02 -0.12034987301E+03  0.15856928697E+03  0.87465088102E+02 0.  0.
          6    2    1    2  501    0  0.45094625032E+02 -0.79041562951E+02 -0.14081900063E+03  0.24029083412E+03  0.17212960275E+03 0.  0.
         24    2    5    5    0    0 -0.41497516113E+02 -0.22539984007E+02 -0.62061958986E+02  0.11023165936E+03  0.77905309510E+02 0.  0.
          5    1    5    5  501    0  0.86592141144E+02 -0.56501578943E+02 -0.78757041645E+02  0.13005917476E+03  0.47000000000E+01 0. -1.
        -11    1    6    6    0    0 -0.57955286744E+02 -0.24352098161E+02 -0.68033550395E+02  0.92630469748E+02  0.00000000000E+00 0.  1.
         12    1    6    6    0    0  0.16457770631E+02  0.18121141538E+01  0.59715914087E+01  0.17601189614E+02  0.00000000000E+00 0. -1.
         -5    1    3    3    0  503  0.21241543877E+01  0.51106422538E+02  0.25578328100E+02  0.57382221331E+02  0.47000000000E+01 0.  1.
         13    1    4    4    0    0 -0.18686457410E+02  0.35759622046E+02 -0.64133736115E+01  0.40854199545E+02  0.00000000000E+00 0. -1.
        -14    1    4    4    0    0 -0.28532322010E+02 -0.78244816332E+01 -0.11393649940E+03  0.11771508742E+03  0.00000000000E+00 0.  1.
</event>
<event>
12    1  0.8052519E-002  0.2199405E+03  0.7818608E-02  0.1136019E+00
         21   -1    0    0  501  502  0.00000000000E+00  0.00000000000E+00  0.45982327524E+03  0.45982327524E+03  0.00000000000E+00 0.  1.
         21   -1    0    0  502  503 -0.00000000000E+00 -0.00000000000E+00 -0.28430116349E+03  0.28430116349E+03  0.00000000000E+00 0. -1.
         -6    2    1    2    0  503 -0.12419519463E+03  0.60711828268E+02 -0.21094727371E+03  0.30475004238E+03  0.17106567039E+03 0.  0.
        -24    2    3    3    0    0 -0.83960010469E+02 -0.27646360947E+02 -0.90019641681E+02  0.14959972226E+03  0.80392390067E+02 0.  0.
          6    2    1    2  501    0  0.12419519463E+03 -0.60711828268E+02  0.38646938545E+03  0.43937439635E+03  0.15678297680E+03 0.  0.
         24    2    5    5    0    0  0.15462009098E+02  0.17315129151E+01  0.12105320081E+03  0.14579320219E+03  0.79747780636E+02 0.  0.
          5    1    5    5  501    0  0.10873318553E+03 -0.62443341183E+02  0.26541618464E+03  0.29358119416E+03  0.47000000000E+01 0. -1.
        -11    1    6    6    0    0  0.31748786375E+02 -0.21282342866E+02  0.10830401653E+03  0.11485070113E+03  0.00000000000E+00 0.  1.
         12    1    6    6    0    0 -0.16286777277E+02  0.23013855781E+02  0.12749184281E+02  0.30942501060E+02  0.00000000000E+00 0. -1.
         -5    1    3    3    0  503 -0.40235184157E+02  0.88358189215E+02 -0.12092763203E+03  0.15515032012E+03  0.47000000000E+01 0.  1.
         11    1    4    4    0    0 -0.42775246516E+02  0.15570915018E+02 -0.75499144767E+02  0.88160625959E+02  0.00000000000E+00 0. -1.
        -12    1    4    4    0    0 -0.41184763953E+02 -0.43217275965E+02 -0.14520496914E+02  0.61439096302E+02  0.00000000000E+00 0.  1.
</event>
<event>
12    1  0.8052519E-002  0.2030267E+03  0.7818608E-02  0.1147230E+00
         21   -1    0    0  501  502  0.00000000000E+00  0.00000000000E+00  0.39785532355E+03  0.39785532355E+03  0.00000000000E+00 0.  1.
         21   -1    0    0  502  503 -0.00000000000E+00 -0.00000000000E+00 -0.19211631956E+03  0.19211631956E+03  0.00000000000E+00 0.  1.
         -6    2    1    2    0  503 -0.10720910483E+03 -0.85767387613E+01 -0.97422594972E+02  0.22510620723E+03  0.17208802955E+03 0.  0.
        -24    2    3    3    0    0 -0.80794031636E+02 -0.86088839293E+00  0.98352922054E+01  0.11427464674E+03  0.80209383725E+02 0.  0.
          6    2    1    2  501    0  0.10720910483E+03  0.85767387613E+01  0.30316159897E+03  0.36486543588E+03  0.17219895064E+03 0.  0.
         24    2    5    5    0    0  0.93354354778E+02  0.68882697109E+02  0.19641074210E+03  0.24138831997E+03  0.78938456328E+02 0.  0.
          5    1    5    5  501    0  0.13854750056E+02 -0.60305958348E+02  0.10675085687E+03  0.12347711591E+03  0.47000000000E+01 0. -1.
        -13    1    6    6    0    0  0.58370381528E+02 -0.29213942856E+01  0.10353209335E+03  0.11888873091E+03  0.00000000000E+00 0.  1.
         14    1    6    6    0    0  0.34983973250E+02  0.71804091395E+02  0.92878648752E+02  0.12249958906E+03  0.00000000000E+00 0. -1.
         -5    1    3    3    0  503 -0.26415073199E+02 -0.77158503684E+01 -0.10725788718E+03  0.11083156049E+03  0.47000000000E+01 0.  1.
         13    1    4    4    0    0 -0.88739630129E+02  0.19405989211E+02  0.11690485129E+01  0.90844268103E+02  0.00000000000E+00 0. -1.
        -14    1    4    4    0    0  0.79455984935E+01 -0.20266877604E+02  0.86662436925E+01  0.23430378635E+02  0.00000000000E+00 0.  1.
</event>
<event>
12    1  0.8052519E-002  0.2049360E+03  0.7818608E-02  0.1145918E+00
         21   -1    0    0  501  502  0.00000000000E+00  0.00000000000E+00  0.16251574834E+04  0.16251574834E+04  0.00000000000E+00 0. -1.
         21   -1    0    0  502  503 -0.00000000000E+00 -0.00000000000E+00 -0.25827070168E+02  0.25827070168E+02  0.00000000000E+00 0. -1.
         -6    2    1    2    0  503  0.46343306473E+00  0.10951773828E+03  0.73316301175E+03  0.76090324660E+03  0.17161409940E+03 0.  0.
        -24    2    3    3    0    0 -0.36947427141E+02  0.12897838693E+03  0.49663941187E+03  0.52060386539E+03  0.79857013298E+02 0.  0.
          6    2    1    2  501    0 -0.46343306473E+00 -0.10951773828E+03  0.86616740151E+03  0.89008130700E+03  0.17321782779E+03 0.  0.
         24    2    5    5    0    0  0.30327624311E+02 -0.58887199354E+01  0.53179082868E+03  0.53863167318E+03  0.79800702127E+02 0.  0.
          5    1    5    5  501    0 -0.30791057376E+02 -0.10362901835E+03  0.33437657283E+03  0.35144963383E+03  0.47000000000E+01 0. -1.
        -13    1    6    6    0    0  0.94272839848E+01 -0.21554422077E+02  0.41961930112E+02  0.48106864096E+02  0.00000000000E+00 0.  1.
         14    1    6    6    0    0  0.20900340326E+02  0.15665702142E+02  0.48982889857E+03  0.49052480908E+03  0.00000000000E+00 0. -1.
         -5    1    3    3    0  503  0.37410860206E+02 -0.19460648640E+02  0.23652359988E+03  0.24029938120E+03  0.47000000000E+01 0.  1.
         13    1    4    4    0    0 -0.36599582973E+02  0.50729543082E+02  0.33771992390E+03  0.34346435480E+03  0.00000000000E+00 0. -1.
        -14    1    4    4    0    0 -0.34784416808E+00  0.78248843843E+02  0.15891948797E+03  0.17713951060E+03  0.00000000000E+00 0.  1.
</event>
<event>
12    1  0.8052519E-002  0.1863386E+03  0.7818608E-02  0.1162176E+00
         21   -1    0    0  501  502  0.00000000000E+00  0.00000000000E+00  0.17451555522E+03  0.17451555522E+03  0.00000000000E+00 0.  1.
         21   -1    0    0  502  503 -0.00000000000E+00 -0.00000000000E+00 -0.31029523862E+03  0.31029523862E+03  0.00000000000E+00 0. -1.
         -6    2    1    2    0  503  0.68543537818E+02 -0.24050259646E+02 -0.21437820421E+03  0.28404238661E+03  0.17159671147E+03 0.  0.
        -24    2    3    3    0    0 -0.40688483918E+01 -0.47721361125E+02 -0.57552834001E+02  0.10954549146E+03  0.79962504734E+02 0.  0.
          6    2    1    2  501    0 -0.68543537818E+02  0.24050259646E+02  0.78598520811E+02  0.20076840723E+03  0.16986345782E+03 0.  0.
         24    2    5    5    0    0 -0.86131092985E+02 -0.27540563659E+02  0.23133573229E+02  0.12286214589E+03  0.79893033840E+02 0.  0.
          5    1    5    5  501    0  0.17587555167E+02  0.51590823305E+02  0.55464947582E+02  0.77906261342E+02  0.47000000000E+01 0. -1.
        -11    1    6    6    0    0 -0.76236554474E+02 -0.36492746976E+02  0.46119009626E+02  0.96284452893E+02  0.00000000000E+00 0.  1.
         12    1    6    6    0    0 -0.98945385104E+01  0.89521833175E+01 -0.22985436398E+02  0.26577692994E+02  0.00000000000E+00 0. -1.
         -5    1    3    3    0  503  0.72612386210E+02  0.23671101479E+02 -0.15682537021E+03  0.17449689515E+03  0.47000000000E+01 0.  1.
         13    1    4    4    0    0 -0.12529873411E+02 -0.44343117260E+02 -0.76053188364E+02  0.88923547142E+02  0.00000000000E+00 0. -1.
        -14    1    4    4    0    0  0.84610250190E+01 -0.33782438651E+01  0.18500354363E+02  0.20621944320E+02  0.00000000000E+00 0.  1.
</event>
<event>
12    1  0.8052519E-002  0.1765568E+03  0.7818608E-02  0.1171227E+00
         21   -1    0    0  503  502  0.00000000000E+00  0.00000000000E+00  0.10585963526E+04  0.10585963526E+04  0.00000000000E+00 0. -1.
         21   -1    0    0  501  503 -0.00000000000E+00 -0.00000000000E+00 -0.12613061742E+03  0.12613061742E+03  0.00000000000E+00 0. -1.
          6    2    1    2  501    0 -0.15156965660E+02 -0.34921456015E+02 -0.52544118560E+02  0.18401886270E+03  0.17219992955E+03 0.  0.
         24    2    3    3    0    0 -0.54996968693E+02 -0.55231163132E+02  0.81623235048E+00  0.11423973191E+03  0.83515879718E+02 0.  0.
         -6    2    1    2    0  502  0.15156965660E+02  0.34921456015E+02  0.98500985378E+03  0.10007081074E+04  0.17240377720E+03 0.  0.
        -24    2    5    5    0    0  0.70402746598E+01  0.44081881318E+02  0.25237666452E+03  0.26795762181E+03  0.78195451050E+02 0.  0.
          5    1    3    3  501    0  0.39840003032E+02  0.20309707117E+02 -0.53360350911E+02  0.69779130792E+02  0.47000000000E+01 0. -1.
        -11    1    4    4    0    0 -0.17147573344E+02  0.55785650998E+01  0.31516832351E+02  0.36310747467E+02  0.00000000000E+00 0.  1.
         12    1    4    4    0    0 -0.37849395348E+02 -0.60809728231E+02 -0.30700600000E+02  0.77928984442E+02  0.00000000000E+00 0. -1.
         -5    1    5    5    0  502  0.81166910006E+01 -0.91604253036E+01  0.73263318926E+03  0.73275048555E+03  0.47000000000E+01 0.  1.
         11    1    6    6    0    0  0.96237225183E+01  0.49550846714E+02  0.25598527770E+03  0.26091447803E+03  0.00000000000E+00 0. -1.
        -12    1    6    6    0    0 -0.25834478585E+01 -0.54689653958E+01 -0.36086131773E+01  0.70431437868E+01  0.00000000000E+00 0.  1.
</event>
<event>
12    1  0.8052519E-002  0.1726630E+03  0.7818608E-02  0.1175339E+00
         21   -1    0    0  503  502  0.00000000000E+00  0.00000000000E+00  0.30519078016E+03  0.30519078016E+03  0.00000000000E+00 0. -1.
         21   -1    0    0  501  503 -0.00000000000E+00 -0.00000000000E+00 -0.19968477412E+03  0.19968477412E+03  0.00000000000E+00 0. -1.
          6    2    1    2  501    0 -0.48856675044E+01 -0.66934541805E+01 -0.12820293728E+03  0.21430302134E+03  0.17152585739E+03 0.  0.
         24    2    3    3    0    0  0.32388641588E+02  0.32066046119E+02 -0.88189842124E+01  0.83282827355E+02  0.69144771546E+02 0.  0.
         -6    2    1    2    0  502  0.48856675044E+01  0.66934541805E+01  0.23370894332E+03  0.29057253295E+03  0.17246406768E+03 0.  0.
        -24    2    5    5    0    0  0.65609886425E+02  0.11681487817E+02  0.10174503858E+03  0.14514601062E+03  0.79209830005E+02 0.  0.
          5    1    3    3  501    0 -0.37274309093E+02 -0.38759500299E+02 -0.11938395306E+03  0.13102019398E+03  0.47000000000E+01 0. -1.
        -11    1    4    4    0    0  0.14226298835E+02 -0.41632018647E+01  0.25950002057E+02  0.29885154092E+02  0.00000000000E+00 0.  1.
         12    1    4    4    0    0  0.18162342753E+02  0.36229247984E+02 -0.34768986270E+02  0.53397673264E+02  0.00000000000E+00 0. -1.
         -5    1    5    5    0  502 -0.60724218920E+02 -0.49880336365E+01  0.13196390473E+03  0.14542652233E+03  0.47000000000E+01 0.  1.
         11    1    6    6    0    0  0.26713662021E+02 -0.29542550207E+02  0.69051573676E+02  0.79715129294E+02  0.00000000000E+00 0. -1.
        -12    1    6    6    0    0  0.38896224404E+02  0.41224038024E+02  0.32693464905E+02  0.65430881328E+02  0.00000000000E+00 0.  1.
</event>
<event>
12    1  0.8052519E-002  0.1821874E+03  0.7818608E-02  0.1165870E+00
         21   -1    0    0  501  502  0.00000000000E+00  0.00000000000E+00  0.16207081270E+04  0.16207081270E+04  0.00000000000E+00 0.  1.
         21   -1    0    0  502  503 -0.00000000000E+00 -0.00000000000E+00 -0.22382952459E+02  0.22382952459E+02  0.00000000000E+00 0.  1.
         -6    2    1    2    0  503 -0.56618201600E+02 -0.18530744071E+02  0.10421928515E+04  0.10578770944E+04  0.17143219600E+03 0.  0.
        -24    2    3    3    0    0 -0.22398852153E+02  0.61258244396E+02  0.52628651806E+03  0.53469578598E+03  0.68321324387E+02 0.  0.
          6    2    1    2  501    0  0.56618201600E+02  0.18530744071E+02  0.55613232302E+03  0.58521398508E+03  0.17217211852E+03 0.  0.
         24    2    5    5    0    0  0.75820615605E+02  0.53111573986E+01  0.54933123239E+03  0.56047868623E+03  0.81207023681E+02 0.  0.
          5    1    5    5  501    0 -0.19202414005E+02  0.13219586672E+02  0.68010906318E+01  0.24735298850E+02  0.47000000000E+01 0. -1.
        -13    1    6    6    0    0  0.53181431131E+02  0.19937291749E+02  0.15249597375E+03  0.16272916834E+03  0.00000000000E+00 0.  1.
         14    1    6    6    0    0  0.22639184474E+02 -0.14626134351E+02  0.39683525864E+03  0.39774951789E+03  0.00000000000E+00 0. -1.
         -5    1    3    3    0  503 -0.34219349447E+02 -0.79788988467E+02  0.51590633343E+03  0.52318130838E+03  0.47000000000E+01 0.  1.
         13    1    4    4    0    0 -0.40968361302E+02  0.41157239673E+02  0.44833529789E+03  0.45208059496E+03  0.00000000000E+00 0. -1.
        -14    1    4    4    0    0  0.18569509148E+02  0.20101004723E+02  0.77951220173E+02  0.82615191020E+02  0.00000000000E+00 0.  1.
</event>
<event>
12    1  0.8052519E-002  0.2077350E+03  0.7818608E-02  0.1144393E+00
         21   -1    0    0  503  502  0.00000000000E+00  0.00000000000E+00  0.32775879179E+03  0.32775879179E+03  0.00000000000E+00 0. -1.
         21   -1    0    0  501  503 -0.00000000000E+00 -0.00000000000E+00 -0.13138438919E+03  0.13138438919E+03  0.00000000000E+00 0. -1.
          6    2    1    2  501    0  0.10533048468E+03 -0.42902769886E+02  0.13100880995E+03  0.24136697860E+03  0.16780807909E+03 0.  0.
         24    2    3    3    0    0  0.38698295037E+02  0.24882503662E+02  0.18580000444E+02  0.94067897772E+02  0.79917807449E+02 0.  0.
         -6    2    1    2    0  502 -0.10533048468E+03  0.42902769886E+02  0.65365592647E+02  0.21777620238E+03  0.17383513728E+03 0.  0.
        -24    2    5    5    0    0 -0.85151351886E+02  0.13655211460E+02  0.11004769499E+03  0.16049446581E+03  0.78808380622E+02 0.  0.
          5    1    3    3  501    0  0.66632189644E+02 -0.67785273548E+02  0.11242880950E+03  0.14729908083E+03  0.47000000000E+01 0. -1.
        -11    1    4    4    0    0 -0.16191620064E+02  0.30213632703E+02 -0.39286104415E+01  0.34503132342E+02  0.00000000000E+00 0.  1.
         12    1    4    4    0    0  0.54889915102E+02 -0.53311290412E+01  0.22508610885E+02  0.59564765430E+02  0.00000000000E+00 0. -1.
         -5    1    5    5    0  502 -0.20179132795E+02  0.29247558426E+02 -0.44682102342E+02  0.57281736565E+02  0.47000000000E+01 0.  1.
         11    1    6    6    0    0 -0.81393280819E+02  0.39163818453E+02  0.77846083991E+02  0.11924212188E+03  0.00000000000E+00 0. -1.
        -12    1    6    6    0    0 -0.37580710673E+01 -0.25508606994E+02  0.32201610999E+02  0.41252343931E+02  0.00000000000E+00 0.  1.
</event>
<event>
12    1  0.8052519E-002  0.1818648E+03  0.7818608E-02  0.1166116E+00
         21   -1    0    0  503  502  0.00000000000E+00  0.00000000000E+00  0.14062385987E+03  0.14062385987E+03  0.00000000000E+00 0.  1.
         21   -1    0    0  501  503 -0.00000000000E+00 -0.00000000000E+00 -0.53838111859E+03  0.53838111859E+03  0.00000000000E+00 0.  1.
          6    2    1    2  501    0  0.15355334194E+02  0.55163019893E+02 -0.45378374481E+03  0.48870581981E+03  0.17214803575E+03 0.  0.
         24    2    3    3    0    0 -0.47348685977E+01 -0.13124245358E+02 -0.36998187936E+03  0.37865306203E+03  0.79352917582E+02 0.  0.
         -6    2    1    2    0  502 -0.15355334194E+02 -0.55163019893E+02  0.56026486093E+02  0.19029915865E+03  0.17261534575E+03 0.  0.
        -24    2    5    5    0    0  0.25337598707E+01  0.32888976021E+02  0.52781308986E+02  0.10026697082E+03  0.78609758788E+02 0.  0.
          5    1    3    3  501    0  0.20090202792E+02  0.68287265251E+02 -0.83801865444E+02  0.11005275778E+03  0.47000000000E+01 0. -1.
        -11    1    4    4    0    0  0.25199122576E+02  0.22517246816E+02 -0.14161874259E+03  0.14559495333E+03  0.00000000000E+00 0.  1.
         12    1    4    4    0    0 -0.29933991174E+02 -0.35641492175E+02 -0.22836313678E+03  0.23305810870E+03  0.00000000000E+00 0. -1.
         -5    1    5    5    0  502 -0.17889094065E+02 -0.88051995914E+02  0.32451771074E+01  0.90032187830E+02  0.47000000000E+01 0.  1.
         11    1    6    6    0    0 -0.33330264142E+02  0.36217027480E+02  0.29632196230E+02  0.57451254475E+02  0.00000000000E+00 0. -1.
        -12    1    6    6    0    0  0.35864024013E+02 -0.33280514594E+01  0.23149112756E+02  0.42815716347E+02  0.00000000000E+00 0.  1.
</event>
<event>
12    1  0.8052519E-002  0.1981094E+03  0.7818608E-02  0.1151641E+00
         21   -1    0    0  503  502  0.00000000000E+00  0.00000000000E+00  0.10333056956E+04  0.10333056956E+04  0.00000000000E+00 0. -1.
         21   -1    0    0  501  503 -0.00000000000E+00 -0.00000000000E+00 -0.38043086578E+02  0.38043086578E+02  0.00000000000E+00 0. -1.
          6    2    1    2  501    0  0.95792524596E+02  0.23876366344E+01  0.54892660569E+03  0.58358182704E+03  0.17339383448E+03 0.  0.
         24    2    3    3    0    0  0.85458908819E+02  0.65039054931E+02  0.36723948949E+03  0.39106096577E+03  0.80811710444E+02 0.  0.
         -6    2    1    2    0  502 -0.95792524596E+02 -0.23876366344E+01  0.44633600333E+03  0.48776695514E+03  0.17181055288E+03 0.  0.
        -24    2    5    5    0    0 -0.83324492730E+02  0.19474194497E+02  0.44767407853E+03  0.46212964007E+03  0.76351216758E+02 0.  0.
          5    1    3    3  501    0  0.10333615777E+02 -0.62651418297E+02  0.18168711620E+03  0.19252086127E+03  0.47000000000E+01 0. -1.
        -11    1    4    4    0    0 -0.22689543653E+01  0.19487033049E+02  0.16280179986E+03  0.16397962876E+03  0.00000000000E+00 0.  1.
         12    1    4    4    0    0  0.87727863185E+02  0.45552021883E+02  0.20443768963E+03  0.22708133701E+03  0.00000000000E+00 0. -1.
         -5    1    5    5    0  502 -0.12468031866E+02 -0.21861831131E+02 -0.13380751989E+01  0.25637315075E+02  0.47000000000E+01 0.  1.
         13    1    6    6    0    0 -0.97197571090E+02  0.23779991577E+02  0.38453761526E+03  0.39734372195E+03  0.00000000000E+00 0. -1.
        -14    1    6    6    0    0  0.13873078360E+02 -0.43057970797E+01  0.63136463275E+02  0.64785918119E+02  0.00000000000E+00 0.  1.
</event>
<event>
12    1  0.8052519E-002  0.1909838E+03  0.7818608E-02  0.1157731E+00
         21   -1    0    0  503  502  0.00000000000E+00  0.00000000000E+00  0.40551820973E+03  0.40551820973E+03  0.00000000000E+00 0. -1.
         21   -1    0    0  501  503 -0.00000000000E+00 -0.00000000000E+00 -0.10762665251E+03  0.10762665251E+03  0.00000000000E+00 0. -1.
          6    2    1    2  501    0 -0.79099137977E+02 -0.22225532564E+02  0.43789777715E+02  0.19527300543E+03  0.17164892686E+03 0.  0.
         24    2    3    3    0    0  0.19117157516E+02 -0.58762613951E+00 -0.12135977625E+02  0.80101742504E+02  0.76832260042E+02 0.  0.
         -6    2    1    2    0  502  0.79099137977E+02  0.22225532564E+02  0.25410177951E+03  0.31787185681E+03  0.17240694615E+03 0.  0.
        -24    2    5    5    0    0  0.95772033911E+02  0.14712280880E+02  0.26687138702E+03  0.29507739947E+03  0.80384082877E+02 0.  0.
          5    1    3    3  501    0 -0.98216295493E+02 -0.21637906425E+02  0.55925755340E+02  0.11517126293E+03  0.47000000000E+01 0. -1.
        -11    1    4    4    0    0  0.30161978173E+02  0.13529805444E+02  0.23263646584E+02  0.40422738837E+02  0.00000000000E+00 0.  1.
         12    1    4    4    0    0 -0.11044820657E+02 -0.14117431584E+02 -0.35399624209E+02  0.39679003667E+02  0.00000000000E+00 0. -1.
         -5    1    5    5    0  502 -0.16672895935E+02  0.75132516840E+01 -0.12769607511E+02  0.22794457346E+02  0.47000000000E+01 0.  1.
         13    1    6    6    0    0  0.37353407699E+02  0.40812230388E+02  0.17173098194E+03  0.18042296244E+03  0.00000000000E+00 0. -1.
        -14    1    6    6    0    0  0.58418626213E+02 -0.26099949508E+02  0.95140405075E+02  0.11465443703E+03  0.00000000000E+00 0.  1.
</event>
<event>
12    1  0.8052519E-002  0.1925514E+03  0.7818608E-02  0.1156560E+00
         21   -1    0    0  503  502  0.00000000000E+00  0.00000000000E+00  0.54630260339E+03  0.54630260339E+03  0.00000000000E+00 0.  1.
         21   -1    0    0  501  503 -0.00000000000E+00 -0.00000000000E+00 -0.95522191145E+02  0.95522191145E+02  0.00000000000E+00 0.  1.
          6    2    1    2  501    0 -0.62748042097E+02 -0.57858096479E+02  0.50149476871E+02  0.19732372383E+03  0.17069506684E+03 0.  0.
         24    2    3    3    0    0 -0.14928641189E+02 -0.24037378797E+02  0.92404207187E+02  0.12494908545E+03  0.79202755891E+02 0.  0.
         -6    2    1    2    0  502  0.62748042097E+02  0.57858096479E+02  0.40063093537E+03  0.44450107070E+03  0.17260121483E+03 0.  0.
        -24    2    5    5    0    0  0.10392463043E+03  0.18651232787E+02  0.31210543554E+03  0.33918467260E+03  0.80549624077E+02 0.  0.
          5    1    3    3  501    0 -0.47819400908E+02 -0.33820717682E+02 -0.42254730316E+02  0.72374638388E+02  0.47000000000E+01 0. -1.
        -11    1    4    4    0    0  0.31604727717E+01 -0.37685233278E+02  0.94843005031E+01  0.38988682350E+02  0.00000000000E+00 0.  1.
         12    1    4    4    0    0 -0.18089113960E+02  0.13647854481E+02  0.82919906684E+02  0.85960403095E+02  0.00000000000E+00 0. -1.
         -5    1    5    5    0  502 -0.41176588338E+02  0.39206863692E+02  0.88525499830E+02  0.10531639810E+03  0.47000000000E+01 0.  1.
         11    1    6    6    0    0  0.57455639745E+02 -0.23326522369E+02  0.96812664829E+02  0.11496942748E+03  0.00000000000E+00 0. -1.
        -12    1    6    6    0    0  0.46468990690E+02  0.41977755156E+02  0.21529277071E+03  0.22421524512E+03  0.00000000000E+00 0.  1.
</event>
<event>
12    1  0.8052519E-002  0.1825064E+03  0.7818608E-02  0.1170482E+00
         21   -1    0    0  501  502  0.00000000000E+00  0.00000000000E+00  0.11936815355E+03  0.11936815355E+03  0.00000000000E+00 0.  1.
         21   -1    0    0  502  503 -0.00000000000E+00 -0.00000000000E+00 -0.14338299252E+04  0.14338299252E+04  0.00000000000E+00 0.  1.
         -6    2    1    2    0  503  0.37124969810E+02  0.48043639660E+02 -0.13695839833E+04  0.13816905792E+04  0.17211076288E+03 0.  0.
        -24    2    3    3    0    0 -0.12916482263E+02 -0.28171947263E+02 -0.49689020438E+03  0.50423432140E+03  0.79949243562E+02 0.  0.
          6    2    1    2  501    0 -0.37124969810E+02 -0.48043639660E+02  0.55122211586E+02  0.17150749959E+03  0.15063170154E+03 0.  0.
         24    2    5    5    0    0  0.23016721663E+02 -0.48563418015E+02  0.58258762583E+02  0.11109871566E+03  0.77850280404E+02 0.  0.
          5    1    5    5  501    0 -0.60141691474E+02  0.51977835505E+00 -0.31365509967E+01  0.60408783923E+02  0.47000000000E+01 0. -1.
        -11    1    6    6    0    0 -0.16164387810E+02 -0.78486028860E+01  0.51068643464E+02  0.54137734953E+02  0.00000000000E+00 0.  1.
         12    1    6    6    0    0  0.39181109474E+02 -0.40714815129E+02  0.71901191183E+01  0.56960980711E+02  0.00000000000E+00 0. -1.
         -5    1    3    3    0  503  0.50041452074E+02  0.76215586923E+02 -0.87269377888E+03  0.87745625778E+03  0.47000000000E+01 0.  1.
         13    1    4    4    0    0 -0.33970476431E+02  0.15081170176E+01 -0.98868065101E+02  0.10455219741E+03  0.00000000000E+00 0. -1.
        -14    1    4    4    0    0  0.21053994168E+02 -0.29680064281E+02 -0.39802213928E+03  0.39968212399E+03  0.00000000000E+00 0.  1.
</event>
<event>
12    1  0.8052519E-002  0.1870982E+03  0.7818608E-02  0.1161556E+00
         21   -1    0    0  501  502  0.00000000000E+00  0.00000000000E+00  0.20453387106E+03  0.20453387106E+03  0.00000000000E+00 0.  1.
         21   -1    0    0  502  503 -0.00000000000E+00 -0.00000000000E+00 -0.27864265698E+03  0.27864265698E+03  0.00000000000E+00 0.  1.
         -6    2    1    2    0  503  0.63726146897E+01 -0.71592714434E+02 -0.18822463945E+03  0.26402325280E+03  0.17062718466E+03 0.  0.
        -24    2    3    3    0    0 -0.28727793063E+02  0.20349338102E+02 -0.75334489953E+02  0.11418448778E+03  0.78252349600E+02 0.  0.
          6    2    1    2  501    0 -0.63726146897E+01  0.71592714434E+02  0.11411585353E+03  0.21915327525E+03  0.17274143408E+03 0.  0.
         24    2    5    5    0    0 -0.13587497995E+02 -0.20015728909E+02  0.88221867361E+02  0.12356692710E+03  0.83068875556E+02 0.  0.
          5    1    5    5  501    0  0.72148833049E+01  0.91608443342E+02  0.25893986168E+02  0.95586348149E+02  0.47000000000E+01 0. -1.
        -11    1    6    6    0    0 -0.31451032989E+02 -0.26636542376E+01  0.92998744964E+02  0.98209109022E+02  0.00000000000E+00 0.  1.
         12    1    6    6    0    0  0.17863534995E+02 -0.17352074671E+02 -0.47768776030E+01  0.25357818075E+02  0.00000000000E+00 0. -1.
         -5    1    3    3    0  503  0.35100407753E+02 -0.91942052536E+02 -0.11289014950E+03  0.14983876502E+03  0.47000000000E+01 0.  1.
         11    1    4    4    0    0  0.36374198813E+00  0.46600547751E+02 -0.39690603493E+02  0.61213457381E+02  0.00000000000E+00 0. -1.
        -12    1    4    4    0    0 -0.29091535052E+02 -0.26251209649E+02 -0.35643886459E+02  0.52971030400E+02  0.00000000000E+00 0.  1.
</event>
<event>
12    1  0.8052519E-002  0.2099386E+03  0.7818608E-02  0.1142106E+00
         21   -1    0    0  501  502  0.00000000000E+00  0.00000000000E+00  0.13234973701E+03  0.13234973701E+03  0.00000000000E+00 0. -1.
         21   -1    0    0  502  503 -0.00000000000E+00 -0.00000000000E+00 -0.38267691020E+03  0.38267691020E+03  0.00000000000E+00 0. -1.
         -6    2    1    2    0  503  0.37845597370E+02 -0.11397874798E+03 -0.29457068091E+02  0.21199508638E+03  0.17219394169E+03 0.  0.
        -24    2    3    3    0    0  0.26678657635E+02 -0.89145218366E+02  0.41959680590E+02  0.13541932828E+03  0.88989656394E+02 0.  0.
          6    2    1    2  501    0 -0.37845597370E+02  0.11397874798E+03 -0.22087010510E+03  0.30303156083E+03  0.16917765604E+03 0.  0.
         24    2    5    5    0    0 -0.40170924421E+02  0.20353603298E+02 -0.22591176075E+02  0.83696888341E+02  0.66834388944E+02 0.  0.
          5    1    5    5  501    0  0.23253270509E+01  0.93625144681E+02 -0.19827892903E+03  0.21933467249E+03  0.47000000000E+01 0. -1.
        -13    1    6    6    0    0 -0.19501122775E+02  0.40224257213E+02  0.36214818725E+01  0.44848631961E+02  0.00000000000E+00 0.  1.
         14    1    6    6    0    0 -0.20669801646E+02 -0.19870653915E+02 -0.26212657948E+02  0.38848256380E+02  0.00000000000E+00 0. -1.
         -5    1    3    3    0  503  0.11166939736E+02 -0.24833529613E+02 -0.71416748681E+02  0.76575758098E+02  0.47000000000E+01 0.  1.
         11    1    4    4    0    0  0.16237730024E+01 -0.56742351729E+01  0.47715656295E+02  0.48079282849E+02  0.00000000000E+00 0. -1.
        -12    1    4    4    0    0  0.25054884632E+02 -0.83470983193E+02 -0.57559757052E+01  0.87340045429E+02  0.00000000000E+00 0.  1.
</event>
<event>
12    1  0.8052519E-002  0.2489218E+03  0.7818608E-02  0.1114010E+00
         21   -1    0    0  503  502  0.00000000000E+00  0.00000000000E+00  0.12964812930E+04  0.12964812930E+04  0.00000000000E+00 0.  1.
         21   -1    0    0  501  503 -0.00000000000E+00 -0.00000000000E+00 -0.52142716130E+02  0.52142716130E+02  0.00000000000E+00 0.  1.
          6    2    1    2  501    0 -0.31616652447E+02 -0.17720729215E+03  0.42664813243E+03  0.49388443366E+03  0.17172992691E+03 0.  0.
         24    2    3    3    0    0 -0.42988010790E+02 -0.46769159476E+02  0.10569387514E+03  0.14721868755E+03  0.80416561557E+02 0.  0.
         -6    2    1    2    0  502  0.31616652447E+02  0.17720729215E+03  0.81769044444E+03  0.85473957548E+03  0.17193034012E+03 0.  0.
        -24    2    5    5    0    0 -0.20907476578E+02  0.13834265739E+03  0.38797627230E+03  0.42006083928E+03  0.79685051268E+02 0.  0.
          5    1    3    3  501    0  0.11371358343E+02 -0.13043813268E+03  0.32095425730E+03  0.34666574611E+03  0.47000000000E+01 0. -1.
        -13    1    4    4    0    0 -0.93518182361E+01 -0.54144146627E+02  0.97351878395E+02  0.11178744717E+03  0.00000000000E+00 0.  1.
         14    1    4    4    0    0 -0.33636192554E+02  0.73749871508E+01  0.83419967407E+01  0.35431240377E+02  0.00000000000E+00 0. -1.
         -5    1    5    5    0  502  0.52524129025E+02  0.38864634759E+02  0.42971417215E+03  0.43467873620E+03  0.47000000000E+01 0.  1.
         13    1    6    6    0    0 -0.31622376839E+02  0.16678595132E+02  0.57169197710E+02  0.67427497501E+02  0.00000000000E+00 0. -1.
        -14    1    6    6    0    0  0.10714900261E+02  0.12166406226E+03  0.33080707459E+03  0.35263334177E+03  0.00000000000E+00 0.  1.
</event>
<event>
12    1  0.8052519E-002  0.2419696E+03  0.7818608E-02  0.1118540E+00
         21   -1    0    0  503  502  0.00000000000E+00  0.00000000000E+00  0.15959223185E+04  0.15959223185E+04  0.00000000000E+00 0.  1.
         21   -1    0    0  501  503 -0.00000000000E+00 -0.00000000000E+00 -0.29081745702E+03  0.29081745702E+03  0.00000000000E+00 0. -1.
          6    2    1    2  501    0  0.16943273795E+03 -0.89131212982E+01 -0.22933830684E+03  0.33338471540E+03  0.17251786301E+03 0.  0.
         24    2    3    3    0    0  0.51169389917E+02  0.30655297646E+02 -0.16605849713E+03  0.19346222406E+03  0.79335704010E+02 0.  0.
         -6    2    1    2    0  502 -0.16943273795E+03  0.89131212982E+01  0.15344431683E+04  0.15533550601E+04  0.17207326798E+03 0.  0.
        -24    2    5    5    0    0 -0.69301099761E+02 -0.57828256272E+02  0.73977414286E+03  0.74961274664E+03  0.80664352873E+02 0.  0.
          5    1    3    3  501    0  0.11826334803E+03 -0.39568418945E+02 -0.63279809714E+02  0.13992249134E+03  0.47000000000E+01 0. -1.
        -13    1    4    4    0    0  0.14713911595E+02  0.43593326952E+02 -0.37951524991E+02  0.59642229991E+02  0.00000000000E+00 0.  1.
         14    1    4    4    0    0  0.36455478321E+02 -0.12938029305E+02 -0.12810697214E+03  0.13381999407E+03  0.00000000000E+00 0. -1.
         -5    1    5    5    0  502 -0.10013163819E+03  0.66741377570E+02  0.79466902545E+03  0.80374231347E+03  0.47000000000E+01 0.  1.
         13    1    6    6    0    0  0.51096128129E+00 -0.45049632602E+02  0.18956477693E+03  0.19484490020E+03  0.00000000000E+00 0. -1.
        -14    1    6    6    0    0 -0.69812061043E+02 -0.12778623670E+02  0.55020936593E+03  0.55476784644E+03  0.00000000000E+00 0.  1.
</event>
<event>
12    1  0.8052519E-002  0.1844913E+03  0.7818608E-02  0.1165420E+00
         21   -1    0    0  501  502  0.00000000000E+00  0.00000000000E+00  0.83978721545E+02  0.83978721545E+02  0.00000000000E+00 0. -1.
         21   -1    0    0  502  503 -0.00000000000E+00 -0.00000000000E+00 -0.68589734128E+03  0.68589734128E+03  0.00000000000E+00 0. -1.
         -6    2    1    2    0  503 -0.10874601635E+02 -0.41410575090E+02 -0.55827392339E+03  0.58796839024E+03  0.17945462296E+03 0.  0.
        -24    2    3    3    0    0 -0.58895059676E+02  0.57085298152E+01 -0.44485440364E+03  0.45601289814E+03  0.80938911912E+02 0.  0.
          6    2    1    2  501    0  0.10874601635E+02  0.41410575090E+02 -0.43644696351E+02  0.18190767258E+03  0.17132556475E+03 0.  0.
         24    2    5    5    0    0  0.94534110978E+01  0.52450094701E+01  0.39543992428E+02  0.91064864064E+02  0.81315466082E+02 0.  0.
          5    1    5    5  501    0  0.14211905375E+01  0.36165565620E+02 -0.83188688779E+02  0.90842808520E+02  0.47000000000E+01 0. -1.
        -13    1    6    6    0    0  0.19340782366E+01  0.40365234190E+02  0.41240968046E+01  0.40621434789E+02  0.00000000000E+00 0.  1.
         14    1    6    6    0    0  0.75193328612E+01 -0.35120224720E+02  0.35419895623E+02  0.50443429275E+02  0.00000000000E+00 0. -1.
         -5    1    3    3    0  503  0.48020458041E+02 -0.47119104905E+02 -0.11341951974E+03  0.13195549210E+03  0.47000000000E+01 0.  1.
         13    1    4    4    0    0 -0.47805926747E+02  0.40095177574E+02 -0.32046148435E+03  0.32647908486E+03  0.00000000000E+00 0. -1.
        -14    1    4    4    0    0 -0.11089132929E+02 -0.34386647759E+02 -0.12439291929E+03  0.12953381328E+03  0.00000000000E+00 0.  1.
</event>
<event>
12    1  0.8052519E-002  0.2384255E+03  0.7818608E-02  0.1121039E+00
         21   -1    0    0  501  502  0.00000000000E+00  0.00000000000E+00  0.27330500173E+03  0.27330500173E+03  0.00000000000E+00 0. -1.
         21   -1    0    0  502  503 -0.00000000000E+00 -0.00000000000E+00 -0.46917344900E+03  0.46917344900E+03  0.00000000000E+00 0.  1.
         -6    2    1    2    0  503 -0.16116513551E+03 -0.37104382331E+02 -0.37554902144E+03  0.44484128810E+03  0.17174332010E+03 0.  0.
        -24    2    3    3    0    0 -0.37448853665E+02 -0.15462288526E+02 -0.25626033263E+03  0.27156122607E+03  0.80216222920E+02 0.  0.
          6    2    1    2  501    0  0.16116513551E+03  0.37104382331E+02  0.17968057418E+03  0.29763716263E+03  0.17015238979E+03 0.  0.
         24    2    5    5    0    0  0.65101417915E+01 -0.87715628087E+00  0.46298660076E+02  0.89854609549E+02  0.76727658527E+02 0.  0.
          5    1    5    5  501    0  0.15465499372E+03  0.37981538611E+02  0.13338191410E+03  0.20778255308E+03  0.47000000000E+01 0. -1.
        -11    1    6    6    0    0  0.11164694971E+02  0.24024497307E+02 -0.98434496511E+01  0.28261641595E+02  0.00000000000E+00 0.  1.
         12    1    6    6    0    0 -0.46545531796E+01 -0.24901653588E+02  0.56142109728E+02  0.61592967954E+02  0.00000000000E+00 0. -1.
         -5    1    3    3    0  503 -0.12371628184E+03 -0.21642093804E+02 -0.11928868881E+03  0.17328006203E+03  0.47000000000E+01 0.  1.
         13    1    4    4    0    0  0.24523254527E+01 -0.50404314958E+01  0.47290344504E+01  0.73337314256E+01  0.00000000000E+00 0. -1.
        -14    1    4    4    0    0 -0.39901179118E+02 -0.10421857030E+02 -0.26098936708E+03  0.26422749464E+03  0.00000000000E+00 0.  1.
</event>
<event>
12    1  0.8052519E-002  0.2004152E+03  0.7818608E-02  0.1149568E+00
         21   -1    0    0  501  502  0.00000000000E+00  0.00000000000E+00  0.46549113356E+03  0.46549113356E+03  0.00000000000E+00 0.  1.
         21   -1    0    0  502  503 -0.00000000000E+00 -0.00000000000E+00 -0.89297730214E+02  0.89297730214E+02  0.00000000000E+00 0. -1.
         -6    2    1    2    0  503  0.84360702036E+02 -0.58979392596E+02  0.13379597270E+03  0.24026898951E+03  0.17097522689E+03 0.  0.
        -24    2    3    3    0    0  0.88799410632E+02 -0.81071489443E+02  0.49898634564E+02  0.15327119514E+03  0.80896624161E+02 0.  0.
          6    2    1    2  501    0 -0.84360702036E+02  0.58979392596E+02  0.24239743064E+03  0.31451987426E+03  0.17196203106E+03 0.  0.
         24    2    5    5    0    0 -0.67734100265E+01  0.17863940291E+02  0.20147866086E+03  0.21753170993E+03  0.79758351286E+02 0.  0.
          5    1    5    5  501    0 -0.77587292009E+02  0.41115452305E+02  0.40918769783E+02  0.96988164330E+02  0.47000000000E+01 0. -1.
        -11    1    6    6    0    0  0.26553446614E+02 -0.18737817498E+02  0.81846488355E+02  0.88062699185E+02  0.00000000000E+00 0.  1.
         12    1    6    6    0    0 -0.33326856640E+02  0.36601757789E+02  0.11963217250E+03  0.12946901075E+03  0.00000000000E+00 0. -1.
         -5    1    3    3    0  503 -0.44387085961E+01  0.22092096847E+02  0.83897338140E+02  0.86997794364E+02  0.47000000000E+01 0.  1.
         11    1    4    4    0    0  0.36187344724E+02  0.86247446242E+01 -0.15890874059E+01  0.37234867219E+02  0.00000000000E+00 0. -1.
        -12    1    4    4    0    0  0.52612065908E+02 -0.89696234067E+02  0.51487721970E+02  0.11603632793E+03  0.00000000000E+00 0.  1.
</event>
<event>
12    1  0.8052519E-002  0.1957065E+03  0.7818608E-02  0.1153479E+00
         21   -1    0    0  501  502  0.00000000000E+00  0.00000000000E+00  0.16890212206E+03  0.16890212206E+03  0.00000000000E+00 0. -1.
         21   -1    0    0  502  503 -0.00000000000E+00 -0.00000000000E+00 -0.24777657282E+03  0.24777657282E+03  0.00000000000E+00 0. -1.
         -6    2    1    2    0  503 -0.29524920325E+02 -0.88964137157E+02  0.21713444106E+02  0.19690739057E+03  0.17179845222E+03 0.  0.
        -24    2    3    3    0    0 -0.20370996382E+02 -0.20109685055E+02 -0.48215992836E+02  0.98231425669E+02  0.80655155428E+02 0.  0.
          6    2    1    2  501    0  0.29524920325E+02  0.88964137157E+02 -0.10058789486E+03  0.21977130430E+03  0.17145017638E+03 0.  0.
         24    2    5    5    0    0 -0.22158084851E+02 -0.77335707502E+01 -0.61708443592E+02  0.10334415339E+03  0.79506560665E+02 0.  0.
          5    1    5    5  501    0  0.51683005175E+02  0.96697707908E+02 -0.38879451273E+02  0.11642715091E+03  0.47000000000E+01 0. -1.
        -13    1    6    6    0    0 -0.42838780967E+02  0.14083709157E+02 -0.14483934149E+02  0.47363449693E+02  0.00000000000E+00 0.  1.
         14    1    6    6    0    0  0.20680696117E+02 -0.21817279907E+02 -0.47224509442E+02  0.55980703698E+02  0.00000000000E+00 0. -1.
         -5    1    3    3    0  503 -0.91539239423E+01 -0.68854452102E+02  0.69929436942E+02  0.98675964900E+02  0.47000000000E+01 0.  1.
         11    1    4    4    0    0 -0.11871057463E+01 -0.94946560875E+01  0.22363718787E+02  0.24324753489E+02  0.00000000000E+00 0. -1.
        -12    1    4    4    0    0 -0.19183890636E+02 -0.10615028968E+02 -0.70579711624E+02  0.73906672180E+02  0.00000000000E+00 0.  1.
</event>
<event>
12    1  0.8052519E-002  0.1742418E+03  0.7818608E-02  0.1173640E+00
         21   -1    0    0  501  502  0.00000000000E+00  0.00000000000E+00  0.75255834061E+02  0.75255834061E+02  0.00000000000E+00 0.  1.
         21   -1    0    0  502  503 -0.00000000000E+00 -0.00000000000E+00 -0.61883759037E+03  0.61883759037E+03  0.00000000000E+00 0.  1.
         -6    2    1    2    0  503  0.32222604667E+02 -0.13027837224E+02 -0.66118191693E+02  0.18583005593E+03  0.17015632113E+03 0.  0.
        -24    2    3    3    0    0  0.30172006004E+02  0.45111797652E+02 -0.74410712122E+02  0.12687856745E+03  0.87268508447E+02 0.  0.
          6    2    1    2  501    0 -0.32222604667E+02  0.13027837224E+02 -0.47746356461E+03  0.50826336850E+03  0.17074008151E+03 0.  0.
         24    2    5    5    0    0 -0.23923243581E+02  0.71492797706E+02 -0.23987391249E+03  0.26340021530E+03  0.78464245491E+02 0.  0.
          5    1    5    5  501    0 -0.82993610862E+01 -0.58464960482E+02 -0.23758965212E+03  0.24486315320E+03  0.47000000000E+01 0. -1.
        -13    1    6    6    0    0  0.12977427637E+02  0.63314113575E+02 -0.19085955671E+03  0.20150548626E+03  0.00000000000E+00 0.  1.
         14    1    6    6    0    0 -0.36900671218E+02  0.81786841310E+01 -0.49014355780E+02  0.61894729040E+02  0.00000000000E+00 0. -1.
         -5    1    3    3    0  503  0.20505986628E+01 -0.58139634876E+02  0.82925204296E+01  0.58951488475E+02  0.47000000000E+01 0.  1.
         13    1    4    4    0    0  0.44581210314E+02  0.60086040197E+02 -0.35604268061E+02  0.82858194790E+02  0.00000000000E+00 0. -1.
        -14    1    4    4    0    0 -0.14409204310E+02 -0.14974242545E+02 -0.38806444061E+02  0.44020372662E+02  0.00000000000E+00 0.  1.
</event>
<event>
12    1  0.8052519E-002  0.1904511E+03  0.7818608E-02  0.1158394E+00
         21   -1    0    0  503  502  0.00000000000E+00  0.00000000000E+00  0.45738134786E+03  0.45738134786E+03  0.00000000000E+00 0.  1.
         21   -1    0    0  501  503 -0.00000000000E+00 -0.00000000000E+00 -0.11406558590E+03  0.11406558590E+03  0.00000000000E+00 0.  1.
          6    2    1    2  501    0  0.60503438038E+02  0.51970908752E+02  0.33033293080E+03  0.38055380558E+03  0.17128838956E+03 0.  0.
         24    2    3    3    0    0 -0.11445407645E+02  0.83579786910E+02  0.15765691601E+03  0.19077800718E+03  0.66512906437E+02 0.  0.
         -6    2    1    2    0  502 -0.60503438038E+02 -0.51970908752E+02  0.12982831166E+02  0.19089312818E+03  0.17294505228E+03 0.  0.
        -24    2    5    5    0    0 -0.77124706495E+00 -0.23583799585E+01 -0.43831411091E+02  0.94564078691E+02  0.83755689970E+02 0.  0.
          5    1    3    3  501    0  0.71948845683E+02 -0.31608878158E+02  0.17267601479E+03  0.18977579840E+03  0.47000000000E+01 0. -1.
        -11    1    4    4    0    0  0.22830840619E+02  0.21060441174E+02  0.23852559591E+02  0.39162916961E+02  0.00000000000E+00 0.  1.
         12    1    4    4    0    0 -0.34276248264E+02  0.62519345736E+02  0.13380435642E+03  0.15161509022E+03  0.00000000000E+00 0. -1.
         -5    1    5    5    0  502 -0.59732190973E+02 -0.49612528793E+02  0.56814242257E+02  0.96329049486E+02  0.47000000000E+01 0.  1.
         11    1    6    6    0    0  0.36815923933E+02 -0.16968104498E+02 -0.95796625667E+01  0.41654516684E+02  0.00000000000E+00 0. -1.
        -12    1    6    6    0    0 -0.37587170998E+02  0.14609724539E+02 -0.34251748525E+02  0.52909562007E+02  0.00000000000E+00 0.  1.
</event>
<event>
12    1  0.8052519E-002  0.1740940E+03  0.7818608E-02  0.1173661E+00
         21   -1    0    0  503  502  0.00000000000E+00  0.00000000000E+00  0.52842332426E+03  0.52842332426E+03  0.00000000000E+00 0.  1.
         21   -1    0    0  501  503 -0.00000000000E+00 -0.00000000000E+00 -0.66636126659E+02  0.66636126659E+02  0.00000000000E+00 0.  1.
          6    2    1    2  501    0 -0.18747426494E+02  0.14272366254E+02  0.11977681877E+03  0.21131777949E+03  0.17249217714E+03 0.  0.
         24    2    3    3    0    0 -0.47055188641E+02 -0.25059126802E+02  0.12956650174E+03  0.16165669174E+03  0.80642773988E+02 0.  0.
         -6    2    1    2    0  502  0.18747426494E+02 -0.14272366254E+02  0.34201037884E+03  0.38374167143E+03  0.17242796967E+03 0.  0.
        -24    2    5    5    0    0  0.66643786031E+01 -0.71503865267E+02  0.27168078479E+03  0.29214589465E+03  0.79884655893E+02 0.  0.
          5    1    3    3  501    0  0.28307762147E+02  0.39331493055E+02 -0.97896829734E+01  0.49661087749E+02  0.47000000000E+01 0. -1.
        -13    1    4    4    0    0 -0.13238401859E+02  0.42656295509E+01 -0.86459859133E+01  0.16376933524E+02  0.00000000000E+00 0.  1.
         14    1    4    4    0    0 -0.33816786783E+02 -0.29324756353E+02  0.13821248765E+03  0.14527975822E+03  0.00000000000E+00 0. -1.
         -5    1    5    5    0  502  0.12083047891E+02  0.57231499014E+02  0.70329594043E+02  0.91595776780E+02  0.47000000000E+01 0.  1.
         13    1    6    6    0    0  0.40092236167E+02 -0.19385138970E+02  0.13336535430E+03  0.14060401396E+03  0.00000000000E+00 0. -1.
        -14    1    6    6    0    0 -0.33427857564E+02 -0.52118726297E+02  0.13831543050E+03  0.15154188070E+03  0.00000000000E+00 0.  1.
</event>
<event>
12    1  0.8052519E-002  0.1967033E+03  0.7818608E-02  0.1152793E+00
         21   -1    0    0  501  502  0.00000000000E+00  0.00000000000E+00  0.31255798849E+03  0.31255798849E+03  0.00000000000E+00 0. -1.
         21   -1    0    0  502  503 -0.00000000000E+00 -0.00000000000E+00 -0.14739896410E+03  0.14739896410E+03  0.00000000000E+00 0. -1.
         -6    2    1    2    0  503 -0.52972952312E+02 -0.78421010525E+02  0.17617908065E+03  0.26406677281E+03  0.17244188434E+03 0.  0.
        -24    2    3    3    0    0 -0.91927387329E+02 -0.18922835448E+02  0.12998903095E+03  0.17913685148E+03  0.79900845732E+02 0.  0.
          6    2    1    2  501    0  0.52972952312E+02  0.78421010525E+02 -0.11020056259E+02  0.19589017979E+03  0.17115937699E+03 0.  0.
         24    2    5    5    0    0  0.37366436216E+02 -0.24529803734E+02  0.39570548530E+01  0.90586631140E+02  0.78691280529E+02 0.  0.
          5    1    5    5  501    0  0.15606516096E+02  0.10295081426E+03 -0.14977111112E+02  0.10530354865E+03  0.47000000000E+01 0. -1.
        -11    1    6    6    0    0  0.23363727125E+02 -0.19667748822E+02  0.40747764906E+02  0.50922140899E+02  0.00000000000E+00 0.  1.
         12    1    6    6    0    0  0.14002709091E+02 -0.48620549122E+01 -0.36790710053E+02  0.39664490241E+02  0.00000000000E+00 0. -1.
         -5    1    3    3    0  503  0.38954435017E+02 -0.59498175077E+02  0.46190049698E+02  0.84929921324E+02  0.47000000000E+01 0.  1.
         13    1    4    4    0    0 -0.81963595237E+02 -0.45946164103E+02  0.10601943798E+03  0.14166581157E+03  0.00000000000E+00 0. -1.
        -14    1    4    4    0    0 -0.99637920926E+01  0.27023328655E+02  0.23969592974E+02  0.37471039908E+02  0.00000000000E+00 0.  1.
</event>
<event>
12    1  0.8052519E-002  0.1887942E+03  0.7818608E-02  0.1159755E+00
         21   -1    0    0  503  502  0.00000000000E+00  0.00000000000E+00  0.17571288423E+04  0.17571288423E+04  0.00000000000E+00 0. -1.
         21   -1    0    0  501  503 -0.00000000000E+00 -0.00000000000E+00 -0.20342262610E+02  0.20342262610E+02  0.00000000000E+00 0. -1.
          6    2    1    2  501    0  0.73036465905E+02  0.11255808097E+02  0.78949507163E+03  0.81154955499E+03  0.17276919144E+03 0.  0.
         24    2    3    3    0    0  0.15525305948E+02  0.59600189099E+02  0.31876919481E+03  0.33484246064E+03  0.81929580889E+02 0.  0.
         -6    2    1    2    0  502 -0.73036465905E+02 -0.11255808097E+02  0.94729150807E+03  0.96592154993E+03  0.17373031050E+03 0.  0.
        -24    2    5    5    0    0 -0.88188037748E+02 -0.38312759577E+02  0.43446899421E+03  0.45214078980E+03  0.80143554486E+02 0.  0.
          5    1    3    3  501    0  0.57511159957E+02 -0.48344381002E+02  0.47072587682E+03  0.47670709435E+03  0.47000000000E+01 0. -1.
        -13    1    4    4    0    0  0.34714077530E+02  0.20784077307E+01  0.18112591613E+03  0.18443422798E+03  0.00000000000E+00 0.  1.
         14    1    4    4    0    0 -0.19188771582E+02  0.57521781369E+02  0.13764327868E+03  0.15040823266E+03  0.00000000000E+00 0. -1.
         -5    1    5    5    0  502  0.15151571843E+02  0.27056951479E+02  0.51282251386E+03  0.51378076013E+03  0.47000000000E+01 0.  1.
         11    1    6    6    0    0  0.13305460892E+02  0.16650774190E+01  0.84746851012E+02  0.85801145266E+02  0.00000000000E+00 0. -1.
        -12    1    6    6    0    0 -0.10149349864E+03 -0.39977836996E+02  0.34972214319E+03  0.36633964453E+03  0.00000000000E+00 0.  1.
</event>
<event>
12    1  0.8052519E-002  0.2247248E+03  0.7818608E-02  0.1130631E+00
         21   -1    0    0  503  502  0.00000000000E+00  0.00000000000E+00  0.26205342442E+03  0.26205342442E+03  0.00000000000E+00 0. -1.
         21   -1    0    0  501  503 -0.00000000000E+00 -0.00000000000E+00 -0.44238552830E+03  0.44238552830E+03  0.00000000000E+00 0. -1.
          6    2    1    2  501    0 -0.14053020134E+03 -0.31892785345E+02 -0.35521809020E+03  0.41968232974E+03  0.17084343430E+03 0.  0.
         24    2    3    3    0    0 -0.39159196092E+02 -0.42621204536E+02 -0.26887801249E+03  0.28601154496E+03  0.78467882208E+02 0.  0.
         -6    2    1    2    0  502  0.14053020134E+03  0.31892785345E+02  0.17488598632E+03  0.28475662298E+03  0.17243937740E+03 0.  0.
        -24    2    5    5    0    0  0.53430868911E+02  0.32992918591E+02  0.17050254913E+03  0.19741357218E+03  0.77185547815E+02 0.  0.
          5    1    3    3  501    0 -0.10137100524E+03  0.10728419191E+02 -0.86340077715E+02  0.13367078477E+03  0.47000000000E+01 0. -1.
        -13    1    4    4    0    0  0.18902770741E+02  0.65216730827E+01 -0.78315760363E+02  0.80828245574E+02  0.00000000000E+00 0.  1.
         14    1    4    4    0    0 -0.58061966832E+02 -0.49142877619E+02 -0.19056225212E+03  0.20518329939E+03  0.00000000000E+00 0. -1.
         -5    1    5    5    0  502  0.87099332424E+02 -0.11001332467E+01  0.43834371901E+01  0.87343050802E+02  0.47000000000E+01 0.  1.
         13    1    6    6    0    0  0.70684295840E+02  0.31662589614E+02  0.11032661574E+03  0.13479892952E+03  0.00000000000E+00 0. -1.
        -14    1    6    6    0    0 -0.17253426929E+02  0.13303289769E+01  0.60175933390E+02  0.62614642659E+02  0.00000000000E+00 0.  1.
</event>
<event>
12    1  0.8052519E-002  0.1996984E+03  0.7818608E-02  0.1150009E+00
         21   -1    0    0  503  502  0.00000000000E+00  0.00000000000E+00  0.17757338457E+03  0.17757338457E+03  0.00000000000E+00 0.  1.
         21   -1    0    0  501  503 -0.00000000000E+00 -0.00000000000E+00 -0.43086258830E+03  0.43086258830E+03  0.00000000000E+00 0.  1.
          6    2    1    2  501    0  0.31243588470E+00  0.10213110677E+03 -0.33717137005E+03  0.39183571484E+03  0.17152210952E+03 0.  0.
         24    2    3    3    0    0 -0.31757298550E+02  0.37258692401E+02 -0.29228748044E+03  0.30655059562E+03  0.78387245684E+02 0.  0.
         -6    2    1    2    0  502 -0.31243588470E+00 -0.10213110677E+03  0.83882166320E+02  0.21660025804E+03  0.17160592463E+03 0.  0.
        -24    2    5    5    0    0  0.42170097737E+02 -0.70156147350E+01  0.16931163361E+02  0.92679923607E+02  0.80469671019E+02 0.  0.
          5    1    3    3  501    0  0.32069734435E+02  0.64872414369E+02 -0.44883889612E+02  0.85285119215E+02  0.47000000000E+01 0. -1.
        -11    1    4    4    0    0 -0.44525511869E+02  0.54047583368E+02 -0.20069812853E+03  0.21256387574E+03  0.00000000000E+00 0.  1.
         12    1    4    4    0    0  0.12768213319E+02 -0.16788890966E+02 -0.91589351907E+02  0.93986719881E+02  0.00000000000E+00 0. -1.
         -5    1    5    5    0  502 -0.42482533621E+02 -0.95115492036E+02  0.66951002959E+02  0.12392033443E+03  0.47000000000E+01 0.  1.
         13    1    6    6    0    0 -0.93331626017E+01  0.16744237731E+02 -0.17810010546E+02  0.26166274037E+02  0.00000000000E+00 0. -1.
        -14    1    6    6    0    0  0.51503260338E+02 -0.23759852466E+02  0.34741173907E+02  0.66513649570E+02  0.00000000000E+00 0.  1.
</event>
<event>
12    1  0.8052519E-002  0.1987676E+03  0.7818608E-02  0.1150878E+00
         21   -1    0    0  503  502  0.00000000000E+00  0.00000000000E+00  0.28521587999E+03  0.28521587999E+03  0.00000000000E+00 0.  1.
         21   -1    0    0  501  503 -0.00000000000E+00 -0.00000000000E+00 -0.20187960955E+03  0.20187960955E+03  0.00000000000E+00 0.  1.
          6    2    1    2  501    0  0.58999484457E+02  0.79495346236E+02 -0.95138054247E+02  0.21995947772E+03  0.17184432848E+03 0.  0.
         24    2    3    3    0    0  0.38516210645E+02 -0.15626411327E+02 -0.82073633113E+02  0.12167172483E+03  0.79625650121E+02 0.  0.
         -6    2    1    2    0  502 -0.58999484457E+02 -0.79495346236E+02  0.17847432468E+03  0.26713601182E+03  0.17236042179E+03 0.  0.
        -24    2    5    5    0    0 -0.30707694562E+02 -0.99315898478E+02  0.57088427124E+02  0.14084307539E+03  0.75967579774E+02 0.  0.
          5    1    3    3  501    0  0.20483273812E+02  0.95121757563E+02 -0.13064421134E+02  0.98287752887E+02  0.47000000000E+01 0. -1.
        -11    1    4    4    0    0  0.62409239901E+02 -0.10969041466E+02 -0.70261302902E+02  0.94614395211E+02  0.00000000000E+00 0.  1.
         12    1    4    4    0    0 -0.23893029256E+02 -0.46573698605E+01 -0.11812330211E+02  0.27057329618E+02  0.00000000000E+00 0. -1.
         -5    1    5    5    0  502 -0.28291789895E+02  0.19820552242E+02  0.12138589756E+03  0.12629293643E+03  0.47000000000E+01 0.  1.
         11    1    6    6    0    0  0.80617393699E+01 -0.41547634359E+02  0.57343911000E+02  0.71270763229E+02  0.00000000000E+00 0. -1.
        -12    1    6    6    0    0 -0.38769433932E+02 -0.57768264119E+02 -0.25548387602E+00  0.69572312156E+02  0.00000000000E+00 0.  1.
</event>
<event>
12    1  0.8052519E-002  0.2775856E+03  0.7818608E-02  0.1097059E+00
         21   -1    0    0  501  502  0.00000000000E+00  0.00000000000E+00  0.18927326526E+03  0.18927326526E+03  0.00000000000E+00 0. -1.
         21   -1    0    0  502  503 -0.00000000000E+00 -0.00000000000E+00 -0.40714683796E+03  0.40714683796E+03  0.00000000000E+00 0. -1.
         -6    2    1    2    0  503  0.18456028925E+03  0.11595487288E+03 -0.11961152196E+03  0.30225934044E+03  0.17188880063E+03 0.  0.
        -24    2    3    3    0    0  0.12473736674E+03  0.17348305673E+01 -0.70964890951E+02  0.16436958435E+03  0.80118189032E+02 0.  0.
          6    2    1    2  501    0 -0.18456028925E+03 -0.11595487288E+03 -0.98262050739E+02  0.29416076278E+03  0.17136829003E+03 0.  0.
         24    2    5    5    0    0 -0.12412620723E+03 -0.24916952203E+02 -0.10665811303E+03  0.18446680153E+03  0.81387210079E+02 0.  0.
          5    1    5    5  501    0 -0.60434082020E+02 -0.91037920680E+02  0.83960622876E+01  0.10969396124E+03  0.47000000000E+01 0. -1.
        -11    1    6    6    0    0  0.23177924621E+01  0.12579937046E+02  0.27769497765E+01  0.13089630554E+02  0.00000000000E+00 0.  1.
         12    1    6    6    0    0 -0.12644399969E+03 -0.37496889249E+02 -0.10943506280E+03  0.17137717098E+03  0.00000000000E+00 0. -1.
         -5    1    3    3    0  503  0.59822922506E+02  0.11422004232E+03 -0.48646631010E+02  0.13788975608E+03  0.47000000000E+01 0.  1.
         13    1    4    4    0    0  0.32984821090E+02  0.15056294689E+01  0.17107090687E+02  0.37187604039E+02  0.00000000000E+00 0. -1.
        -14    1    4    4    0    0  0.91752545655E+02  0.22920109837E+00 -0.88071981638E+02  0.12718198032E+03  0.00000000000E+00 0.  1.
</event>
<event>
12    1  0.8052519E-002  0.2195121E+03  0.7818608E-02  0.1134389E+00
         21   -1    0    0  503  502  0.00000000000E+00  0.00000000000E+00  0.56373731599E+03  0.56373731599E+03  0.00000000000E+00 0. -1.
         21   -1    0    0  501  503 -0.00000000000E+00 -0.00000000000E+00 -0.11657084780E+03  0.11657084780E+03  0.00000000000E+00 0. -1.
          6    2    1    2  501    0  0.11254418029E+02 -0.13517354101E+03  0.46790930965E+02  0.22370535807E+03  0.17162793447E+03 0.  0.
         24    2    3    3    0    0  0.72923594436E+02 -0.74513716489E+02  0.34503365569E+02  0.13620806729E+03  0.80573015262E+02 0.  0.
         -6    2    1    2    0  502 -0.11254418029E+02  0.13517354101E+03  0.40037553722E+03  0.45660280572E+03  0.17258911692E+03 0.  0.
        -24    2    5    5    0    0 -0.13856663756E+02  0.13908829567E+03  0.20342412868E+03  0.25953925173E+03  0.80260114251E+02 0.  0.
          5    1    3    3  501    0 -0.61669176407E+02 -0.60659824524E+02  0.12287565395E+02  0.87497290777E+02  0.47000000000E+01 0. -1.
        -11    1    4    4    0    0  0.25804100334E+01 -0.14833993181E+02 -0.23010524969E+02  0.27498911414E+02  0.00000000000E+00 0.  1.
         12    1    4    4    0    0  0.70343184402E+02 -0.59679723308E+02  0.57513890538E+02  0.10870915587E+03  0.00000000000E+00 0. -1.
         -5    1    5    5    0  502  0.26022457274E+01 -0.39147546526E+01  0.19695140854E+03  0.19706355399E+03  0.47000000000E+01 0.  1.
         11    1    6    6    0    0  0.14803328871E+02  0.36376410588E+01  0.52780634384E+02  0.54937840730E+02  0.00000000000E+00 0. -1.
        -12    1    6    6    0    0 -0.28659992627E+02  0.13545065461E+03  0.15064349429E+03  0.20460141100E+03  0.00000000000E+00 0.  1.
</event>
<event>
12    1  0.8052519E-002  0.1831225E+03  0.7818608E-02  0.1165094E+00
         21   -1    0    0  501  502  0.00000000000E+00  0.00000000000E+00  0.32007795218E+03  0.32007795218E+03  0.00000000000E+00 0.  1.
         21   -1    0    0  502  503 -0.00000000000E+00 -0.00000000000E+00 -0.10566881108E+03  0.10566881108E+03  0.00000000000E+00 0.  1.
         -6    2    1    2    0  503 -0.57058628040E+02 -0.25780306737E+02  0.80896424017E+02  0.19912042346E+03  0.17083442385E+03 0.  0.
        -24    2    3    3    0    0 -0.40020908086E+02 -0.90783002244E+01  0.12161837771E+03  0.15169038619E+03  0.80838449069E+02 0.  0.
          6    2    1    2  501    0  0.57058628040E+02  0.25780306737E+02  0.13351271709E+03  0.22662633979E+03  0.17208585362E+03 0.  0.
         24    2    5    5    0    0  0.11852248804E+02  0.80011042813E+02  0.94197793787E+02  0.14567979785E+03  0.76204569240E+02 0.  0.
          5    1    5    5  501    0  0.45206379236E+02 -0.54230736076E+02  0.39314923299E+02  0.80946541945E+02  0.47000000000E+01 0. -1.
        -11    1    6    6    0    0  0.28248884149E+02 -0.10285250596E+01  0.20475814835E+02  0.34904388158E+02  0.00000000000E+00 0.  1.
         12    1    6    6    0    0 -0.16396635346E+02  0.81039567872E+02  0.73721978952E+02  0.11077540969E+03  0.00000000000E+00 0. -1.
         -5    1    3    3    0  503 -0.17037719954E+02 -0.16702006513E+02 -0.40721953692E+02  0.47430037269E+02  0.47000000000E+01 0.  1.
         13    1    4    4    0    0 -0.12180071744E+02 -0.25526416279E+02  0.26518970903E+01  0.28407474965E+02  0.00000000000E+00 0. -1.
        -14    1    4    4    0    0 -0.27840836342E+02  0.16448116054E+02  0.11896648062E+03  0.12328291123E+03  0.00000000000E+00 0.  1.
</event>
<event>
12    1  0.8052519E-002  0.1815697E+03  0.7818608E-02  0.1166382E+00
         21   -1    0    0  501  502  0.00000000000E+00  0.00000000000E+00  0.17275660140E+03  0.17275660140E+03  0.00000000000E+00 0. -1.
         21   -1    0    0  502  503 -0.00000000000E+00 -0.00000000000E+00 -0.19338673234E+03  0.19338673234E+03  0.00000000000E+00 0. -1.
         -6    2    1    2    0  503 -0.55378756983E+02 -0.11835144492E+02 -0.32908475957E+02  0.18415898950E+03  0.17211823917E+03 0.  0.
        -24    2    3    3    0    0 -0.91588052090E+02 -0.44795341303E+02 -0.30837963886E+02  0.13492622961E+03  0.82819765346E+02 0.  0.
          6    2    1    2  501    0  0.55378756983E+02  0.11835144492E+02  0.12278345022E+02  0.18198434424E+03  0.17251280075E+03 0.  0.
         24    2    5    5    0    0  0.45486721454E+02 -0.58062500544E+02  0.22628292517E+02  0.11048088585E+03  0.79080280212E+02 0.  0.
          5    1    5    5  501    0  0.98920355289E+01  0.69897645036E+02 -0.10349947494E+02  0.71503458389E+02  0.47000000000E+01 0. -1.
        -13    1    6    6    0    0  0.21575903886E+01 -0.42224230276E+02 -0.20803316399E+02  0.47120258827E+02  0.00000000000E+00 0.  1.
         14    1    6    6    0    0  0.43329131065E+02 -0.15838270267E+02  0.43431608916E+02  0.63360627025E+02  0.00000000000E+00 0. -1.
         -5    1    3    3    0  503  0.36209295108E+02  0.32960196812E+02 -0.20705120711E+01  0.49232759889E+02  0.47000000000E+01 0.  1.
         13    1    4    4    0    0 -0.66331394749E+02 -0.22918257593E+02 -0.58643735377E+02  0.91455935616E+02  0.00000000000E+00 0. -1.
        -14    1    4    4    0    0 -0.25256657341E+02 -0.21877083710E+02  0.27805771491E+02  0.43470293994E+02  0.00000000000E+00 0.  1.
</event>
<event>
12    1  0.8052519E-002  0.2513267E+03  0.7818608E-02  0.1112500E+00
         21   -1    0    0  501  502  0.00000000000E+00  0.00000000000E+00  0.12168551132E+03  0.12168551132E+03  0.00000000000E+00 0. -1.
         21   -1    0    0  502  503 -0.00000000000E+00 -0.00000000000E+00 -0.53118397294E+03  0.53118397294E+03  0.00000000000E+00 0. -1.
         -6    2    1    2    0  503 -0.14132438188E+03  0.11551779068E+03 -0.15475054801E+03  0.29514888989E+03  0.17276629942E+03 0.  0.
        -24    2    3    3    0    0 -0.15058475528E+03  0.14231121125E+03 -0.14371359126E+03  0.26436664962E+03  0.79422161564E+02 0.  0.
          6    2    1    2  501    0  0.14132438188E+03 -0.11551779068E+03 -0.25474791361E+03  0.35772059438E+03  0.17248357393E+03 0.  0.
         24    2    5    5    0    0  0.49060423527E+02 -0.12569417203E+03 -0.14334736068E+03  0.21264003075E+03  0.80382627631E+02 0.  0.
          5    1    5    5  501    0  0.92263958352E+02  0.10176381353E+02 -0.11140055294E+03  0.14508056363E+03  0.47000000000E+01 0. -1.
        -13    1    6    6    0    0 -0.10211493982E+02  0.37615332259E+01 -0.40981236837E+00  0.10889981071E+02  0.00000000000E+00 0.  1.
         14    1    6    6    0    0  0.59271917509E+02 -0.12945570526E+03 -0.14293754831E+03  0.20175004968E+03  0.00000000000E+00 0. -1.
         -5    1    3    3    0  503  0.92603734040E+01 -0.26793420572E+02 -0.11036956750E+02  0.30782240267E+02  0.47000000000E+01 0.  1.
         11    1    4    4    0    0  0.73146907115E+01  0.22254815573E+02 -0.12693853881E+02  0.26644238453E+02  0.00000000000E+00 0. -1.
        -12    1    4    4    0    0 -0.15789944599E+03  0.12005639568E+03 -0.13101973738E+03  0.23772241117E+03  0.00000000000E+00 0.  1.
</event>
<event>
12    1  0.8052519E-002  0.2984682E+03  0.7818608E-02  0.1086361E+00
         21   -1    0    0  501  502  0.00000000000E+00  0.00000000000E+00  0.11535673772E+04  0.11535673772E+04  0.00000000000E+00 0. -1.
         21   -1    0    0  502  503 -0.00000000000E+00 -0.00000000000E+00 -0.76527890781E+02  0.76527890781E+02  0.00000000000E+00 0. -1.
         -6    2    1    2    0  503  0.24551095676E+02  0.23927626120E+03  0.52525067500E+03  0.60275629518E+03  0.17196218861E+03 0.  0.
        -24    2    3    3    0    0  0.39647982673E+02  0.14189975567E+03  0.44603090775E+03  0.47623372268E+03  0.78405897509E+02 0.  0.
          6    2    1    2  501    0 -0.24551095676E+02 -0.23927626120E+03  0.55178881140E+03  0.62733897278E+03  0.17671278652E+03 0.  0.
         24    2    5    5    0    0  0.35669167789E+02 -0.63705554636E+02  0.26648033655E+03  0.28693543439E+03  0.77391772924E+02 0.  0.
          5    1    5    5  501    0 -0.60220263466E+02 -0.17557070656E+03  0.28530847484E+03  0.34040353840E+03  0.47000000000E+01 0. -1.
        -11    1    6    6    0    0  0.39069480128E+02 -0.59683604372E+02  0.11475991806E+03  0.13512363117E+03  0.00000000000E+00 0.  1.
         12    1    6    6    0    0 -0.34003123389E+01 -0.40219502639E+01  0.15172041849E+03  0.15181180321E+03  0.00000000000E+00 0. -1.
         -5    1    3    3    0  503 -0.15096886997E+02  0.97376505533E+02  0.79219767251E+02  0.12652257249E+03  0.47000000000E+01 0.  1.
         11    1    4    4    0    0  0.10573979710E+02  0.95127284263E+02  0.37108093488E+03  0.38322587268E+03  0.00000000000E+00 0. -1.
        -12    1    4    4    0    0  0.29074002963E+02  0.46772471403E+02  0.74949972871E+02  0.93007850007E+02  0.00000000000E+00 0.  1.
</event>
<event>
12    1  0.8052519E-002  0.1927713E+03  0.7818608E-02  0.1156008E+00
         21   -1    0    0  501  502  0.00000000000E+00  0.00000000000E+00  0.38335378642E+02  0.38335378642E+02  0.00000000000E+00 0. -1.
         21   -1    0    0  502  503 -0.00000000000E+00 -0.00000000000E+00 -0.13014694803E+04  0.13014694803E+04  0.00000000000E+00 0.  1.
         -6    2    1    2    0  503  0.71404458756E+02 -0.50300189886E+02 -0.97010927563E+03  0.98905660863E+03  0.17173311443E+03 0.  0.
        -24    2    3    3    0    0  0.24603635859E+02  0.32696363709E+02 -0.32080973246E+03  0.33278628957E+03  0.78443858811E+02 0.  0.
          6    2    1    2  501    0 -0.71404458756E+02  0.50300189886E+02 -0.29302482606E+03  0.35074825034E+03  0.17184900522E+03 0.  0.
         24    2    5    5    0    0 -0.42873307483E+02  0.73875650572E+02 -0.29059721817E+03  0.31336092335E+03  0.80328032652E+02 0.  0.
          5    1    5    5  501    0 -0.28531151274E+02 -0.23575460686E+02 -0.24276078898E+01  0.37387326992E+02  0.47000000000E+01 0. -1.
        -11    1    6    6    0    0 -0.32761392908E+02  0.32088483079E+02 -0.25019504958E+03  0.25436301313E+03  0.00000000000E+00 0.  1.
         12    1    6    6    0    0 -0.10111914574E+02  0.41787167493E+02 -0.40402168586E+02  0.58997910216E+02  0.00000000000E+00 0. -1.
         -5    1    3    3    0  503  0.46800822897E+02 -0.82996553595E+02 -0.64929954316E+03  0.65627031906E+03  0.47000000000E+01 0.  1.
         11    1    4    4    0    0 -0.10730580292E+01  0.13140570887E+02 -0.32346595161E+01  0.13575311376E+02  0.00000000000E+00 0. -1.
        -12    1    4    4    0    0  0.25676693889E+02  0.19555792821E+02 -0.31757507295E+03  0.31921097819E+03  0.00000000000E+00 0.  1.
</event>
<event>
12    1  0.8052519E-002  0.2168114E+03  0.7818608E-02  0.1136380E+00
         21   -1    0    0  503  502  0.00000000000E+00  0.00000000000E+00  0.14730459981E+04  0.14730459981E+04  0.00000000000E+00 0. -1.
         21   -1    0    0  501  503 -0.00000000000E+00 -0.00000000000E+00 -0.32312150974E+02  0.32312150974E+02  0.00000000000E+00 0. -1.
          6    2    1    2  501    0 -0.12625358804E+03  0.34392457804E+02  0.81249440018E+03  0.84092469552E+03  0.17287100265E+03 0.  0.
         24    2    3    3    0    0 -0.20731607234E+02  0.58199366702E+02  0.28272571085E+03  0.30020423952E+03  0.79823505457E+02 0.  0.
         -6    2    1    2    0  502  0.12625358804E+03 -0.34392457804E+02  0.62823944693E+03  0.66443345354E+03  0.17223298714E+03 0.  0.
        -24    2    5    5    0    0  0.14553362782E+03 -0.49530573009E+02  0.39808457443E+03  0.43292916028E+03  0.72958994844E+02 0.  0.
          5    1    3    3  501    0 -0.10552198081E+03 -0.23806908898E+02  0.52976868933E+03  0.54072045600E+03  0.47000000000E+01 0. -1.
        -13    1    4    4    0    0  0.32368058000E+01 -0.18028091045E+02  0.30026299604E+02  0.35171972456E+02  0.00000000000E+00 0.  1.
         14    1    4    4    0    0 -0.23968413034E+02  0.76227457747E+02  0.25269941125E+03  0.26503226706E+03  0.00000000000E+00 0. -1.
         -5    1    5    5    0  502 -0.19280039775E+02  0.15138115205E+02  0.23015487249E+03  0.23150429326E+03  0.47000000000E+01 0.  1.
         11    1    6    6    0    0  0.85247737011E+01 -0.17866916490E+02  0.14959638530E+02  0.24813086395E+02  0.00000000000E+00 0. -1.
        -12    1    6    6    0    0  0.13700885412E+03 -0.31663656519E+02  0.38312493590E+03  0.40811607388E+03  0.00000000000E+00 0.  1.
</event>
<event>
12    1  0.8052519E-002  0.2095683E+03  0.7818608E-02  0.1141941E+00
         21   -1    0    0  501  502  0.00000000000E+00  0.00000000000E+00  0.80940429310E+02  0.80940429310E+02  0.00000000000E+00 0.  1.
         21   -1    0    0  502  503 -0.00000000000E+00 -0.00000000000E+00 -0.76433345463E+03  0.76433345463E+03  0.00000000000E+00 0.  1.
         -6    2    1    2    0  503  0.29232350737E+01  0.11948399696E+03 -0.56945233712E+03  0.60673380414E+03  0.17194468294E+03 0.  0.
        -24    2    3    3    0    0  0.59753898951E+02  0.11042106864E+03 -0.46108445921E+03  0.48394313678E+03  0.76411650084E+02 0.  0.
          6    2    1    2  501    0 -0.29232350737E+01 -0.11948399696E+03 -0.11394068820E+03  0.23854007981E+03  0.17214505051E+03 0.  0.
         24    2    5    5    0    0  0.12864192083E+02 -0.38977477995E+02 -0.12636239285E+03  0.15543213074E+03  0.80665740633E+02 0.  0.
          5    1    5    5  501    0 -0.15787427157E+02 -0.80506518964E+02  0.12421704648E+02  0.83107949068E+02  0.47000000000E+01 0. -1.
        -11    1    6    6    0    0  0.44567669835E+02 -0.37756745684E+02 -0.88440170348E+02  0.10598826714E+03  0.00000000000E+00 0.  1.
         12    1    6    6    0    0 -0.31703477752E+02 -0.12207323109E+01 -0.37922222498E+02  0.49443863605E+02  0.00000000000E+00 0. -1.
         -5    1    3    3    0  503 -0.56830663877E+02  0.90629283152E+01 -0.10836787791E+03  0.12279066735E+03  0.47000000000E+01 0.  1.
         11    1    4    4    0    0  0.64427917117E+02  0.52196616038E+02 -0.33300050516E+03  0.34316873352E+03  0.00000000000E+00 0. -1.
        -12    1    4    4    0    0 -0.46740181658E+01  0.58224452606E+02 -0.12808395406E+03  0.14077440326E+03  0.00000000000E+00 0.  1.
</event>
<event>
12    1  0.8052519E-002  0.1850628E+03  0.7818608E-02  0.1165180E+00
         21   -1    0    0  501  502  0.00000000000E+00  0.00000000000E+00  0.75007765945E+02  0.75007765945E+02  0.00000000000E+00 0. -1.
         21   -1    0    0  502  503 -0.00000000000E+00 -0.00000000000E+00 -0.43803946308E+03  0.43803946308E+03  0.00000000000E+00 0. -1.
         -6    2    1    2    0  503 -0.27282782975E+02  0.42527521871E+02 -0.20961327234E+03  0.27961754010E+03  0.17803175119E+03 0.  0.
        -24    2    3    3    0    0 -0.62414447603E+02  0.41215497134E+02 -0.21776072736E+03  0.24322487200E+03  0.78385735353E+02 0.  0.
          6    2    1    2  501    0  0.27282782975E+02 -0.42527521871E+02 -0.15341842480E+03  0.23342968893E+03  0.16852081842E+03 0.  0.
         24    2    5    5    0    0  0.10538980240E+02  0.40669253345E+02 -0.92517869092E+02  0.12886857750E+03  0.79262197130E+02 0.  0.
          5    1    5    5  501    0  0.16743802735E+02 -0.83196775216E+02 -0.60900555712E+02  0.10456111142E+03  0.47000000000E+01 0. -1.
        -11    1    6    6    0    0  0.26744300677E+02  0.20782422866E+00 -0.78737764323E+02  0.83156096230E+02  0.00000000000E+00 0.  1.
         12    1    6    6    0    0 -0.16205320437E+02  0.40461429116E+02 -0.13780104769E+02  0.45712481272E+02  0.00000000000E+00 0. -1.
         -5    1    3    3    0  503  0.35131664628E+02  0.13120247370E+01  0.81474550192E+01  0.36392668104E+02  0.47000000000E+01 0.  1.
         11    1    4    4    0    0 -0.66645253717E+01  0.33065804852E+02 -0.15608562429E+03  0.15968871425E+03  0.00000000000E+00 0. -1.
        -12    1    4    4    0    0 -0.55749922231E+02  0.81496922821E+01 -0.61675103063E+02  0.83536157746E+02  0.00000000000E+00 0.  1.
</event>
<event>
12    1  0.8052519E-002  0.1879338E+03  0.7818608E-02  0.1160742E+00
         21   -1    0    0  501  502  0.00000000000E+00  0.00000000000E+00  0.47429143127E+03  0.47429143127E+03  0.00000000000E+00 0.  1.
         21   -1    0    0  502  503 -0.00000000000E+00 -0.00000000000E+00 -0.95360950904E+02  0.95360950904E+02  0.00000000000E+00 0. -1.
         -6    2    1    2    0  503 -0.60691012766E+02  0.44452291046E+02  0.54633159072E+02  0.19571378270E+03  0.17221991017E+03 0.  0.
        -24    2    3    3    0    0 -0.74590467676E+02 -0.20315325448E+01 -0.15504776028E+02  0.11030089935E+03  0.79737226725E+02 0.  0.
          6    2    1    2  501    0  0.60691012766E+02 -0.44452291046E+02  0.32429732129E+03  0.37393859947E+03  0.17029949608E+03 0.  0.
         24    2    5    5    0    0 -0.31548923470E+02 -0.58734491267E+02  0.20746653825E+03  0.22432673849E+03  0.53245150674E+02 0.  0.
          5    1    5    5  501    0  0.92239936235E+02  0.14282200221E+02  0.11683078304E+03  0.14961186098E+03  0.47000000000E+01 0. -1.
        -11    1    6    6    0    0 -0.17497149256E+02 -0.34377581816E+02  0.18309853208E+03  0.18711771914E+03  0.00000000000E+00 0.  1.
         12    1    6    6    0    0 -0.14051774214E+02 -0.24356909451E+02  0.24368006168E+02  0.37209019352E+02  0.00000000000E+00 0. -1.
         -5    1    3    3    0  503  0.13899454910E+02  0.46483823590E+02  0.70137935100E+02  0.85412883352E+02  0.47000000000E+01 0.  1.
         13    1    4    4    0    0 -0.39681974835E+02  0.19801250894E+02 -0.42210462507E+02  0.61224764670E+02  0.00000000000E+00 0. -1.
        -14    1    4    4    0    0 -0.34908492841E+02 -0.21832783439E+02  0.26705686480E+02  0.49076134683E+02  0.00000000000E+00 0.  1.
</event>
<event>
12    1  0.8052519E-002  0.1981252E+03  0.7818608E-02  0.1151838E+00
         21   -1    0    0  503  502  0.00000000000E+00  0.00000000000E+00  0.37969486191E+03  0.37969486191E+03  0.00000000000E+00 0.  1.
         21   -1    0    0  501  503 -0.00000000000E+00 -0.00000000000E+00 -0.10636537413E+03  0.10636537413E+03  0.00000000000E+00 0.  1.
          6    2    1    2  501    0 -0.71891627139E+02  0.58648545820E+02  0.89091220650E+02  0.21723454767E+03  0.17505869051E+03 0.  0.
         24    2    3    3    0    0 -0.61362970124E+02  0.76199967107E+02  0.49517597092E+00  0.12618371494E+03  0.79688365698E+02 0.  0.
         -6    2    1    2    0  502  0.71891627139E+02 -0.58648545820E+02  0.18423826712E+03  0.26882568837E+03  0.17238170923E+03 0.  0.
        -24    2    5    5    0    0 -0.17304824113E+02 -0.58024725079E+02  0.68115908530E+02  0.12232351012E+03  0.81590063574E+02 0.  0.
          5    1    3    3  501    0 -0.10528657016E+02 -0.17551421286E+02  0.88596044679E+02  0.91050832728E+02  0.47000000000E+01 0. -1.
        -13    1    4    4    0    0 -0.59382062718E+01  0.63978310168E+02  0.18110197627E+02  0.66756765378E+02  0.00000000000E+00 0.  1.
         14    1    4    4    0    0 -0.55424763852E+02  0.12221656938E+02 -0.17615021656E+02  0.59426949562E+02  0.00000000000E+00 0. -1.
         -5    1    5    5    0  502  0.89196451252E+02 -0.62382074116E+00  0.11612235859E+03  0.14650217826E+03  0.47000000000E+01 0.  1.
         13    1    6    6    0    0 -0.20593297885E+02 -0.40175653910E+02  0.85819338618E+02  0.96969716745E+02  0.00000000000E+00 0. -1.
        -14    1    6    6    0    0  0.32884737726E+01 -0.17849071170E+02 -0.17703430088E+02  0.25353793370E+02  0.00000000000E+00 0.  1.
</event>
<event>
12    1  0.8052519E-002  0.2125769E+03  0.7818608E-02  0.1140920E+00
         21   -1    0    0  503  502  0.00000000000E+00  0.00000000000E+00  0.45952828349E+03  0.45952828349E+03  0.00000000000E+00 0.  1.
         21   -1    0    0  501  503 -0.00000000000E+00 -0.00000000000E+00 -0.95204513880E+02  0.95204513880E+02  0.00000000000E+00 0.  1.
          6    2    1    2  501    0 -0.22491717063E+02  0.12531865378E+03  0.17843228397E+03  0.27753743477E+03  0.17023015425E+03 0.  0.
         24    2    3    3    0    0 -0.68055746805E+02  0.11949950286E+03  0.10470548596E+03  0.19054505540E+03  0.80202640178E+02 0.  0.
         -6    2    1    2    0  502  0.22491717063E+02 -0.12531865378E+03  0.18589148565E+03  0.27719536260E+03  0.16146511169E+03 0.  0.
        -24    2    5    5    0    0 -0.37474056197E+02 -0.64333764889E+02  0.14792584168E+03  0.18350154874E+03  0.79041922800E+02 0.  0.
          5    1    3    3  501    0  0.45564029742E+02  0.58191509195E+01  0.73726798005E+02  0.86992379367E+02  0.47000000000E+01 0. -1.
        -13    1    4    4    0    0 -0.15712411352E+02  0.10224225151E+03  0.76320870942E+02  0.12855050838E+03  0.00000000000E+00 0.  1.
         14    1    4    4    0    0 -0.52343335453E+02  0.17257251349E+02  0.28384615021E+02  0.61994547021E+02  0.00000000000E+00 0. -1.
         -5    1    5    5    0  502  0.59965773260E+02 -0.60984888887E+02  0.37965643967E+02  0.93693813867E+02  0.47000000000E+01 0.  1.
         13    1    6    6    0    0  0.19948224959E+02 -0.24585809891E+02  0.19132940022E+02  0.36992744166E+02  0.00000000000E+00 0. -1.
        -14    1    6    6    0    0 -0.57422281157E+02 -0.39747954997E+02  0.12879290166E+03  0.14650880457E+03  0.00000000000E+00 0.  1.
</event>
<event>
12    1  0.8052519E-002  0.2502502E+03  0.7818608E-02  0.1113423E+00
         21   -1    0    0  503  502  0.00000000000E+00  0.00000000000E+00  0.25017240329E+04  0.25017240329E+04  0.00000000000E+00 0.  1.
         21   -1    0    0  501  503 -0.00000000000E+00 -0.00000000000E+00 -0.15981805676E+03  0.15981805676E+03  0.00000000000E+00 0. -1.
          6    2    1    2  501    0 -0.17925355757E+03  0.44589209637E+01 -0.52585214698E+02  0.25400949118E+03  0.17205783018E+03 0.  0.
         24    2    3    3    0    0 -0.51826139923E+02  0.48382748471E+02 -0.51289693208E+02  0.11913615146E+03  0.80845227600E+02 0.  0.
         -6    2    1    2    0  502  0.17925355757E+03 -0.44589209637E+01  0.23944911909E+04  0.24075325985E+04  0.17456640532E+03 0.  0.
        -24    2    5    5    0    0  0.16384188881E+03 -0.53050255465E+02  0.15472328542E+04  0.15587290781E+04  0.77771070794E+02 0.  0.
          5    1    3    3  501    0 -0.12742741765E+03 -0.43923827508E+02 -0.12955214899E+01  0.13487333972E+03  0.47000000000E+01 0. -1.
        -11    1    4    4    0    0 -0.45719033994E+02  0.63541222763E+02 -0.15510828549E+02  0.79801646987E+02  0.00000000000E+00 0.  1.
         12    1    4    4    0    0 -0.61071059296E+01 -0.15158474292E+02 -0.35778864658E+02  0.39334504470E+02  0.00000000000E+00 0. -1.
         -5    1    5    5    0  502  0.15411668762E+02  0.48591334501E+02  0.84725833665E+03  0.84880352046E+03  0.47000000000E+01 0.  1.
         11    1    6    6    0    0  0.16863908062E+02 -0.37512261824E+02  0.34971469039E+03  0.35212487253E+03  0.00000000000E+00 0. -1.
        -12    1    6    6    0    0  0.14697798075E+03 -0.15537993641E+02  0.11975181638E+04  0.12066042055E+04  0.00000000000E+00 0.  1.
</event>
<event>
12    1  0.8052519E-002  0.2751960E+03  0.7818608E-02  0.1098348E+00
         21   -1    0    0  503  502  0.00000000000E+00  0.00000000000E+00  0.57156713072E+03  0.57156713072E+03  0.00000000000E+00 0. -1.
         21   -1    0    0  501  503 -0.00000000000E+00 -0.00000000000E+00 -0.16125292437E+03  0.16125292437E+03  0.00000000000E+00 0. -1.
          6    2    1    2  501    0  0.20057001654E+03  0.76941785338E+02  0.50362344368E+02  0.27972164859E+03  0.17192866281E+03 0.  0.
         24    2    3    3    0    0  0.78239919949E+02  0.68377011038E+01 -0.25891926974E+02  0.11935943653E+03  0.86069994637E+02 0.  0.
         -6    2    1    2    0  502 -0.20057001654E+03 -0.76941785338E+02  0.35995186199E+03  0.45309840650E+03  0.17200131733E+03 0.  0.
        -24    2    5    5    0    0 -0.73901375708E+02 -0.90972432057E+02  0.23545820556E+03  0.27487785744E+03  0.79874108566E+02 0.  0.
          5    1    3    3  501    0  0.12233009659E+03  0.70104084234E+02  0.76254271342E+02  0.16036221206E+03  0.47000000000E+01 0. -1.
        -11    1    4    4    0    0 -0.12374908818E+02 -0.14230581564E+02  0.78091882268E+01  0.20411546748E+02  0.00000000000E+00 0.  1.
         12    1    4    4    0    0  0.90614828767E+02  0.21068282668E+02 -0.33701115201E+02  0.98947889784E+02  0.00000000000E+00 0. -1.
         -5    1    5    5    0  502 -0.12666864083E+03  0.14030646720E+02  0.12449365643E+03  0.17822054906E+03  0.47000000000E+01 0.  1.
         13    1    6    6    0    0 -0.70592112871E+02 -0.24220626932E+02  0.11428005008E+03  0.13649108035E+03  0.00000000000E+00 0. -1.
        -14    1    6    6    0    0 -0.33092628367E+01 -0.66751805125E+02  0.12117815548E+03  0.13838677709E+03  0.00000000000E+00 0.  1.
</event>
<event>
12    1  0.8052519E-002  0.2123670E+03  0.7818608E-02  0.1139819E+00
         21   -1    0    0  503  502  0.00000000000E+00  0.00000000000E+00  0.60418658792E+03  0.60418658792E+03  0.00000000000E+00 0. -1.
         21   -1    0    0  501  503 -0.00000000000E+00 -0.00000000000E+00 -0.15356224144E+03  0.15356224144E+03  0.00000000000E+00 0. -1.
          6    2    1    2  501    0  0.46225947774E+02 -0.11535562154E+03 -0.46793655985E+02  0.21689357825E+03  0.17149175017E+03 0.  0.
         24    2    3    3    0    0  0.12104763631E+02 -0.10605642231E+03 -0.89188736727E+02  0.16148452498E+03  0.82025185353E+02 0.  0.
         -6    2    1    2    0  502 -0.46225947774E+02  0.11535562154E+03  0.49741800247E+03  0.54085525111E+03  0.17220910488E+03 0.  0.
        -24    2    5    5    0    0 -0.97776456054E+02  0.80714038551E+02  0.36552308838E+03  0.39499280722E+03  0.79606521315E+02 0.  0.
          5    1    3    3  501    0  0.34121184143E+02 -0.92991992271E+01  0.42395080741E+02  0.55409053273E+02  0.47000000000E+01 0. -1.
        -13    1    4    4    0    0  0.26844607301E+01  0.12049654974E+02  0.12821913368E+01  0.12411467642E+02  0.00000000000E+00 0.  1.
         14    1    4    4    0    0  0.94203029011E+01 -0.11810607729E+03 -0.90470928064E+02  0.14907305733E+03  0.00000000000E+00 0. -1.
         -5    1    5    5    0  502  0.51550508280E+02  0.34641582987E+02  0.13189491409E+03  0.14586244390E+03  0.47000000000E+01 0.  1.
         11    1    6    6    0    0 -0.46064767442E+02  0.39966929153E+02  0.72856602775E+02  0.95012645439E+02  0.00000000000E+00 0. -1.
        -12    1    6    6    0    0 -0.51711688612E+02  0.40747109398E+02  0.29266648560E+03  0.29998016178E+03  0.00000000000E+00 0.  1.
</event>
<event>
12    1  0.8052519E-002  0.3381471E+03  0.7818608E-02  0.1067591E+00
         21   -1    0    0  501  502  0.00000000000E+00  0.00000000000E+00  0.57406274278E+03  0.57406274278E+03  0.00000000000E+00 0. -1.
         21   -1    0    0  502  503 -0.00000000000E+00 -0.00000000000E+00 -0.22501097461E+03  0.22501097461E+03  0.00000000000E+00 0.  1.
         -6    2    1    2    0  503 -0.25832376803E+03  0.13547301313E+03  0.30992311656E+03  0.45867023894E+03  0.17100275871E+03 0.  0.
        -24    2    3    3    0    0 -0.22324117583E+03  0.45033768968E+02  0.22485394952E+03  0.32956215111E+03  0.78659073829E+02 0.  0.
          6    2    1    2  501    0  0.25832376803E+03 -0.13547301313E+03  0.39128651614E+02  0.34040347846E+03  0.17105370604E+03 0.  0.
         24    2    5    5    0    0  0.17986510505E+03 -0.94413536972E+02  0.90359172853E+02  0.23799108327E+03  0.84909384771E+02 0.  0.
          5    1    5    5  501    0  0.78458662989E+02 -0.41059476162E+02 -0.51230521239E+02  0.10241239518E+03  0.47000000000E+01 0. -1.
        -11    1    6    6    0    0  0.35887543933E+01 -0.19335419137E+02 -0.96012240075E+01  0.21884265895E+02  0.00000000000E+00 0.  1.
         12    1    6    6    0    0  0.17627635065E+03 -0.75078117835E+02  0.99960396861E+02  0.21610681738E+03  0.00000000000E+00 0. -1.
         -5    1    3    3    0  503 -0.35082592205E+02  0.90439244166E+02  0.85069167038E+02  0.12910808782E+03  0.47000000000E+01 0.  1.
         11    1    4    4    0    0 -0.16314998871E+03  0.39000742231E+00  0.17695874171E+03  0.24069164337E+03  0.00000000000E+00 0. -1.
        -12    1    4    4    0    0 -0.60091187123E+02  0.44643761546E+02  0.47895207817E+02  0.88870507743E+02  0.00000000000E+00 0.  1.
</event>
<event>
12    1  0.8052519E-002  0.1755469E+03  0.7818608E-02  0.1172456E+00
         21   -1    0    0  503  502  0.00000000000E+00  0.00000000000E+00  0.14478674761E+03  0.14478674761E+03  0.00000000000E+00 0. -1.
         21   -1    0    0  501  503 -0.00000000000E+00 -0.00000000000E+00 -0.54340439545E+03  0.54340439545E+03  0.00000000000E+00 0. -1.
          6    2    1    2  501    0  0.78098475833E+01  0.30999863637E+02 -0.46845710699E+03  0.50026871051E+03  0.17261151862E+03 0.  0.
         24    2    3    3    0    0 -0.60581884664E+02 -0.35471611579E+00 -0.25942251715E+03  0.27805690060E+03  0.79657435284E+02 0.  0.
         -6    2    1    2    0  502 -0.78098475833E+01 -0.30999863637E+02  0.69839459139E+02  0.18792243256E+03  0.17150890746E+03 0.  0.
        -24    2    5    5    0    0 -0.67360221156E+02 -0.43576090366E+02  0.37929988727E+02  0.11904055705E+03  0.79345416576E+02 0.  0.
          5    1    3    3  501    0  0.68391732247E+02  0.31354579753E+02 -0.20903458984E+03  0.22221180990E+03  0.47000000000E+01 0. -1.
        -13    1    4    4    0    0 -0.26711840282E+01 -0.10981633248E+02  0.72961690081E+00  0.11325362410E+02  0.00000000000E+00 0.  1.
         14    1    4    4    0    0 -0.57910700635E+02  0.10626917132E+02 -0.26015213405E+03  0.26673153819E+03  0.00000000000E+00 0. -1.
         -5    1    5    5    0  502  0.59550373573E+02  0.12576226729E+02  0.31909470412E+02  0.68881875507E+02  0.47000000000E+01 0.  1.
         13    1    6    6    0    0 -0.28521674694E+02  0.18319111534E+02  0.30487010192E+02  0.45590937314E+02  0.00000000000E+00 0. -1.
        -14    1    6    6    0    0 -0.38838546463E+02 -0.61895201900E+02  0.74429785349E+01  0.73449619734E+02  0.00000000000E+00 0.  1.
</event>
<event>
12    1  0.8052519E-002  0.2307607E+03  0.7818608E-02  0.1126324E+00
         21   -1    0    0  501  502  0.00000000000E+00  0.00000000000E+00  0.17340230723E+03  0.17340230723E+03  0.00000000000E+00 0.  1.
         21   -1    0    0  502  503 -0.00000000000E+00 -0.00000000000E+00 -0.30758977408E+03  0.30758977408E+03  0.00000000000E+00 0. -1.
         -6    2    1    2    0  503  0.13628742225E+03  0.68481512035E+02 -0.47150568583E+02  0.23552846293E+03  0.17316611036E+03 0.  0.
        -24    2    3    3    0    0  0.12966960568E+02  0.70359424972E+02 -0.13255861287E+02  0.10753469742E+03  0.79179558866E+02 0.  0.
          6    2    1    2  501    0 -0.13628742225E+03 -0.68481512035E+02 -0.87036898263E+02  0.24546361838E+03  0.17150214965E+03 0.  0.
         24    2    5    5    0    0 -0.16177011342E+03 -0.31340604143E+02 -0.79146533234E+02  0.19949447167E+03  0.79887842888E+02 0.  0.
          5    1    5    5  501    0  0.25482691173E+02 -0.37140907892E+02 -0.78903650289E+01  0.45969146705E+02  0.47000000000E+01 0. -1.
        -13    1    6    6    0    0 -0.85987228628E+02 -0.17569504341E+01 -0.16377155599E-01  0.86005177926E+02  0.00000000000E+00 0.  1.
         14    1    6    6    0    0 -0.75782884792E+02 -0.29583653709E+02 -0.79130156078E+02  0.11348929375E+03  0.00000000000E+00 0. -1.
         -5    1    3    3    0  503  0.12332046168E+03 -0.18779129364E+01 -0.33894707297E+02  0.12799376551E+03  0.47000000000E+01 0.  1.
         13    1    4    4    0    0 -0.38596083007E+01  0.19151212423E+02 -0.42091594245E+02  0.46404394399E+02  0.00000000000E+00 0. -1.
        -14    1    4    4    0    0  0.16826568868E+02  0.51208212548E+02  0.28835732958E+02  0.61130303022E+02  0.00000000000E+00 0.  1.
</event>
<event>
12    1  0.8052519E-002  0.2281494E+03  0.7818608E-02  0.1128073E+00
         21   -1    0    0  501  502  0.00000000000E+00  0.00000000000E+00  0.29289129507E+03  0.29289129507E+03  0.00000000000E+00 0. -1.
         21   -1    0    0  502  503 -0.00000000000E+00 -0.00000000000E+00 -0.25143547120E+03  0.25143547120E+03  0.00000000000E+00 0. -1.
         -6    2    1    2    0  503 -0.14906754719E+03 -0.19329002262E+01 -0.12715752997E+03  0.26119183270E+03  0.17270572171E+03 0.  0.
        -24    2    3    3    0    0 -0.15103546998E+03 -0.43922760958E+02 -0.69268531015E+02  0.18949631453E+03  0.79811037525E+02 0.  0.
          6    2    1    2  501    0  0.14906754719E+03  0.19329002262E+01  0.16861335384E+03  0.28313493358E+03  0.17178491724E+03 0.  0.
         24    2    5    5    0    0  0.85618218298E+02  0.60605582054E+02  0.60085397604E+02  0.14432316097E+03  0.78837832966E+02 0.  0.
          5    1    5    5  501    0  0.63449328890E+02 -0.58672681828E+02  0.10852795624E+03  0.13881177261E+03  0.47000000000E+01 0. -1.
        -13    1    6    6    0    0  0.49925811621E+01 -0.11553364816E+02 -0.94205749695E+01  0.15721111220E+02  0.00000000000E+00 0.  1.
         14    1    6    6    0    0  0.80625637136E+02  0.72158946870E+02  0.69505972573E+02  0.12860204975E+03  0.00000000000E+00 0. -1.
         -5    1    3    3    0  503  0.19679227929E+01  0.41989860732E+02 -0.57888998959E+02  0.71695518165E+02  0.47000000000E+01 0.  1.
         11    1    4    4    0    0 -0.64966050339E+02 -0.12178076568E+02 -0.71973629403E+02  0.97719478995E+02  0.00000000000E+00 0. -1.
        -12    1    4    4    0    0 -0.86069419641E+02 -0.31744684391E+02  0.27050983884E+01  0.91776835539E+02  0.00000000000E+00 0.  1.
</event>
<event>
12    1  0.8052519E-002  0.2306595E+03  0.7818608E-02  0.1127942E+00
         21   -1    0    0  501  502  0.00000000000E+00  0.00000000000E+00  0.34324793624E+03  0.34324793624E+03  0.00000000000E+00 0. -1.
         21   -1    0    0  502  503 -0.00000000000E+00 -0.00000000000E+00 -0.52683506750E+03  0.52683506750E+03  0.00000000000E+00 0.  1.
         -6    2    1    2    0  503 -0.60777772316E+02  0.12527458612E+03 -0.45988898044E+03  0.51015729403E+03  0.17139116308E+03 0.  0.
        -24    2    3    3    0    0 -0.24881457907E+02  0.15329902249E+03 -0.39523747883E+03  0.43093721398E+03  0.73311257516E+02 0.  0.
          6    2    1    2  501    0  0.60777772316E+02 -0.12527458612E+03  0.27630184918E+03  0.35992570971E+03  0.18389166678E+03 0.  0.
         24    2    5    5    0    0  0.49518743389E+02 -0.16169834559E+02  0.21237469992E+03  0.23288483849E+03  0.80117197510E+02 0.  0.
          5    1    5    5  501    0  0.11259028928E+02 -0.10910475156E+03  0.63927149263E+02  0.12704087121E+03  0.47000000000E+01 0. -1.
        -13    1    6    6    0    0 -0.11752298757E+02  0.11883752057E+02  0.10351241030E+03  0.10485303608E+03  0.00000000000E+00 0.  1.
         14    1    6    6    0    0  0.61271042145E+02 -0.28053586616E+02  0.10886228962E+03  0.12803180241E+03  0.00000000000E+00 0. -1.
         -5    1    3    3    0  503 -0.35896314409E+02 -0.28024436370E+02 -0.64651501614E+02  0.79220080049E+02  0.47000000000E+01 0.  1.
         13    1    4    4    0    0  0.61557341609E+01  0.29039496515E+02 -0.23829251546E+02  0.38065977594E+02  0.00000000000E+00 0. -1.
        -14    1    4    4    0    0 -0.31037192068E+02  0.12425952597E+03 -0.37140822728E+03  0.39287123639E+03  0.00000000000E+00 0.  1.
</event>
<event>
12    1  0.8052519E-002  0.1738050E+03  0.7818608E-02  0.1174503E+00
         21   -1    0    0  501  502  0.00000000000E+00  0.00000000000E+00  0.42998774285E+03  0.42998774285E+03  0.00000000000E+00 0.  1.
         21   -1    0    0  502  503 -0.00000000000E+00 -0.00000000000E+00 -0.10870449459E+03  0.10870449459E+03  0.00000000000E+00 0.  1.
         -6    2    1    2    0  503 -0.12430624627E+02  0.20779075359E+02 -0.20589774446E+01  0.17159773524E+03  0.16986834005E+03 0.  0.
        -24    2    3    3    0    0 -0.28372118394E+02  0.48773949026E+02 -0.54256185277E+02  0.11007958604E+03  0.77394485701E+02 0.  0.
          6    2    1    2  501    0  0.12430624627E+02 -0.20779075359E+02  0.32334222571E+03  0.36709450220E+03  0.17211010494E+03 0.  0.
         24    2    5    5    0    0 -0.48565340086E+02 -0.39329331202E+02  0.24904705932E+03  0.26908184256E+03  0.80468700038E+02 0.  0.
          5    1    5    5  501    0  0.60995964713E+02  0.18550255843E+02  0.74295166383E+02  0.98012659646E+02  0.47000000000E+01 0. -1.
        -13    1    6    6    0    0 -0.49128729108E+02  0.11184377426E+02  0.10572413326E+03  0.11711667121E+03  0.00000000000E+00 0.  1.
         14    1    6    6    0    0  0.56338902267E+00 -0.50513708628E+02  0.14332292607E+03  0.15196517135E+03  0.00000000000E+00 0. -1.
         -5    1    3    3    0  503  0.15941493767E+02 -0.27994873667E+02  0.52197207833E+02  0.61518149197E+02  0.47000000000E+01 0.  1.
         13    1    4    4    0    0 -0.53152738580E+02  0.44770385291E+02 -0.31906282187E+02  0.76469679356E+02  0.00000000000E+00 0. -1.
        -14    1    4    4    0    0  0.24780620187E+02  0.40035637344E+01 -0.22349903090E+02  0.33609906687E+02  0.00000000000E+00 0.  1.
</event>
<event>
12    1  0.8052519E-002  0.1822763E+03  0.7818608E-02  0.1168033E+00
         21   -1    0    0  501  502  0.00000000000E+00  0.00000000000E+00  0.14427413358E+03  0.14427413358E+03  0.00000000000E+00 0.  1.
         21   -1    0    0  502  503 -0.00000000000E+00 -0.00000000000E+00 -0.23010681817E+03  0.23010681817E+03  0.00000000000E+00 0. -1.
         -6    2    1    2    0  503  0.58800250230E+02  0.19864327221E+02 -0.84687247664E+02  0.19210103760E+03  0.16086894606E+03 0.  0.
        -24    2    3    3    0    0  0.65862705244E+02  0.59114347723E+02 -0.27400079598E+02  0.12214139205E+03  0.79594932264E+02 0.  0.
          6    2    1    2  501    0 -0.58800250230E+02 -0.19864327221E+02 -0.11454369273E+01  0.18227991414E+03  0.17138434628E+03 0.  0.
         24    2    5    5    0    0 -0.71958924831E+01 -0.23626696967E+02  0.60212412994E+02  0.10188065474E+03  0.78384510296E+02 0.  0.
          5    1    5    5  501    0 -0.51604357747E+02  0.37623697467E+01 -0.61357849922E+02  0.80399259397E+02  0.47000000000E+01 0. -1.
        -13    1    6    6    0    0 -0.35368996916E+02  0.51659874406E+01  0.92536206492E+01  0.36922660578E+02  0.00000000000E+00 0.  1.
         14    1    6    6    0    0  0.28173104433E+02 -0.28792684408E+02  0.50958792345E+02  0.64957994166E+02  0.00000000000E+00 0. -1.
         -5    1    3    3    0  503 -0.70624550138E+01 -0.39250020502E+02 -0.57287168066E+02  0.69959645548E+02  0.47000000000E+01 0.  1.
         13    1    4    4    0    0  0.75967692574E+02  0.67940370055E+02 -0.33666723052E+02  0.10733327741E+03  0.00000000000E+00 0. -1.
        -14    1    4    4    0    0 -0.10104987330E+02 -0.88260223327E+01  0.62666434541E+01  0.14808114645E+02  0.00000000000E+00 0.  1.
</event>
<event>
12    1  0.8052519E-002  0.1890088E+03  0.7818608E-02  0.1161339E+00
         21   -1    0    0  501  502  0.00000000000E+00  0.00000000000E+00  0.13966868382E+03  0.13966868382E+03  0.00000000000E+00 0.  1.
         21   -1    0    0  502  503 -0.00000000000E+00 -0.00000000000E+00 -0.25852748296E+03  0.25852748296E+03  0.00000000000E+00 0.  1.
         -6    2    1    2    0  503 -0.15314986530E+02 -0.80142622953E+02 -0.10468289608E+03  0.20865646106E+03  0.16100192914E+03 0.  0.
        -24    2    3    3    0    0  0.11309539753E+02 -0.36714873782E+02 -0.12100198328E+03  0.15496067534E+03  0.88856307012E+02 0.  0.
          6    2    1    2  501    0  0.15314986530E+02  0.80142622953E+02 -0.14175903058E+02  0.18953970572E+03  0.17049033694E+03 0.  0.
         24    2    5    5    0    0  0.75495281129E+02  0.42900256463E+02 -0.44838615567E+00  0.11729569947E+03  0.78854997214E+02 0.  0.
          5    1    5    5  501    0 -0.60180294599E+02  0.37242366489E+02 -0.13727516903E+02  0.72244006257E+02  0.47000000000E+01 0. -1.
        -13    1    6    6    0    0  0.78863134729E+02  0.54658145004E+02  0.15500965631E+02  0.97196639706E+02  0.00000000000E+00 0.  1.
         14    1    6    6    0    0 -0.33678536001E+01 -0.11757888541E+02 -0.15949351786E+02  0.20099059760E+02  0.00000000000E+00 0. -1.
         -5    1    3    3    0  503 -0.26624526283E+02 -0.43427749171E+02  0.16319087203E+02  0.53695785729E+02  0.47000000000E+01 0.  1.
         13    1    4    4    0    0  0.92887540408E+00  0.29634523663E+02 -0.37103671489E+02  0.47494739079E+02  0.00000000000E+00 0. -1.
        -14    1    4    4    0    0  0.10380664349E+02 -0.66349397444E+02 -0.83898311794E+02  0.10746593626E+03  0.00000000000E+00 0.  1.
</event>
<event>
12    1  0.8052519E-002  0.2692033E+03  0.7818608E-02  0.1101811E+00
         21   -1    0    0  503  502  0.00000000000E+00  0.00000000000E+00  0.47132617662E+03  0.47132617662E+03  0.00000000000E+00 0. -1.
         21   -1    0    0  501  503 -0.00000000000E+00 -0.00000000000E+00 -0.30130630281E+03  0.30130630281E+03  0.00000000000E+00 0.  1.
          6    2    1    2  501    0 -0.66230707974E+02 -0.19537341096E+03  0.35557538954E+03  0.44567488585E+03  0.17214810439E+03 0.  0.
         24    2    3    3    0    0 -0.24126635926E+02 -0.16375363241E+03  0.16179973849E+03  0.24481758273E+03  0.79744258416E+02 0.  0.
         -6    2    1    2    0  502  0.66230707974E+02  0.19537341096E+03 -0.18555551573E+03  0.32695759357E+03  0.17295416210E+03 0.  0.
        -24    2    5    5    0    0 -0.24690283537E+01  0.36634372234E+02 -0.24110591447E+02  0.90305338642E+02  0.78902219470E+02 0.  0.
          5    1    3    3  501    0 -0.42104072048E+02 -0.31619778553E+02  0.19377565104E+03  0.20085730312E+03  0.47000000000E+01 0. -1.
        -11    1    4    4    0    0 -0.44206594748E+02 -0.64585331927E+02  0.44973461279E+02  0.90266828563E+02  0.00000000000E+00 0.  1.
         12    1    4    4    0    0  0.20079958822E+02 -0.99168300482E+02  0.11682627722E+03  0.15455075417E+03  0.00000000000E+00 0. -1.
         -5    1    5    5    0  502  0.68699736327E+02  0.15873903873E+03 -0.16144492428E+03  0.23665225493E+03  0.47000000000E+01 0.  1.
         11    1    6    6    0    0 -0.37142228082E+02  0.23093300655E+01 -0.17313828190E+02  0.41044448576E+02  0.00000000000E+00 0. -1.
        -12    1    6    6    0    0  0.34673199729E+02  0.34325042169E+02 -0.67967632562E+01  0.49260890066E+02  0.00000000000E+00 0.  1.
</event>
<event>
12    1  0.8052519E-002  0.1878354E+03  0.7818608E-02  0.1160548E+00
         21   -1    0    0  501  502  0.00000000000E+00  0.00000000000E+00  0.11835029861E+03  0.11835029861E+03  0.00000000000E+00 0.  1.
         21   -1    0    0  502  503 -0.00000000000E+00 -0.00000000000E+00 -0.31056576573E+03  0.31056576573E+03  0.00000000000E+00 0.  1.
         -6    2    1    2    0  503 -0.77314759307E+02 -0.10498579743E+02 -0.51897014637E+02  0.19487291767E+03  0.17086357637E+03 0.  0.
        -24    2    3    3    0    0 -0.73375996112E+01  0.49853321726E+02 -0.14012882297E+02  0.94890657380E+02  0.79175008257E+02 0.  0.
          6    2    1    2  501    0  0.77314759307E+02  0.10498579743E+02 -0.14031845248E+03  0.23404314667E+03  0.17029132161E+03 0.  0.
         24    2    5    5    0    0  0.74641304196E+02 -0.82147567518E+01 -0.19420942648E+02  0.11158648410E+03  0.80221966444E+02 0.  0.
          5    1    5    5  501    0  0.26734551119E+01  0.18713336495E+02 -0.12089750983E+03  0.12245666257E+03  0.47000000000E+01 0. -1.
        -11    1    6    6    0    0  0.41244903052E+02  0.35351980989E+02 -0.15797990545E+02  0.56572794635E+02  0.00000000000E+00 0.  1.
         12    1    6    6    0    0  0.33396401143E+02 -0.43566737741E+02 -0.36229521038E+01  0.55013689466E+02  0.00000000000E+00 0. -1.
         -5    1    3    3    0  503 -0.69977159696E+02 -0.60351901469E+02 -0.37884132341E+02  0.99982260293E+02  0.47000000000E+01 0.  1.
         13    1    4    4    0    0  0.15418889888E+02 -0.55825802448E+01 -0.28824280220E+02  0.33162425993E+02  0.00000000000E+00 0. -1.
        -14    1    4    4    0    0 -0.22756489499E+02  0.55435901971E+02  0.14811397923E+02  0.61728231386E+02  0.00000000000E+00 0.  1.
</event>
<event>
12    1  0.8052519E-002  0.1805916E+03  0.7818608E-02  0.1167627E+00
         21   -1    0    0  501  502  0.00000000000E+00  0.00000000000E+00  0.21359860900E+03  0.21359860900E+03  0.00000000000E+00 0.  1.
         21   -1    0    0  502  503 -0.00000000000E+00 -0.00000000000E+00 -0.20609139605E+03  0.20609139605E+03  0.00000000000E+00 0.  1.
         -6    2    1    2    0  503 -0.38110460525E+02 -0.30651836870E+02 -0.10444953113E+03  0.20721023322E+03  0.17214654773E+03 0.  0.
        -24    2    3    3    0    0  0.33466550448E+02  0.15381293455E+00 -0.12693035422E+02  0.86737825326E+02  0.79008249801E+02 0.  0.
          6    2    1    2  501    0  0.38110460525E+02  0.30651836870E+02  0.11195674407E+03  0.21247977183E+03  0.17384302858E+03 0.  0.
         24    2    5    5    0    0 -0.32755861291E+02  0.41989409212E+02  0.10140855663E+03  0.13978912337E+03  0.80132681980E+02 0.  0.
          5    1    5    5  501    0  0.70866321817E+02 -0.11337572342E+02  0.10548187447E+02  0.72690648455E+02  0.47000000000E+01 0. -1.
        -13    1    6    6    0    0  0.21357267759E+02  0.97816350436E+01  0.40463260667E+01  0.23836652972E+02  0.00000000000E+00 0.  1.
         14    1    6    6    0    0 -0.54113129050E+02  0.32207774169E+02  0.97362230560E+02  0.11595247040E+03  0.00000000000E+00 0. -1.
         -5    1    3    3    0  503 -0.71577010973E+02 -0.30805649804E+02 -0.91756495708E+02  0.12047240790E+03  0.47000000000E+01 0.  1.
         11    1    4    4    0    0  0.32861498292E+01  0.28247239582E+02  0.19453512099E+02  0.34454962743E+02  0.00000000000E+00 0. -1.
        -12    1    4    4    0    0  0.30180400619E+02 -0.28093426647E+02 -0.32146547521E+02  0.52282862582E+02  0.00000000000E+00 0.  1.
</event>
<event>
12    1  0.8052519E-002  0.2352375E+03  0.7818608E-02  0.1123165E+00
         21   -1    0    0  503  502  0.00000000000E+00  0.00000000000E+00  0.34428964946E+03  0.34428964946E+03  0.00000000000E+00 0. -1.
         21   -1    0    0  501  503 -0.00000000000E+00 -0.00000000000E+00 -0.29785523176E+03  0.29785523176E+03  0.00000000000E+00 0. -1.
          6    2    1    2  501    0 -0.15546279523E+03 -0.33861369970E+02 -0.19515981737E+03  0.30494393865E+03  0.17201214587E+03 0.  0.
         24    2    3    3    0    0 -0.94026609052E+02 -0.85769390013E+02 -0.99425727799E+02  0.17982018622E+03  0.79072324809E+02 0.  0.
         -6    2    1    2    0  502  0.15546279523E+03  0.33861369970E+02  0.24159423507E+03  0.33720094256E+03  0.17326692752E+03 0.  0.
        -24    2    5    5    0    0  0.13115536401E+03 -0.14672779160E+01  0.87941002393E+02  0.17760654891E+03  0.81280895058E+02 0.  0.
          5    1    3    3  501    0 -0.61436186179E+02  0.51908020043E+02 -0.95734089573E+02  0.12512375243E+03  0.47000000000E+01 0. -1.
        -13    1    4    4    0    0  0.14503925737E+00 -0.15509739100E+01 -0.40303693770E+02  0.40333785936E+02  0.00000000000E+00 0.  1.
         14    1    4    4    0    0 -0.94171648309E+02 -0.84218416103E+02 -0.59122034029E+02  0.13948640028E+03  0.00000000000E+00 0. -1.
         -5    1    5    5    0  502  0.24307431223E+02  0.35328647886E+02  0.15365323267E+03  0.15959439365E+03  0.47000000000E+01 0.  1.
         13    1    6    6    0    0  0.50945388396E+02  0.36652534760E+02  0.20262012386E+02  0.65949905603E+02  0.00000000000E+00 0. -1.
        -14    1    6    6    0    0  0.80209975612E+02 -0.38119812676E+02  0.67678990007E+02  0.11165664331E+03  0.00000000000E+00 0.  1.
</event>
<event>
12    1  0.8052519E-002  0.2017834E+03  0.7818608E-02  0.1148591E+00
         21   -1    0    0  503  502  0.00000000000E+00  0.00000000000E+00  0.25561942651E+03  0.25561942651E+03  0.00000000000E+00 0.  1.
         21   -1    0    0  501  503 -0.00000000000E+00 -0.00000000000E+00 -0.27166995317E+03  0.27166995317E+03  0.00000000000E+00 0.  1.
          6    2    1    2  501    0 -0.10274137969E+03  0.25868715268E+02 -0.17856148518E+03  0.26820181034E+03  0.16977345361E+03 0.  0.
         24    2    3    3    0    0 -0.21731008711E+02  0.46273868304E+02 -0.15840888818E+03  0.18213632572E+03  0.73937525429E+02 0.  0.
         -6    2    1    2    0  502  0.10274137969E+03 -0.25868715268E+02  0.16251095852E+03  0.25908756933E+03  0.17173111370E+03 0.  0.
        -24    2    5    5    0    0  0.24231517722E+02  0.41912928974E+02  0.98524096812E+02  0.13712627140E+03  0.82175157977E+02 0.  0.
          5    1    3    3  501    0 -0.81010370981E+02 -0.20405153036E+02 -0.20152597008E+02  0.86065484621E+02  0.47000000000E+01 0. -1.
        -13    1    4    4    0    0 -0.17002019403E+02  0.42236108439E+02 -0.32179155313E+02  0.55753525059E+02  0.00000000000E+00 0.  1.
         14    1    4    4    0    0 -0.47289893086E+01  0.40377598656E+01 -0.12622973286E+03  0.12638280066E+03  0.00000000000E+00 0. -1.
         -5    1    5    5    0  502  0.78509861970E+02 -0.67781644242E+02  0.63986861712E+02  0.12196129794E+03  0.47000000000E+01 0.  1.
         13    1    6    6    0    0 -0.28768264319E+02  0.24141366697E+02  0.26543123344E+02  0.45988650935E+02  0.00000000000E+00 0. -1.
        -14    1    6    6    0    0  0.52999782041E+02  0.17771562277E+02  0.71980973468E+02  0.91137620463E+02  0.00000000000E+00 0.  1.
</event>
<event>
12    1  0.8052519E-002  0.2511885E+03  0.7818608E-02  0.1113471E+00
         21   -1    0    0  501  502  0.00000000000E+00  0.00000000000E+00  0.59775132067E+03  0.59775132067E+03  0.00000000000E+00 0.  1.
         21   -1    0    0  502  503 -0.00000000000E+00 -0.00000000000E+00 -0.10757289961E+03  0.10757289961E+03  0.00000000000E+00 0.  1.
         -6    2    1    2    0  503  0.17542565596E+03  0.45620200468E+02  0.17631047199E+03  0.30688930238E+03  0.17389737756E+03 0.  0.
        -24    2    3    3    0    0  0.47123292624E+02  0.75174980546E+02  0.83670424235E+02  0.14583263561E+03  0.79965838387E+02 0.  0.
          6    2    1    2  501    0 -0.17542565596E+03 -0.45620200468E+02  0.31386794907E+03  0.39843491791E+03  0.16547486484E+03 0.  0.
         24    2    5    5    0    0 -0.34970686179E+02 -0.31580555804E+02  0.88443394285E+02  0.13242170384E+03  0.86562077486E+02 0.  0.
          5    1    5    5  501    0 -0.14045496978E+03 -0.14039644664E+02  0.22542455479E+03  0.26601321407E+03  0.47000000000E+01 0. -1.
        -11    1    6    6    0    0 -0.56136767053E+02 -0.22140612013E+02  0.90909633179E+02  0.10911509850E+03  0.00000000000E+00 0.  1.
         12    1    6    6    0    0  0.21166080873E+02 -0.94399437914E+01 -0.24662388940E+01  0.23306605343E+02  0.00000000000E+00 0. -1.
         -5    1    3    3    0  503  0.12830236334E+03 -0.29554780077E+02  0.92640047753E+02  0.16105666677E+03  0.47000000000E+01 0.  1.
         13    1    4    4    0    0 -0.26848121303E+01 -0.15202810755E+02  0.17057973777E+02  0.23006697730E+02  0.00000000000E+00 0. -1.
        -14    1    4    4    0    0  0.49808104755E+02  0.90377791301E+02  0.66612450458E+02  0.12282593788E+03  0.00000000000E+00 0.  1.
</event>
<event>
12    1  0.8052519E-002  0.1730697E+03  0.7818608E-02  0.1175169E+00
         21   -1    0    0  503  502  0.00000000000E+00  0.00000000000E+00  0.14533220024E+03  0.14533220024E+03  0.00000000000E+00 0.  1.
         21   -1    0    0  501  503 -0.00000000000E+00 -0.00000000000E+00 -0.21665180553E+03  0.21665180553E+03  0.00000000000E+00 0.  1.
          6    2    1    2  501    0  0.99572358616E+01 -0.10673571960E+02 -0.79468304150E+02  0.18872254252E+03  0.17055179567E+03 0.  0.
         24    2    3    3    0    0  0.66490602580E+02 -0.20591756494E+02 -0.28711175817E+02  0.11195817570E+03  0.82856990185E+02 0.  0.
         -6    2    1    2    0  502 -0.99572358616E+01  0.10673571960E+02  0.81486988629E+01  0.17326146324E+03  0.17245307091E+03 0.  0.
        -24    2    5    5    0    0 -0.70572376965E+02  0.99877138739E+01  0.24591409616E+02  0.11027639779E+03  0.80473173571E+02 0.  0.
          5    1    3    3  501    0 -0.56533366718E+02  0.99181845335E+01 -0.50757128333E+02  0.76764366822E+02  0.47000000000E+01 0. -1.
        -13    1    4    4    0    0  0.24562909148E+02 -0.48415483287E+02 -0.54704108925E+00  0.54292677054E+02  0.00000000000E+00 0.  1.
         14    1    4    4    0    0  0.41927693431E+02  0.27823726794E+02 -0.28164134728E+02  0.57665498647E+02  0.00000000000E+00 0. -1.
         -5    1    5    5    0  502  0.60615141104E+02  0.68585808630E+00 -0.16442710753E+02  0.62985065446E+02  0.47000000000E+01 0.  1.
         11    1    6    6    0    0 -0.29212085363E+02 -0.34502124964E+02  0.13237149711E+01  0.45227146490E+02  0.00000000000E+00 0. -1.
        -12    1    6    6    0    0 -0.41360291602E+02  0.44489838838E+02  0.23267694645E+02  0.65049251305E+02  0.00000000000E+00 0.  1.
</event>
<event>
12    1  0.8052519E-002  0.2429211E+03  0.7818608E-02  0.1117897E+00
         21   -1    0    0  503  502  0.00000000000E+00  0.00000000000E+00  0.30537262982E+03  0.30537262982E+03  0.00000000000E+00 0.  1.
         21   -1    0    0  501  503 -0.00000000000E+00 -0.00000000000E+00 -0.19954941362E+03  0.19954941362E+03  0.00000000000E+00 0. -1.
          6    2    1    2  501    0 -0.24617966264E+02 -0.16927101907E+03  0.74442629573E+01  0.24303509895E+03  0.17248744914E+03 0.  0.
         24    2    3    3    0    0 -0.64835401516E+02 -0.58496187930E+02 -0.24369030124E+02  0.12087667341E+03  0.79949279261E+02 0.  0.
         -6    2    1    2    0  502  0.24617966264E+02  0.16927101907E+03  0.98378953241E+02  0.26188694450E+03  0.17218487476E+03 0.  0.
        -24    2    5    5    0    0 -0.35673744826E+02  0.14881109383E+03  0.44823512807E+02  0.17855643288E+03  0.80348582469E+02 0.  0.
          5    1    3    3  501    0  0.40217435252E+02 -0.11077483114E+03  0.31813293081E+02  0.12215842553E+03  0.47000000000E+01 0. -1.
        -13    1    4    4    0    0 -0.58698480941E+02 -0.63538005696E+00 -0.26231265150E+01  0.58760498341E+02  0.00000000000E+00 0.  1.
         14    1    4    4    0    0 -0.61369205753E+01 -0.57860807873E+02 -0.21745903609E+02  0.62116175073E+02  0.00000000000E+00 0. -1.
         -5    1    5    5    0  502  0.60291711091E+02  0.20459925242E+02  0.53555440434E+02  0.83330511622E+02  0.47000000000E+01 0.  1.
         11    1    6    6    0    0 -0.16992898145E+02  0.38534019258E+02 -0.22764259943E+02  0.47873173681E+02  0.00000000000E+00 0. -1.
        -12    1    6    6    0    0 -0.18680846681E+02  0.11027707457E+03  0.67587772750E+02  0.13068325920E+03  0.00000000000E+00 0.  1.
</event>
<event>
12    1  0.8052519E-002  0.1772659E+03  0.7818608E-02  0.1170829E+00
         21   -1    0    0  501  502  0.00000000000E+00  0.00000000000E+00  0.25210002638E+04  0.25210002638E+04  0.00000000000E+00 0.  1.
         21   -1    0    0  502  503 -0.00000000000E+00 -0.00000000000E+00 -0.12850403685E+02  0.12850403685E+02  0.00000000000E+00 0.  1.
         -6    2    1    2    0  503  0.33029475354E+02  0.98607576590E+01  0.14955592590E+04  0.15058609140E+04  0.17242799752E+03 0.  0.
        -24    2    3    3    0    0  0.37972094723E+02 -0.48482681900E+02  0.11856980545E+04  0.11904810755E+04  0.87022206588E+02 0.  0.
          6    2    1    2  501    0 -0.33029475354E+02 -0.98607576590E+01  0.10125906012E+04  0.10279897535E+04  0.17388222173E+03 0.  0.
         24    2    5    5    0    0 -0.39468001593E+02  0.18846790459E+02  0.27207596455E+03  0.28687600047E+03  0.79747003100E+02 0.  0.
          5    1    5    5  501    0  0.64385262391E+01 -0.28707548118E+02  0.74051463662E+03  0.74111375306E+03  0.47000000000E+01 0. -1.
        -11    1    6    6    0    0  0.50624582104E+01 -0.91302075960E+01  0.71299632557E+00  0.10464107111E+02  0.00000000000E+00 0.  1.
         12    1    6    6    0    0 -0.44530459803E+02  0.27976998055E+02  0.27136296822E+03  0.27641189336E+03  0.00000000000E+00 0. -1.
         -5    1    3    3    0  503 -0.49426193694E+01  0.58343439559E+02  0.30986120452E+03  0.31537983843E+03  0.47000000000E+01 0.  1.
         13    1    4    4    0    0  0.34456378184E+02 -0.55332609397E+02  0.44554776367E+03  0.45029073871E+03  0.00000000000E+00 0. -1.
        -14    1    4    4    0    0  0.35157165387E+01  0.68499274974E+01  0.74015029078E+03  0.74019033682E+03  0.00000000000E+00 0.  1.
</event>
<event>
12    1  0.8052519E-002  0.2437310E+03  0.7818608E-02  0.1117738E+00
         21   -1    0    0  501  502  0.00000000000E+00  0.00000000000E+00  0.10204574018E+03  0.10204574018E+03  0.00000000000E+00 0. -1.
         21   -1    0    0  502  503 -0.00000000000E+00 -0.00000000000E+00 -0.12812076901E+04  0.12812076901E+04  0.00000000000E+00 0. -1.
         -6    2    1    2    0  503  0.59480907289E+02 -0.15936300937E+03 -0.11012573105E+04  0.11273746797E+04  0.17108903344E+03 0.  0.
        -24    2    3    3    0    0  0.83778149803E+02 -0.11844370791E+03 -0.10170061721E+04  0.10304980079E+04  0.81098087146E+02 0.  0.
          6    2    1    2  501    0 -0.59480907289E+02  0.15936300937E+03 -0.77904639408E+02  0.25587875060E+03  0.17455731173E+03 0.  0.
         24    2    5    5    0    0  0.28867182462E+02  0.82269964654E+02 -0.37519689622E+01  0.11706437439E+03  0.78027746179E+02 0.  0.
          5    1    5    5  501    0 -0.88348089751E+02  0.77093044719E+02 -0.74152670446E+02  0.13881437620E+03  0.47000000000E+01 0. -1.
        -11    1    6    6    0    0  0.19382777731E+02 -0.15094137134E+01  0.21561244743E+02  0.29032011250E+02  0.00000000000E+00 0.  1.
         12    1    6    6    0    0  0.94844047311E+01  0.83779378367E+02 -0.25313213705E+02  0.88032363144E+02  0.00000000000E+00 0. -1.
         -5    1    3    3    0  503 -0.24297242514E+02 -0.40919301457E+02 -0.84251138406E+02  0.96876671848E+02  0.47000000000E+01 0.  1.
         13    1    4    4    0    0  0.49455401783E+02 -0.88953380613E+02 -0.43553543693E+03  0.44726911084E+03  0.00000000000E+00 0. -1.
        -14    1    4    4    0    0  0.34322748020E+02 -0.29490327302E+02 -0.58147073519E+03  0.58322889702E+03  0.00000000000E+00 0.  1.
</event>
<event>
12    1  0.8052519E-002  0.2064005E+03  0.7818608E-02  0.1145312E+00
         21   -1    0    0  503  502  0.00000000000E+00  0.00000000000E+00  0.13619935020E+04  0.13619935020E+04  0.00000000000E+00 0.  1.
         21   -1    0    0  501  503 -0.00000000000E+00 -0.00000000000E+00 -0.40356671174E+03  0.40356671174E+03  0.00000000000E+00 0.  1.
          6    2    1    2  501    0  0.17462493615E+02 -0.11125230875E+03 -0.36976286510E+03  0.42142893022E+03  0.16791590734E+03 0.  0.
         24    2    3    3    0    0  0.77540570612E+01 -0.14528444171E+03 -0.28909652266E+03  0.33321561707E+03  0.79297879191E+02 0.  0.
         -6    2    1    2    0  502 -0.17462493615E+02  0.11125230875E+03  0.13281896554E+04  0.13441312835E+04  0.17297147694E+03 0.  0.
        -24    2    5    5    0    0  0.44993956615E+02  0.10208075333E+03  0.73140951899E+03  0.74400334151E+03  0.78333590387E+02 0.  0.
          5    1    3    3  501    0  0.97084365535E+01  0.34032132961E+02 -0.80666342443E+02  0.88213313152E+02  0.47000000000E+01 0. -1.
        -13    1    4    4    0    0  0.20853125790E+02 -0.11533098781E+03 -0.27232050282E+03  0.29647014329E+03  0.00000000000E+00 0.  1.
         14    1    4    4    0    0 -0.13099068729E+02 -0.29953453901E+02 -0.16776019839E+02  0.36745473786E+02  0.00000000000E+00 0. -1.
         -5    1    5    5    0  502 -0.62456450230E+02  0.91715554149E+01  0.59678013640E+03  0.60012794203E+03  0.47000000000E+01 0.  1.
         11    1    6    6    0    0 -0.15920632410E+02  0.60485380611E+02  0.33890772372E+03  0.34463080681E+03  0.00000000000E+00 0. -1.
        -12    1    6    6    0    0  0.60914589024E+02  0.41595372720E+02  0.39250179526E+03  0.39937253470E+03  0.00000000000E+00 0.  1.
</event>
<event>
12    1  0.8052519E-002  0.1846837E+03  0.7818608E-02  0.1163582E+00
         21   -1    0    0  501  502  0.00000000000E+00  0.00000000000E+00  0.75556132814E+02  0.75556132814E+02  0.00000000000E+00 0. -1.
         21   -1    0    0  502  503 -0.00000000000E+00 -0.00000000000E+00 -0.63262942413E+03  0.63262942413E+03  0.00000000000E+00 0. -1.
         -6    2    1    2    0  503  0.48942910679E+02 -0.50448243363E+02 -0.46986866007E+03  0.50486101066E+03  0.17078538755E+03 0.  0.
        -24    2    3    3    0    0 -0.28326202296E+02 -0.20171947110E+02 -0.13769058935E+03  0.16244090231E+03  0.78861062383E+02 0.  0.
          6    2    1    2  501    0 -0.48942910679E+02  0.50448243363E+02 -0.87204631245E+02  0.20332454629E+03  0.16969322216E+03 0.  0.
         24    2    5    5    0    0 -0.93969935889E+02  0.27730583606E+02 -0.85236767467E+02  0.15263443332E+03  0.80203675662E+02 0.  0.
          5    1    5    5  501    0  0.45027025211E+02  0.22717659757E+02 -0.19678637772E+01  0.50690112961E+02  0.47000000000E+01 0. -1.
        -13    1    6    6    0    0 -0.36512241455E+02  0.62776566615E+01 -0.83418592004E+02  0.91275485434E+02  0.00000000000E+00 0.  1.
         14    1    6    6    0    0 -0.57457694435E+02  0.21452926944E+02 -0.18181754635E+01  0.61358947891E+02  0.00000000000E+00 0. -1.
         -5    1    3    3    0  503  0.77269112975E+02 -0.30276296253E+02 -0.33217807072E+03  0.34242010835E+03  0.47000000000E+01 0.  1.
         13    1    4    4    0    0  0.20827672409E+02 -0.19827916299E+02 -0.87858064911E+02  0.92444457771E+02  0.00000000000E+00 0. -1.
        -14    1    4    4    0    0 -0.49153874705E+02 -0.34403081108E+00 -0.49832524436E+02  0.69996444534E+02  0.00000000000E+00 0.  1.
</event>
<event>
12    1  0.8052519E-002  0.2171482E+03  0.7818608E-02  0.1136100E+00
         21   -1    0    0  503  502  0.00000000000E+00  0.00000000000E+00  0.11077591558E+04  0.11077591558E+04  0.00000000000E+00 0.  1.
         21   -1    0    0  501  503 -0.00000000000E+00 -0.00000000000E+00 -0.52024372498E+02  0.52024372498E+02  0.00000000000E+00 0. -1.
          6    2    1    2  501    0  0.10323069668E+03 -0.80945941567E+02  0.27926087187E+03  0.35351740550E+03  0.17256621698E+03 0.  0.
         24    2    3    3    0    0  0.58470886866E+02 -0.50574628478E+01  0.52088033333E+02  0.10981248075E+03  0.76819236988E+02 0.  0.
         -6    2    1    2    0  502 -0.10323069668E+03  0.80945941567E+02  0.77647391139E+03  0.80626612275E+03  0.17304480184E+03 0.  0.
        -24    2    5    5    0    0 -0.10630722808E+03  0.11867308057E+03  0.67126289819E+03  0.69435432999E+03  0.78418940891E+02 0.  0.
          5    1    3    3  501    0  0.44759809811E+02 -0.75888478719E+02  0.22717283854E+03  0.24370492475E+03  0.47000000000E+01 0. -1.
        -13    1    4    4    0    0 -0.16767854708E+02  0.42021523480E+01 -0.92079305417E+00  0.17310889512E+02  0.00000000000E+00 0.  1.
         14    1    4    4    0    0  0.75238741574E+02 -0.92596151957E+01  0.53008826387E+02  0.92501591241E+02  0.00000000000E+00 0. -1.
         -5    1    5    5    0  502  0.30765314027E+01 -0.37727138999E+02  0.10521101320E+03  0.11191179277E+03  0.47000000000E+01 0.  1.
         13    1    6    6    0    0  0.12573367272E+02  0.72874843886E+01  0.62891144061E+02  0.64548377164E+02  0.00000000000E+00 0. -1.
        -14    1    6    6    0    0 -0.11888059535E+03  0.11138559618E+03  0.60837175413E+03  0.62980595282E+03  0.00000000000E+00 0.  1.
</event>
<event>
12    1  0.8052519E-002  0.1911340E+03  0.7818608E-02  0.1158283E+00
         21   -1    0    0  503  502  0.00000000000E+00  0.00000000000E+00  0.68728994052E+02  0.68728994052E+02  0.00000000000E+00 0.  1.
         21   -1    0    0  501  503 -0.00000000000E+00 -0.00000000000E+00 -0.52917978266E+03  0.52917978266E+03  0.00000000000E+00 0.  1.
          6    2    1    2  501    0  0.35476858698E+02  0.75428286138E+02 -0.19139946974E+03  0.26787724166E+03  0.16785835019E+03 0.  0.
         24    2    3    3    0    0  0.23878938367E+02  0.71269000467E+02 -0.21471423759E+03  0.24109142800E+03  0.79833568797E+02 0.  0.
         -6    2    1    2    0  502 -0.35476858698E+02 -0.75428286138E+02 -0.26905131887E+03  0.33003153505E+03  0.17200048864E+03 0.  0.
        -24    2    5    5    0    0 -0.38837368022E+02 -0.11027178313E+03 -0.15221661798E+03  0.20797499226E+03  0.80096762154E+02 0.  0.
          5    1    3    3  501    0  0.11597920332E+02  0.41592856707E+01  0.23314767851E+02  0.26785813657E+02  0.47000000000E+01 0. -1.
        -11    1    4    4    0    0  0.27604989659E+02  0.64690205934E+02 -0.81458221147E+02  0.10762109454E+03  0.00000000000E+00 0.  1.
         12    1    4    4    0    0 -0.37260512926E+01  0.65787945332E+01 -0.13325601644E+03  0.13347033346E+03  0.00000000000E+00 0. -1.
         -5    1    5    5    0  502  0.33605093234E+01  0.34843496996E+02 -0.11683470089E+03  0.12205654279E+03  0.47000000000E+01 0.  1.
         13    1    6    6    0    0  0.15581417252E+02 -0.72020703147E+02 -0.95051549007E+02  0.12026869590E+03  0.00000000000E+00 0. -1.
        -14    1    6    6    0    0 -0.54418785273E+02 -0.38251079986E+02 -0.57165068970E+02  0.87706296359E+02  0.00000000000E+00 0.  1.
</event>
<event>
12    1  0.8052519E-002  0.1993369E+03  0.7818608E-02  0.1150800E+00
         21   -1    0    0  501  502  0.00000000000E+00  0.00000000000E+00  0.13689487554E+03  0.13689487554E+03  0.00000000000E+00 0. -1.
         21   -1    0    0  502  503 -0.00000000000E+00 -0.00000000000E+00 -0.54075821433E+03  0.54075821433E+03  0.00000000000E+00 0.  1.
         -6    2    1    2    0  503 -0.41616607930E+02  0.85053677647E+02  0.30874629486E+02  0.19939341672E+03  0.17273801478E+03 0.  0.
        -24    2    3    3    0    0 -0.76517262538E+02  0.23846253258E+02  0.52676349439E+02  0.12548936077E+03  0.80927415727E+02 0.  0.
          6    2    1    2  501    0  0.41616607930E+02 -0.85053677647E+02 -0.43473796828E+03  0.47825967315E+03  0.17541135586E+03 0.  0.
         24    2    5    5    0    0  0.30404917127E+02  0.95412379845E+01 -0.30610270134E+03  0.31812528592E+03  0.80556437147E+02 0.  0.
          5    1    5    5  501    0  0.11211690803E+02 -0.94594915631E+02 -0.12863526693E+03  0.16013438723E+03  0.47000000000E+01 0. -1.
        -11    1    6    6    0    0 -0.52609151704E+01 -0.30594538588E+02 -0.81983376379E+02  0.87664000721E+02  0.00000000000E+00 0.  1.
         12    1    6    6    0    0  0.35665832298E+02  0.40135776572E+02 -0.22411932496E+03  0.23046128520E+03  0.00000000000E+00 0. -1.
         -5    1    3    3    0  503  0.34900654608E+02  0.61207424389E+02 -0.21801719953E+02  0.73904055947E+02  0.47000000000E+01 0.  1.
         13    1    4    4    0    0 -0.30156335190E+02  0.85014127144E+00  0.65551903629E+02  0.72160788255E+02  0.00000000000E+00 0. -1.
        -14    1    4    4    0    0 -0.46360927349E+02  0.22996111986E+02 -0.12875554189E+02  0.53328572518E+02  0.00000000000E+00 0.  1.
</event>
<event>
12    1  0.8052519E-002  0.1990860E+03  0.7818608E-02  0.1150775E+00
         21   -1    0    0  501  502  0.00000000000E+00  0.00000000000E+00  0.12507111280E+02  0.12507111280E+02  0.00000000000E+00 0.  1.
         21   -1    0    0  502  503 -0.00000000000E+00 -0.00000000000E+00 -0.35453699127E+04  0.35453699127E+04  0.00000000000E+00 0. -1.
         -6    2    1    2    0  503  0.46327824960E+02 -0.87051455903E+02 -0.11768108982E+04  0.11935322049E+04  0.17294800006E+03 0.  0.
        -24    2    3    3    0    0 -0.49525056624E+02 -0.58161751745E+02 -0.53780449228E+03  0.54671409546E+03  0.61863637658E+02 0.  0.
          6    2    1    2  501    0 -0.46327824960E+02  0.87051455903E+02 -0.23560519032E+04  0.23643448190E+04  0.17152734301E+03 0.  0.
         24    2    5    5    0    0 -0.52229256536E+02  0.90897040879E+02 -0.10490771972E+04  0.10573426815E+04  0.80127480601E+02 0.  0.
          5    1    5    5  501    0  0.59014315763E+01 -0.38455849754E+01 -0.13069747060E+04  0.13070021376E+04  0.47000000000E+01 0. -1.
        -11    1    6    6    0    0 -0.26732056572E+00 -0.13687680672E+02 -0.16853883220E+03  0.16909394437E+03  0.00000000000E+00 0.  1.
         12    1    6    6    0    0 -0.51961935971E+02  0.10458472155E+03 -0.88053836497E+03  0.88824873710E+03  0.00000000000E+00 0. -1.
         -5    1    3    3    0  503  0.95852881584E+02 -0.28889704158E+02 -0.63900640594E+03  0.64681810948E+03  0.47000000000E+01 0.  1.
         11    1    4    4    0    0 -0.20282193130E+02 -0.76288627728E+01 -0.33426097410E+03  0.33496263331E+03  0.00000000000E+00 0. -1.
        -12    1    4    4    0    0 -0.29242863494E+02 -0.50532888972E+02 -0.20354351817E+03  0.21175146215E+03  0.00000000000E+00 0.  1.
</event>
<event>
12    1  0.8052519E-002  0.1764376E+03  0.7818608E-02  0.1174785E+00
         21   -1    0    0  501  502  0.00000000000E+00  0.00000000000E+00  0.36948034043E+03  0.36948034043E+03  0.00000000000E+00 0.  1.
         21   -1    0    0  502  503 -0.00000000000E+00 -0.00000000000E+00 -0.14759637765E+03  0.14759637765E+03  0.00000000000E+00 0.  1.
         -6    2    1    2    0  503  0.34351822413E+02  0.16864412183E+02 -0.68909213461E+02  0.17694307639E+03  0.15841690718E+03 0.  0.
        -24    2    3    3    0    0  0.44260508865E+02  0.64439465700E+02 -0.59377423588E+02  0.12719860129E+03  0.80884908075E+02 0.  0.
          6    2    1    2  501    0 -0.34351822413E+02 -0.16864412183E+02  0.29079317625E+03  0.34013364169E+03  0.17223753005E+03 0.  0.
         24    2    5    5    0    0  0.47875350279E+02 -0.14421235805E+02  0.16657508250E+03  0.19107156786E+03  0.79126890055E+02 0.  0.
          5    1    5    5  501    0 -0.82227172692E+02 -0.24431763780E+01  0.12421809375E+03  0.14906207383E+03  0.47000000000E+01 0. -1.
        -11    1    6    6    0    0  0.96599120570E+01  0.28888998376E+02  0.90926737248E+02  0.95893480876E+02  0.00000000000E+00 0.  1.
         12    1    6    6    0    0  0.38215438222E+02 -0.43310234180E+02  0.75648345250E+02  0.95178086986E+02  0.00000000000E+00 0. -1.
         -5    1    3    3    0  503 -0.99086864515E+01 -0.47575053517E+02 -0.95317898730E+01  0.49744475095E+02  0.47000000000E+01 0.  1.
         11    1    4    4    0    0 -0.71255877066E+01 -0.10879607126E+02  0.66660664624E+01  0.14614249671E+02  0.00000000000E+00 0. -1.
        -12    1    4    4    0    0  0.51386096571E+02  0.75319072825E+02 -0.66043490050E+02  0.11258435162E+03  0.00000000000E+00 0.  1.
</event>
<event>
12    1  0.8052519E-002  0.1807901E+03  0.7818608E-02  0.1167106E+00
         21   -1    0    0  501  502  0.00000000000E+00  0.00000000000E+00  0.54807934723E+03  0.54807934723E+03  0.00000000000E+00 0. -1.
         21   -1    0    0  502  503 -0.00000000000E+00 -0.00000000000E+00 -0.94771104982E+02  0.94771104982E+02  0.00000000000E+00 0. -1.
         -6    2    1    2    0  503 -0.52053077401E+02 -0.12295606421E+02  0.30801489639E+02  0.18339516507E+03  0.17269727850E+03 0.  0.
        -24    2    3    3    0    0  0.28982596254E+02 -0.29198079029E+02  0.36115987404E+02  0.10031202676E+03  0.84057239199E+02 0.  0.
          6    2    1    2  501    0  0.52053077401E+02  0.12295606421E+02  0.42250675261E+03  0.45945528714E+03  0.17241374679E+03 0.  0.
         24    2    5    5    0    0  0.85575486387E+02  0.36199609827E+02  0.20781124098E+03  0.24079709270E+03  0.78512115969E+02 0.  0.
          5    1    5    5  501    0 -0.33522408986E+02 -0.23904003406E+02  0.21469551163E+03  0.21865819445E+03  0.47000000000E+01 0. -1.
        -11    1    6    6    0    0 -0.88482961725E+01 -0.37867649214E+00  0.65729524791E+02  0.66323496366E+02  0.00000000000E+00 0.  1.
         12    1    6    6    0    0  0.94423782560E+02  0.36578286319E+02  0.14208171619E+03  0.17447359633E+03  0.00000000000E+00 0. -1.
         -5    1    3    3    0  503 -0.81035673654E+02  0.16902472607E+02 -0.53144977654E+01  0.83083138310E+02  0.47000000000E+01 0.  1.
         11    1    4    4    0    0 -0.29528834891E+02 -0.47875179778E+01  0.80520639394E+01  0.30979156736E+02  0.00000000000E+00 0. -1.
        -12    1    4    4    0    0  0.58511431144E+02 -0.24410561051E+02  0.28063923465E+02  0.69332870023E+02  0.00000000000E+00 0.  1.
</event>
<event>
12    1  0.8052519E-002  0.2086610E+03  0.7818608E-02  0.1142966E+00
         21   -1    0    0  501  502  0.00000000000E+00  0.00000000000E+00  0.38780402357E+02  0.38780402357E+02  0.00000000000E+00 0.  1.
         21   -1    0    0  502  503 -0.00000000000E+00 -0.00000000000E+00 -0.11497149244E+04  0.11497149244E+04  0.00000000000E+00 0. -1.
         -6    2    1    2    0  503 -0.52195079523E+02 -0.10470750691E+03 -0.44817633192E+03  0.49366597191E+03  0.17075151243E+03 0.  0.
        -24    2    3    3    0    0  0.26946373107E+02 -0.35647747607E+02 -0.28876132301E+03  0.30270038615E+03  0.79041464904E+02 0.  0.
          6    2    1    2  501    0  0.52195079523E+02  0.10470750691E+03 -0.66275819011E+03  0.69482935483E+03  0.17277565063E+03 0.  0.
         24    2    5    5    0    0  0.38936481398E+01  0.82130992719E+02 -0.22133187303E+03  0.25016992259E+03  0.82683321728E+02 0.  0.
          5    1    5    5  501    0  0.48301431384E+02  0.22576514193E+02 -0.44142631708E+03  0.44465943224E+03  0.47000000000E+01 0. -1.
        -11    1    6    6    0    0 -0.34774210249E+02  0.66215004388E+02 -0.14240800069E+03  0.16085307323E+03  0.00000000000E+00 0.  1.
         12    1    6    6    0    0  0.38667858389E+02  0.15915988331E+02 -0.78923872332E+02  0.89316849367E+02  0.00000000000E+00 0. -1.
         -5    1    3    3    0  503 -0.79141452630E+02 -0.69059759305E+02 -0.15941500891E+03  0.19096558576E+03  0.47000000000E+01 0.  1.
         13    1    4    4    0    0 -0.24120619642E+02 -0.15384537716E+02 -0.16256721059E+03  0.16506539992E+03  0.00000000000E+00 0. -1.
        -14    1    4    4    0    0  0.51066992749E+02 -0.20263209891E+02 -0.12619411242E+03  0.13763498623E+03  0.00000000000E+00 0.  1.
</event>
<event>
12    1  0.8052519E-002  0.1869283E+03  0.7818608E-02  0.1161515E+00
         21   -1    0    0  503  502  0.00000000000E+00  0.00000000000E+00  0.89207300594E+02  0.89207300594E+02  0.00000000000E+00 0. -1.
         21   -1    0    0  501  503 -0.00000000000E+00 -0.00000000000E+00 -0.39049500666E+03  0.39049500666E+03  0.00000000000E+00 0. -1.
          6    2    1    2  501    0  0.64287909889E+02  0.28869496318E+02 -0.16380918074E+03  0.24854703379E+03  0.17313519901E+03 0.  0.
         24    2    3    3    0    0  0.21131272707E+02 -0.37908170841E+02 -0.35449159367E+02  0.97483678700E+02  0.79767566156E+02 0.  0.
         -6    2    1    2    0  502 -0.64287909889E+02 -0.28869496318E+02 -0.13747852533E+03  0.23115527347E+03  0.17194776052E+03 0.  0.
        -24    2    5    5    0    0 -0.77268099737E+02 -0.75685569645E+02 -0.82783272716E+02  0.15784844767E+03  0.79777174056E+02 0.  0.
          5    1    3    3  501    0  0.43156637182E+02  0.66777667159E+02 -0.12836002137E+03  0.15106335509E+03  0.47000000000E+01 0. -1.
        -11    1    4    4    0    0 -0.52748271430E+00 -0.12676526703E+02  0.25258236382E+02  0.28265722570E+02  0.00000000000E+00 0.  1.
         12    1    4    4    0    0  0.21658755421E+02 -0.25231644138E+02 -0.60707395749E+02  0.69217956131E+02  0.00000000000E+00 0. -1.
         -5    1    5    5    0  502  0.12980189848E+02  0.46816073326E+02 -0.54695252616E+02  0.73306825800E+02  0.47000000000E+01 0.  1.
         13    1    6    6    0    0 -0.45258698685E+02 -0.66657238664E+02 -0.93008958109E+02  0.12305366131E+03  0.00000000000E+00 0. -1.
        -14    1    6    6    0    0 -0.32009401052E+02 -0.90283309808E+01  0.10225685394E+02  0.34794786359E+02  0.00000000000E+00 0.  1.
</event>
<event>
12    1  0.8052519E-002  0.2516240E+03  0.7818608E-02  0.1112415E+00
         21   -1    0    0  501  502  0.00000000000E+00  0.00000000000E+00  0.34325341006E+02  0.34325341006E+02  0.00000000000E+00 0.  1.
         21   -1    0    0  502  503 -0.00000000000E+00 -0.00000000000E+00 -0.19129434358E+04  0.19129434358E+04  0.00000000000E+00 0.  1.
         -6    2    1    2    0  503  0.17647872152E+03 -0.47799361857E+02 -0.74557000177E+03  0.78661697773E+03  0.17164534356E+03 0.  0.
        -24    2    3    3    0    0  0.13926556932E+03 -0.95145727919E+02 -0.50085502975E+03  0.53455745181E+03  0.80301308314E+02 0.  0.
          6    2    1    2  501    0 -0.17647872152E+03  0.47799361857E+02 -0.11330480930E+04  0.11606517991E+04  0.17287307325E+03 0.  0.
         24    2    5    5    0    0 -0.13975520308E+03  0.26060478148E+02 -0.10814948602E+04  0.10935621450E+04  0.77694060183E+02 0.  0.
          5    1    5    5  501    0 -0.36723518442E+02  0.21738883709E+02 -0.51553232802E+02  0.67089654076E+02  0.47000000000E+01 0. -1.
        -13    1    6    6    0    0 -0.49529591929E+02 -0.27264904176E+02 -0.33304387239E+03  0.33780878677E+03  0.00000000000E+00 0.  1.
         14    1    6    6    0    0 -0.90225611151E+02  0.53325382324E+02 -0.74845098781E+03  0.75575335822E+03  0.00000000000E+00 0. -1.
         -5    1    3    3    0  503  0.37213152197E+02  0.47346366062E+02 -0.24471497202E+03  0.25205952592E+03  0.47000000000E+01 0.  1.
         13    1    4    4    0    0 -0.88235477676E+00  0.10590271486E+02 -0.40239718132E+02  0.41619314211E+02  0.00000000000E+00 0. -1.
        -14    1    4    4    0    0  0.14014792410E+03 -0.10573599941E+03 -0.46061531162E+03  0.49293813760E+03  0.00000000000E+00 0.  1.
</event>
<event>
12    1  0.8052519E-002  0.2393203E+03  0.7818608E-02  0.1120532E+00
         21   -1    0    0  503  502  0.00000000000E+00  0.00000000000E+00  0.47405495704E+03  0.47405495704E+03  0.00000000000E+00 0.  1.
         21   -1    0    0  501  503 -0.00000000000E+00 -0.00000000000E+00 -0.12000999145E+03  0.12000999145E+03  0.00000000000E+00 0.  1.
          6    2    1    2  501    0  0.16396193332E+03 -0.24543869081E+01  0.18243192579E+03  0.29957345709E+03  0.17196891887E+03 0.  0.
         24    2    3    3    0    0  0.15302350236E+03  0.94372437609E+01  0.20718207026E+03  0.26964487872E+03  0.79238226510E+02 0.  0.
         -6    2    1    2    0  502 -0.16396193332E+03  0.24543869081E+01  0.17161303981E+03  0.29449149140E+03  0.17431197171E+03 0.  0.
        -24    2    5    5    0    0 -0.51589139287E+02  0.13455945795E+02  0.15220126714E+03  0.17982856777E+03  0.79564981606E+02 0.  0.
          5    1    3    3  501    0  0.10938430960E+02 -0.11891630669E+02 -0.24750144474E+02  0.29928578371E+02  0.47000000000E+01 0. -1.
        -11    1    4    4    0    0  0.60994080083E+02 -0.27977697280E+02  0.49935912566E+02  0.83645829030E+02  0.00000000000E+00 0.  1.
         12    1    4    4    0    0  0.92029422276E+02  0.37414941040E+02  0.15724615769E+03  0.18599904969E+03  0.00000000000E+00 0. -1.
         -5    1    5    5    0  502 -0.11237279403E+03 -0.11001558887E+02  0.19411772670E+02  0.11466292363E+03  0.47000000000E+01 0.  1.
         13    1    6    6    0    0  0.53032920716E+01 -0.24034631323E+02  0.62597718340E+02  0.67262640084E+02  0.00000000000E+00 0. -1.
        -14    1    6    6    0    0 -0.56892431358E+02  0.37490577118E+02  0.89603548801E+02  0.11256592769E+03  0.00000000000E+00 0.  1.
</event>
<event>
12    1  0.8052519E-002  0.1812598E+03  0.7818608E-02  0.1167100E+00
         21   -1    0    0  503  502  0.00000000000E+00  0.00000000000E+00  0.11323294224E+04  0.11323294224E+04  0.00000000000E+00 0. -1.
         21   -1    0    0  501  503 -0.00000000000E+00 -0.00000000000E+00 -0.31148368584E+02  0.31148368584E+02  0.00000000000E+00 0. -1.
          6    2    1    2  501    0  0.51728962707E+02 -0.20002883761E+02  0.38972826479E+03  0.42981766470E+03  0.17256622951E+03 0.  0.
         24    2    3    3    0    0  0.16633447707E+02  0.52897905465E+02  0.25316497026E+03  0.27101639375E+03  0.79262371443E+02 0.  0.
         -6    2    1    2    0  502 -0.51728962707E+02  0.20002883761E+02  0.71145278907E+03  0.73366012634E+03  0.17034115461E+03 0.  0.
        -24    2    5    5    0    0 -0.46082932692E+02  0.69569788013E+02  0.60629054472E+03  0.61717002680E+03  0.79668219986E+02 0.  0.
          5    1    3    3  501    0  0.35095514999E+02 -0.72900789226E+02  0.13656329453E+03  0.15880127095E+03  0.47000000000E+01 0. -1.
        -13    1    4    4    0    0 -0.13795101720E+02  0.22741934826E+02  0.18323455119E+02  0.32299372109E+02  0.00000000000E+00 0.  1.
         14    1    4    4    0    0  0.30428549427E+02  0.30155970638E+02  0.23484151514E+03  0.23871702164E+03  0.00000000000E+00 0. -1.
         -5    1    5    5    0  502 -0.56460300145E+01 -0.49566904253E+02  0.10516224436E+03  0.11649009954E+03  0.47000000000E+01 0.  1.
         13    1    6    6    0    0 -0.34526423615E+01  0.39162119294E+02  0.89760521468E+02  0.97992568806E+02  0.00000000000E+00 0. -1.
        -14    1    6    6    0    0 -0.42630290331E+02  0.30407668719E+02  0.51653002325E+03  0.51917745799E+03  0.00000000000E+00 0.  1.
</event>
<event>
12    1  0.8052519E-002  0.1869130E+03  0.7818608E-02  0.1161606E+00
         21   -1    0    0  501  502  0.00000000000E+00  0.00000000000E+00  0.30969116427E+02  0.30969116427E+02  0.00000000000E+00 0.  1.
         21   -1    0    0  502  503 -0.00000000000E+00 -0.00000000000E+00 -0.11198070168E+04  0.11198070168E+04  0.00000000000E+00 0. -1.
         -6    2    1    2    0  503 -0.63461623855E+02  0.27911996281E+02 -0.55606036134E+03  0.58663411604E+03  0.17357996257E+03 0.  0.
        -24    2    3    3    0    0 -0.16679975619E+02 -0.41258341770E+02 -0.38724800252E+03  0.39823889113E+03  0.81564248288E+02 0.  0.
          6    2    1    2  501    0  0.63461623855E+02 -0.27911996281E+02 -0.53277753899E+03  0.56414201715E+03  0.17204026337E+03 0.  0.
         24    2    5    5    0    0  0.72431371862E+01 -0.11845087621E+02 -0.47389828660E+03  0.48103052481E+03  0.81351156205E+02 0.  0.
          5    1    5    5  501    0  0.56218486669E+02 -0.16066908660E+02 -0.58879252389E+02  0.83111492340E+02  0.47000000000E+01 0. -1.
        -11    1    6    6    0    0  0.12892599302E+02  0.26422176032E+01 -0.45995968166E+03  0.46014792098E+03  0.00000000000E+00 0.  1.
         12    1    6    6    0    0 -0.56494621163E+01 -0.14487305224E+02 -0.13938604942E+02  0.20882603827E+02  0.00000000000E+00 0. -1.
         -5    1    3    3    0  503 -0.46781648236E+02  0.69170338050E+02 -0.16881235882E+03  0.18839522491E+03  0.47000000000E+01 0.  1.
         11    1    4    4    0    0 -0.80324871692E+01  0.24241788307E+02 -0.14031805948E+03  0.14262308007E+03  0.00000000000E+00 0. -1.
        -12    1    4    4    0    0 -0.86474884496E+01 -0.65500130077E+02 -0.24692994304E+03  0.25561581106E+03  0.00000000000E+00 0.  1.
</event>
<event>
12    1  0.8052519E-002  0.1852556E+03  0.7818608E-02  0.1163020E+00
         21   -1    0    0  501  502  0.00000000000E+00  0.00000000000E+00  0.80981883750E+03  0.80981883750E+03  0.00000000000E+00 0.  1.
         21   -1    0    0  502  503 -0.00000000000E+00 -0.00000000000E+00 -0.48339952860E+02  0.48339952860E+02  0.00000000000E+00 0.  1.
         -6    2    1    2    0  503 -0.99175426402E+01 -0.68605481267E+02  0.22831171433E+03  0.29401677162E+03  0.17179800168E+03 0.  0.
        -24    2    3    3    0    0  0.30421403029E+02 -0.59008870800E+02  0.22943244592E+03  0.25227145440E+03  0.81204254006E+02 0.  0.
          6    2    1    2  501    0  0.99175426402E+01  0.68605481267E+02  0.53316717031E+03  0.56414201874E+03  0.17083300647E+03 0.  0.
         24    2    5    5    0    0  0.44760636335E+01  0.11392734497E+03  0.37648330103E+03  0.40087657256E+03  0.77219656793E+02 0.  0.
          5    1    5    5  501    0  0.54414790067E+01 -0.45321863705E+02  0.15668386928E+03  0.16326544618E+03  0.47000000000E+01 0. -1.
        -13    1    6    6    0    0  0.40201482175E+02  0.55374429366E+02  0.16806787443E+03  0.18146431333E+03  0.00000000000E+00 0.  1.
         14    1    6    6    0    0 -0.35725418541E+02  0.58552915606E+02  0.20841542661E+03  0.21941225924E+03  0.00000000000E+00 0. -1.
         -5    1    3    3    0  503 -0.40338945669E+02 -0.95966104669E+01 -0.11207315961E+01  0.41745317216E+02  0.47000000000E+01 0.  1.
         13    1    4    4    0    0 -0.12040514486E+02  0.40040852584E+01  0.10991472467E+03  0.11064471694E+03  0.00000000000E+00 0. -1.
        -14    1    4    4    0    0  0.42461917515E+02 -0.63012956058E+02  0.11951772125E+03  0.14162673746E+03  0.00000000000E+00 0.  1.
</event>
<event>
12    1  0.8052519E-002  0.2473149E+03  0.7818608E-02  0.1115021E+00
         21   -1    0    0  503  502  0.00000000000E+00  0.00000000000E+00  0.12170945264E+03  0.12170945264E+03  0.00000000000E+00 0. -1.
         21   -1    0    0  501  503 -0.00000000000E+00 -0.00000000000E+00 -0.50351809638E+03  0.50351809638E+03  0.00000000000E+00 0. -1.
          6    2    1    2  501    0 -0.17533255453E+03  0.30934702434E+02 -0.17651380712E+03  0.30380781155E+03  0.17159138021E+03 0.  0.
         24    2    3    3    0    0 -0.87975951523E+02  0.34494673080E+02 -0.17692475553E+03  0.21625149620E+03  0.80825057818E+02 0.  0.
         -6    2    1    2    0  502  0.17533255453E+03 -0.30934702434E+02 -0.20529483662E+03  0.32141973747E+03  0.17165726668E+03 0.  0.
        -24    2    5    5    0    0  0.63396945411E+02 -0.56918258824E+02 -0.49221984819E+02  0.12754980463E+03  0.81162109371E+02 0.  0.
          5    1    3    3  501    0 -0.87356603008E+02 -0.35599706461E+01  0.41094840759E+00  0.87556315355E+02  0.47000000000E+01 0. -1.
        -13    1    4    4    0    0 -0.26921868787E+02 -0.19960043539E+02 -0.19334258355E+02  0.38691134684E+02  0.00000000000E+00 0.  1.
         14    1    4    4    0    0 -0.61054082736E+02  0.54454716619E+02 -0.15759049718E+03  0.17756036151E+03  0.00000000000E+00 0. -1.
         -5    1    5    5    0  502  0.11193560912E+03  0.25983556390E+02 -0.15607285180E+03  0.19386993284E+03  0.47000000000E+01 0.  1.
         11    1    6    6    0    0  0.17087273983E-01 -0.43441819756E+02 -0.45103900296E+02  0.62622310861E+02  0.00000000000E+00 0. -1.
        -12    1    6    6    0    0  0.63379858137E+02 -0.13476439068E+02 -0.41180845228E+01  0.64927493772E+02  0.00000000000E+00 0.  1.
</event>
<event>
12    1  0.8052519E-002  0.1921668E+03  0.7818608E-02  0.1156776E+00
         21   -1    0    0  501  502  0.00000000000E+00  0.00000000000E+00  0.99084015053E+03  0.99084015053E+03  0.00000000000E+00 0.  1.
         21   -1    0    0  502  503 -0.00000000000E+00 -0.00000000000E+00 -0.21647671943E+03  0.21647671943E+03  0.00000000000E+00 0. -1.
         -6    2    1    2    0  503 -0.80660673946E+02  0.20199842185E+02 -0.16220093520E+03  0.25147010937E+03  0.17324518632E+03 0.  0.
        -24    2    3    3    0    0  0.20521456079E+02  0.34696081426E+02 -0.81569903502E+02  0.12119571565E+03  0.80061252227E+02 0.  0.
          6    2    1    2  501    0  0.80660673946E+02 -0.20199842185E+02  0.93656436630E+03  0.95584676059E+03  0.17197685763E+03 0.  0.
         24    2    5    5    0    0  0.48363920018E+02  0.52287889949E+01  0.88417088512E+03  0.88908702371E+03  0.79694244719E+02 0.  0.
          5    1    5    5  501    0  0.32296753929E+02 -0.25428631179E+02  0.52393481181E+02  0.66759736880E+02  0.47000000000E+01 0. -1.
        -11    1    6    6    0    0 -0.86263850330E+01 -0.26554370882E+02  0.29191840078E+03  0.29325057859E+03  0.00000000000E+00 0.  1.
         12    1    6    6    0    0  0.56990305051E+02  0.31783159877E+02  0.59225248434E+03  0.59583644511E+03  0.00000000000E+00 0. -1.
         -5    1    3    3    0  503 -0.10118213002E+03 -0.14496239241E+02 -0.80631031695E+02  0.13027439373E+03  0.47000000000E+01 0.  1.
         11    1    4    4    0    0 -0.45324282734E+01 -0.90166078287E+01 -0.68371401321E+02  0.69112159866E+02  0.00000000000E+00 0. -1.
        -12    1    4    4    0    0  0.25053884352E+02  0.43712689255E+02 -0.13198502181E+02  0.52083555781E+02  0.00000000000E+00 0.  1.
</event>
<event>
12    1  0.8052519E-002  0.2190148E+03  0.7818608E-02  0.1135337E+00
         21   -1    0    0  501  502  0.00000000000E+00  0.00000000000E+00  0.69815903558E+02  0.69815903558E+02  0.00000000000E+00 0. -1.
         21   -1    0    0  502  503 -0.00000000000E+00 -0.00000000000E+00 -0.67825679798E+03  0.67825679798E+03  0.00000000000E+00 0. -1.
         -6    2    1    2    0  503  0.12821871507E+03 -0.14434884909E+02 -0.27654726947E+03  0.35042857209E+03  0.17225965022E+03 0.  0.
        -24    2    3    3    0    0  0.13274593339E+03 -0.56215861955E+02 -0.25197082370E+03  0.30151806775E+03  0.81499344877E+02 0.  0.
          6    2    1    2  501    0 -0.12821871507E+03  0.14434884909E+02 -0.33189362496E+03  0.39764412945E+03  0.17697194862E+03 0.  0.
         24    2    5    5    0    0 -0.15607165289E+03 -0.41718696878E+01 -0.22351642854E+03  0.28411129646E+03  0.79899121523E+02 0.  0.
          5    1    5    5  501    0  0.27852937813E+02  0.18606754597E+02 -0.10837719642E+03  0.11353283298E+03  0.47000000000E+01 0. -1.
        -11    1    6    6    0    0 -0.63703155253E+02  0.30108585057E+02 -0.56993507013E+02  0.90624934344E+02  0.00000000000E+00 0.  1.
         12    1    6    6    0    0 -0.92368497634E+02 -0.34280454745E+02 -0.16652292152E+03  0.19348636212E+03  0.00000000000E+00 0. -1.
         -5    1    3    3    0  503 -0.45272183180E+01  0.41780977046E+02 -0.24576445764E+02  0.48910504342E+02  0.47000000000E+01 0.  1.
         13    1    4    4    0    0  0.12126455037E+03 -0.66246932780E+02 -0.17461934956E+03  0.22267838809E+03  0.00000000000E+00 0. -1.
        -14    1    4    4    0    0  0.11481383023E+02  0.10031070826E+02 -0.77351474140E+02  0.78839679664E+02  0.00000000000E+00 0.  1.
</event>
<event>
12    1  0.8052519E-002  0.1802789E+03  0.7818608E-02  0.1167952E+00
         21   -1    0    0  503  502  0.00000000000E+00  0.00000000000E+00  0.11129500534E+03  0.11129500534E+03  0.00000000000E+00 0.  1.
         21   -1    0    0  501  503 -0.00000000000E+00 -0.00000000000E+00 -0.28948182336E+03  0.28948182336E+03  0.00000000000E+00 0.  1.
          6    2    1    2  501    0  0.50370915899E+02 -0.38387116447E+01 -0.83621075812E+02  0.19872836032E+03  0.17305638387E+03 0.  0.
         24    2    3    3    0    0 -0.23520254012E+02  0.41297347811E+02 -0.55326512113E+02  0.10751519686E+03  0.78992539695E+02 0.  0.
         -6    2    1    2    0  502 -0.50370915899E+02  0.38387116447E+01 -0.94565742203E+02  0.20204846838E+03  0.17125693884E+03 0.  0.
        -24    2    5    5    0    0 -0.88061669585E+02  0.27574872531E+02 -0.27249378589E+02  0.12119315898E+03  0.73688682346E+02 0.  0.
          5    1    3    3  501    0  0.73891169911E+02 -0.45136059456E+02 -0.28294563699E+02  0.91213163463E+02  0.47000000000E+01 0. -1.
        -11    1    4    4    0    0 -0.13822212357E+02 -0.21281422891E+02 -0.30049636213E+02  0.39331071066E+02  0.00000000000E+00 0.  1.
         12    1    4    4    0    0 -0.96980416558E+01  0.62578770702E+02 -0.25276875900E+02  0.68184125790E+02  0.00000000000E+00 0. -1.
         -5    1    5    5    0  502  0.37690753686E+02 -0.23736160886E+02 -0.67316363614E+02  0.80855309394E+02  0.47000000000E+01 0.  1.
         13    1    6    6    0    0 -0.32105310830E+02  0.44250263483E+02 -0.30705075344E+02  0.62702778676E+02  0.00000000000E+00 0. -1.
        -14    1    6    6    0    0 -0.55956358755E+02 -0.16675390952E+02  0.34556967549E+01  0.58490380308E+02  0.00000000000E+00 0.  1.
</event>
<event>
12    1  0.8052519E-002  0.3048607E+03  0.7818608E-02  0.1082902E+00
         21   -1    0    0  501  502  0.00000000000E+00  0.00000000000E+00  0.21007296967E+04  0.21007296967E+04  0.00000000000E+00 0. -1.
         21   -1    0    0  502  503 -0.00000000000E+00 -0.00000000000E+00 -0.60722547916E+02  0.60722547916E+02  0.00000000000E+00 0. -1.
         -6    2    1    2    0  503 -0.21331314629E+03  0.13310838351E+03  0.45629247093E+03  0.54876488043E+03  0.17239412643E+03 0.  0.
        -24    2    3    3    0    0 -0.76041521318E+02  0.81289399811E+02  0.32101309888E+03  0.34913696506E+03  0.80355032394E+02 0.  0.
          6    2    1    2  501    0  0.21331314629E+03 -0.13310838351E+03  0.15837146779E+04  0.16126873642E+04  0.17142932537E+03 0.  0.
         24    2    5    5    0    0  0.16370597170E+03 -0.16011515142E+03  0.13809067838E+04  0.14021087110E+04  0.81048041556E+02 0.  0.
          5    1    5    5  501    0  0.49607174597E+02  0.27006767904E+02  0.20280789405E+03  0.21057865318E+03  0.47000000000E+01 0. -1.
        -11    1    6    6    0    0  0.65961720075E+02 -0.15996834239E+02  0.44368946752E+03  0.44885096726E+03  0.00000000000E+00 0.  1.
         12    1    6    6    0    0  0.97744251621E+02 -0.14411831718E+03  0.93721731630E+03  0.95325774376E+03  0.00000000000E+00 0. -1.
         -5    1    3    3    0  503 -0.13727162498E+03  0.51818983701E+02  0.13527937205E+03  0.19962791537E+03  0.47000000000E+01 0.  1.
         13    1    4    4    0    0 -0.64556436289E+02  0.19610211699E+02  0.11046064641E+03  0.12943588480E+03  0.00000000000E+00 0. -1.
        -14    1    4    4    0    0 -0.11485085029E+02  0.61679188113E+02  0.21055245247E+03  0.21970108026E+03  0.00000000000E+00 0.  1.
</event>
<event>
12    1  0.8052519E-002  0.1727956E+03  0.7818608E-02  0.1175318E+00
         21   -1    0    0  501  502  0.00000000000E+00  0.00000000000E+00  0.78913212206E+03  0.78913212206E+03  0.00000000000E+00 0.  1.
         21   -1    0    0  502  503 -0.00000000000E+00 -0.00000000000E+00 -0.39364788571E+02  0.39364788571E+02  0.00000000000E+00 0.  1.
         -6    2    1    2    0  503 -0.70158204216E+01  0.11986916518E+02  0.28413208963E+03  0.33183353204E+03  0.17084946803E+03 0.  0.
        -24    2    3    3    0    0  0.45328165590E+02 -0.69585439324E+01  0.25061712195E+03  0.26668626501E+03  0.78800749990E+02 0.  0.
          6    2    1    2  501    0  0.70158204216E+01 -0.11986916518E+02  0.46563524386E+03  0.49666337859E+03  0.17223653330E+03 0.  0.
         24    2    5    5    0    0  0.40427005444E+02 -0.39461182353E+02  0.41777319216E+03  0.43197946590E+03  0.94235296949E+02 0.  0.
          5    1    5    5  501    0 -0.33411185022E+02  0.27474265835E+02  0.47862051701E+02  0.64683912689E+02  0.47000000000E+01 0. -1.
        -11    1    6    6    0    0  0.67775185431E+02 -0.16485560737E+02  0.32854626607E+03  0.33586887087E+03  0.00000000000E+00 0.  1.
         12    1    6    6    0    0 -0.27348179987E+02 -0.22975621616E+02  0.89226926088E+02  0.96110595027E+02  0.00000000000E+00 0. -1.
         -5    1    3    3    0  503 -0.52343986011E+02  0.18945460451E+02  0.33514967674E+02  0.65147267030E+02  0.47000000000E+01 0.  1.
         11    1    4    4    0    0  0.62813678543E+01  0.25066859932E+02  0.16711328455E+03  0.16909953555E+03  0.00000000000E+00 0. -1.
        -12    1    4    4    0    0  0.39046797735E+02 -0.32025403864E+02  0.83503837400E+02  0.97586729459E+02  0.00000000000E+00 0.  1.
</event>
<event>
12    1  0.8052519E-002  0.1786512E+03  0.7818608E-02  0.1169544E+00
         21   -1    0    0  501  502  0.00000000000E+00  0.00000000000E+00  0.10230877682E+04  0.10230877682E+04  0.00000000000E+00 0.  1.
         21   -1    0    0  502  503 -0.00000000000E+00 -0.00000000000E+00 -0.11528773674E+03  0.11528773674E+03  0.00000000000E+00 0.  1.
         -6    2    1    2    0  503  0.38342735405E+02 -0.24271250175E+02 -0.32496171470E+02  0.18158262219E+03  0.17279174916E+03 0.  0.
        -24    2    3    3    0    0 -0.56479964655E+01 -0.15269907895E+02  0.43882968686E+02  0.92857926053E+02  0.80198563197E+02 0.  0.
          6    2    1    2  501    0 -0.38342735405E+02  0.24271250175E+02  0.94029620298E+03  0.95679288280E+03  0.17098658513E+03 0.  0.
         24    2    5    5    0    0  0.29371301063E+02  0.22261837803E+02  0.29489737614E+03  0.30783143235E+03  0.80233817966E+02 0.  0.
          5    1    5    5  501    0 -0.67714036468E+02  0.20094123720E+01  0.64539882684E+03  0.64896145044E+03  0.47000000000E+01 0. -1.
        -11    1    6    6    0    0  0.24747206350E+02  0.29368858879E+02  0.29668977759E+03  0.29916513537E+03  0.00000000000E+00 0.  1.
         12    1    6    6    0    0  0.46240947126E+01 -0.71070210759E+01 -0.17924014537E+01  0.86662969863E+01  0.00000000000E+00 0. -1.
         -5    1    3    3    0  503  0.43990731871E+02 -0.90013422804E+01 -0.76379140157E+02  0.88724696136E+02  0.47000000000E+01 0.  1.
         11    1    4    4    0    0 -0.14053576483E+01 -0.42630201268E+02  0.48718188904E+02  0.64751610176E+02  0.00000000000E+00 0. -1.
        -12    1    4    4    0    0 -0.42426388172E+01  0.27360293373E+02 -0.48352202180E+01  0.28106315877E+02  0.00000000000E+00 0.  1.
</event>
<event>
12    1  0.8052519E-002  0.1776130E+03  0.7818608E-02  0.1170422E+00
         21   -1    0    0  503  502  0.00000000000E+00  0.00000000000E+00  0.59604884762E+03  0.59604884762E+03  0.00000000000E+00 0. -1.
         21   -1    0    0  501  503 -0.00000000000E+00 -0.00000000000E+00 -0.11429745117E+03  0.11429745117E+03  0.00000000000E+00 0. -1.
          6    2    1    2  501    0 -0.13152517855E+02 -0.43625215524E+02 -0.19752730391E+02  0.17870797451E+03  0.17166893033E+03 0.  0.
         24    2    3    3    0    0  0.54493552345E+02 -0.25444248524E+02 -0.30487045862E+02  0.10768787945E+03  0.83965840578E+02 0.  0.
         -6    2    1    2    0  502  0.13152517855E+02  0.43625215524E+02  0.50150412684E+03  0.53163832428E+03  0.17046046594E+03 0.  0.
        -24    2    5    5    0    0 -0.11840491248E+02 -0.38015509718E+02  0.26189216085E+03  0.27722558331E+03  0.81738264687E+02 0.  0.
          5    1    3    3  501    0 -0.67646070200E+02 -0.18180966999E+02  0.10734315471E+02  0.71020095066E+02  0.47000000000E+01 0. -1.
        -11    1    4    4    0    0  0.41034740098E+02  0.87045408984E+01 -0.50685260620E+02  0.65792207527E+02  0.00000000000E+00 0.  1.
         12    1    4    4    0    0  0.13458812247E+02 -0.34148789423E+02  0.20198214758E+02  0.41895671919E+02  0.00000000000E+00 0. -1.
         -5    1    5    5    0  502  0.24993009103E+02  0.81640725242E+02  0.23961196599E+03  0.25441274096E+03  0.47000000000E+01 0.  1.
         13    1    6    6    0    0 -0.41209951315E+02  0.19139651239E+01  0.11255903764E+03  0.11988102562E+03  0.00000000000E+00 0. -1.
        -14    1    6    6    0    0  0.29369460067E+02 -0.39929474842E+02  0.14933312322E+03  0.15734455769E+03  0.00000000000E+00 0.  1.
</event>
<event>
12    1  0.8052519E-002  0.2033820E+03  0.7818608E-02  0.1146992E+00
         21   -1    0    0  503  502  0.00000000000E+00  0.00000000000E+00  0.72104192096E+03  0.72104192096E+03  0.00000000000E+00 0. -1.
         21   -1    0    0  501  503 -0.00000000000E+00 -0.00000000000E+00 -0.61291302446E+02  0.61291302446E+02  0.00000000000E+00 0.  1.
          6    2    1    2  501    0  0.95791806291E+02  0.49240471752E+02  0.22932932304E+03  0.30627993199E+03  0.17208940735E+03 0.  0.
         24    2    3    3    0    0  0.12418476652E+03  0.12222474447E+02  0.20596137840E+03  0.25389059002E+03  0.80430698058E+02 0.  0.
         -6    2    1    2    0  502 -0.95791806291E+02 -0.49240471752E+02  0.43042129547E+03  0.47605329141E+03  0.17252115946E+03 0.  0.
        -24    2    5    5    0    0  0.12331499141E+02 -0.25133325707E+02  0.12680895696E+03  0.15282837628E+03  0.80574506506E+02 0.  0.
          5    1    3    3  501    0 -0.28392960233E+02  0.37017997305E+02  0.23367944641E+02  0.52389341970E+02  0.47000000000E+01 0. -1.
        -13    1    4    4    0    0 -0.18149286285E+01 -0.64284700570E-01 -0.64026025993E+01  0.66551798242E+01  0.00000000000E+00 0.  1.
         14    1    4    4    0    0  0.12599969515E+03  0.12286759147E+02  0.21236398100E+03  0.24723541020E+03  0.00000000000E+00 0. -1.
         -5    1    5    5    0  502 -0.10812330543E+03 -0.24107146045E+02  0.30361233851E+03  0.32322491513E+03  0.47000000000E+01 0.  1.
         11    1    6    6    0    0  0.21476092218E+02  0.25335513537E+01  0.12125071401E+03  0.12316402506E+03  0.00000000000E+00 0. -1.
        -12    1    6    6    0    0 -0.91445930775E+01 -0.27666877061E+02  0.55582429481E+01  0.29664351224E+02  0.00000000000E+00 0.  1.
</event>
<event>
12    1  0.8052519E-002  0.3592678E+03  0.7818608E-02  0.1058881E+00
         21   -1    0    0  503  502  0.00000000000E+00  0.00000000000E+00  0.33481496507E+03  0.33481496507E+03  0.00000000000E+00 0. -1.
         21   -1    0    0  501  503 -0.00000000000E+00 -0.00000000000E+00 -0.51995541097E+03  0.51995541097E+03  0.00000000000E+00 0. -1.
          6    2    1    2  501    0 -0.27682454070E+03 -0.15320979661E+03 -0.30996149744E+03  0.47449917451E+03  0.17020067159E+03 0.  0.
         24    2    3    3    0    0 -0.61545495407E+02 -0.87361647838E+02 -0.10420808123E+03  0.16947851239E+03  0.80272887399E+02 0.  0.
         -6    2    1    2    0  502  0.27682454070E+03  0.15320979661E+03  0.12482105153E+03  0.38027120153E+03  0.17006123515E+03 0.  0.
        -24    2    5    5    0    0  0.27281668434E+03  0.10548994185E+03  0.77232899011E+02  0.31259572805E+03  0.78702588375E+02 0.  0.
          5    1    3    3  501    0 -0.21527904529E+03 -0.65848148768E+02 -0.20575341621E+03  0.30502066212E+03  0.47000000000E+01 0. -1.
        -11    1    4    4    0    0 -0.55283959008E+02 -0.43994141307E+02 -0.18210935109E+02  0.72961899307E+02  0.00000000000E+00 0.  1.
         12    1    4    4    0    0 -0.62615363988E+01 -0.43367506531E+02 -0.85997146117E+02  0.96516613083E+02  0.00000000000E+00 0. -1.
         -5    1    5    5    0  502  0.40078563519E+01  0.47719854761E+02  0.47588152519E+02  0.67675473483E+02  0.47000000000E+01 0.  1.
         13    1    6    6    0    0  0.20324086516E+03  0.11346065218E+03  0.55847038702E+02  0.23937222185E+03  0.00000000000E+00 0. -1.
        -14    1    6    6    0    0  0.69575819182E+02 -0.79707103298E+01  0.21385860309E+02  0.73223506193E+02  0.00000000000E+00 0.  1.
</event>
<event>
12    1  0.8052519E-002  0.1768056E+03  0.7818608E-02  0.1171185E+00
         21   -1    0    0  501  502  0.00000000000E+00  0.00000000000E+00  0.42773045013E+02  0.42773045013E+02  0.00000000000E+00 0.  1.
         21   -1    0    0  502  503 -0.00000000000E+00 -0.00000000000E+00 -0.10997678416E+04  0.10997678416E+04  0.00000000000E+00 0.  1.
         -6    2    1    2    0  503  0.31467876406E+02 -0.22451000851E+02 -0.86024407707E+03  0.87802045769E+03  0.17148112814E+03 0.  0.
        -24    2    3    3    0    0  0.43921332056E+02 -0.52048572690E+02 -0.31560165666E+03  0.33241202582E+03  0.79089897565E+02 0.  0.
          6    2    1    2  501    0 -0.31467876406E+02  0.22451000851E+02 -0.19675071954E+03  0.26452042894E+03  0.17252807599E+03 0.  0.
         24    2    5    5    0    0  0.18597669392E+02 -0.14079823867E+02 -0.17656399044E+03  0.19917018746E+03  0.89161685188E+02 0.  0.
          5    1    5    5  501    0 -0.50065545798E+02  0.36530824718E+02 -0.20186729105E+02  0.65350241489E+02  0.47000000000E+01 0. -1.
        -11    1    6    6    0    0  0.44463476356E+01 -0.34698158380E+02 -0.19344513423E+02  0.39974271749E+02  0.00000000000E+00 0.  1.
         12    1    6    6    0    0  0.14151321756E+02  0.20618334513E+02 -0.15721947701E+03  0.15919591571E+03  0.00000000000E+00 0. -1.
         -5    1    3    3    0  503 -0.12453455649E+02  0.29597571839E+02 -0.54464242041E+03  0.54560843187E+03  0.47000000000E+01 0.  1.
         11    1    4    4    0    0 -0.20326171654E+02 -0.30409917272E+02 -0.11042992718E+03  0.11633006980E+03  0.00000000000E+00 0. -1.
        -12    1    4    4    0    0  0.64247503710E+02 -0.21638655418E+02 -0.20517172948E+03  0.21608195602E+03  0.00000000000E+00 0.  1.
</event>
<event>
12    1  0.8052519E-002  0.2269863E+03  0.7818608E-02  0.1129405E+00
         21   -1    0    0  503  502  0.00000000000E+00  0.00000000000E+00  0.85448381494E+03  0.85448381494E+03  0.00000000000E+00 0.  1.
         21   -1    0    0  501  503 -0.00000000000E+00 -0.00000000000E+00 -0.71448787315E+02  0.71448787315E+02  0.00000000000E+00 0. -1.
          6    2    1    2  501    0 -0.17602504894E+01  0.14574128717E+03  0.19872860088E+03  0.29908589465E+03  0.16945705739E+03 0.  0.
         24    2    3    3    0    0  0.22592310923E+02  0.12254666216E+03  0.21491364931E+03  0.26146829678E+03  0.81545672114E+02 0.  0.
         -6    2    1    2    0  502  0.17602504894E+01 -0.14574128717E+03  0.58430642674E+03  0.62684670761E+03  0.17400911827E+03 0.  0.
        -24    2    5    5    0    0 -0.57550007348E+01  0.58026078110E+00  0.22441824373E+03  0.23824914114E+03  0.79785013614E+02 0.  0.
          5    1    3    3  501    0 -0.24352561412E+02  0.23194625011E+02 -0.16185048428E+02  0.37617597868E+02  0.47000000000E+01 0. -1.
        -11    1    4    4    0    0  0.23324207837E+02  0.44748301292E+02  0.15576655963E+03  0.16373652690E+03  0.00000000000E+00 0.  1.
         12    1    4    4    0    0 -0.73189691480E+00  0.77798360869E+02  0.59147089675E+02  0.97731769880E+02  0.00000000000E+00 0. -1.
         -5    1    5    5    0  502  0.75152512243E+01 -0.14632154795E+03  0.35988818301E+03  0.38859756647E+03  0.47000000000E+01 0.  1.
         13    1    6    6    0    0  0.30013342136E+00 -0.15302734739E+02  0.22020555242E+03  0.22073683220E+03  0.00000000000E+00 0. -1.
        -14    1    6    6    0    0 -0.60551341562E+01  0.15882995520E+02  0.42126913072E+01  0.17512308940E+02  0.00000000000E+00 0.  1.
</event>
<event>
12    1  0.8052519E-002  0.2264949E+03  0.7818608E-02  0.1129169E+00
         21   -1    0    0  503  502  0.00000000000E+00  0.00000000000E+00  0.25404398859E+03  0.25404398859E+03  0.00000000000E+00 0.  1.
         21   -1    0    0  501  503 -0.00000000000E+00 -0.00000000000E+00 -0.35815504901E+03  0.35815504901E+03  0.00000000000E+00 0.  1.
          6    2    1    2  501    0  0.13241567358E+03  0.64361876891E+02 -0.25432293042E+03  0.34042052783E+03  0.17184184887E+03 0.  0.
         24    2    3    3    0    0  0.32174441639E+02  0.73613921677E+02 -0.18946488269E+03  0.22057662407E+03  0.79390812777E+02 0.  0.
         -6    2    1    2    0  502 -0.13241567358E+03 -0.64361876891E+02  0.15021187000E+03  0.27177850977E+03  0.17211505070E+03 0.  0.
        -24    2    5    5    0    0 -0.92039177303E+01 -0.20064515275E+02  0.14970207015E+02  0.83481429519E+02  0.79105910661E+02 0.  0.
          5    1    3    3  501    0  0.10024123194E+03 -0.92520447864E+01 -0.64858047729E+02  0.11984390376E+03  0.47000000000E+01 0. -1.
        -11    1    4    4    0    0  0.15606341922E+02  0.65155853819E+02 -0.19050734022E+03  0.20194526454E+03  0.00000000000E+00 0.  1.
         12    1    4    4    0    0  0.16568099717E+02  0.84580678583E+01  0.10424575251E+01  0.18631359527E+02  0.00000000000E+00 0. -1.
         -5    1    5    5    0  502 -0.12321175585E+03 -0.44297361616E+02  0.13524166298E+03  0.18829708025E+03  0.47000000000E+01 0.  1.
         11    1    6    6    0    0 -0.10773001031E+02  0.18440036521E+02  0.34271869784E+02  0.40381351595E+02  0.00000000000E+00 0. -1.
        -12    1    6    6    0    0  0.15690833004E+01 -0.38504551796E+02 -0.19301662769E+02  0.43100077924E+02  0.00000000000E+00 0.  1.
</event>
<event>
12    1  0.8052519E-002  0.2000497E+03  0.7818608E-02  0.1149814E+00
         21   -1    0    0  503  502  0.00000000000E+00  0.00000000000E+00  0.96914765590E+02  0.96914765590E+02  0.00000000000E+00 0.  1.
         21   -1    0    0  501  503 -0.00000000000E+00 -0.00000000000E+00 -0.41220400236E+03  0.41220400236E+03  0.00000000000E+00 0. -1.
          6    2    1    2  501    0  0.86552137732E+02 -0.51486723235E+02 -0.14938034371E+03  0.24922335848E+03  0.17220813020E+03 0.  0.
         24    2    3    3    0    0 -0.82235906545E+01  0.10903007540E+02 -0.90154637318E+02  0.12114255783E+03  0.79756865975E+02 0.  0.
         -6    2    1    2    0  502 -0.86552137732E+02  0.51486723235E+02 -0.16590889306E+03  0.25989540947E+03  0.17285169323E+03 0.  0.
        -24    2    5    5    0    0 -0.48729188106E+01 -0.16252167205E+02 -0.25879263921E+02  0.84138648243E+02  0.78241277792E+02 0.  0.
          5    1    3    3  501    0  0.94775728387E+02 -0.62389730775E+02 -0.59225706394E+02  0.12808080065E+03  0.47000000000E+01 0. -1.
        -13    1    4    4    0    0 -0.53387782085E+01  0.43392987208E+02 -0.31013876277E+02  0.53603305993E+02  0.00000000000E+00 0.  1.
         14    1    4    4    0    0 -0.28848124460E+01 -0.32489979669E+02 -0.59140761041E+02  0.67539251834E+02  0.00000000000E+00 0. -1.
         -5    1    5    5    0  502 -0.81679218922E+02  0.67738890440E+02 -0.14002962914E+03  0.17575676123E+03  0.47000000000E+01 0.  1.
         11    1    6    6    0    0 -0.21821064742E+02 -0.18923881897E+02 -0.48075037775E+02  0.56084591730E+02  0.00000000000E+00 0. -1.
        -12    1    6    6    0    0  0.16948145931E+02  0.26717146924E+01  0.22195773853E+02  0.28054056513E+02  0.00000000000E+00 0.  1.
</event>
<event>
12    1  0.8052519E-002  0.2586157E+03  0.7818608E-02  0.1108468E+00
         21   -1    0    0  503  502  0.00000000000E+00  0.00000000000E+00  0.65159873960E+03  0.65159873960E+03  0.00000000000E+00 0. -1.
         21   -1    0    0  501  503 -0.00000000000E+00 -0.00000000000E+00 -0.19778584771E+03  0.19778584771E+03  0.00000000000E+00 0. -1.
          6    2    1    2  501    0  0.16980245922E+03  0.92940106263E+02 -0.68881556396E+02  0.26763169396E+03  0.17149727780E+03 0.  0.
         24    2    3    3    0    0  0.65793339073E+02  0.88958396539E+02  0.99861522716E+01  0.13695669040E+03  0.80094019915E+02 0.  0.
         -6    2    1    2    0  502 -0.16980245922E+03 -0.92940106263E+02  0.52269444829E+03  0.58175289335E+03  0.16660193317E+03 0.  0.
        -24    2    5    5    0    0 -0.61353079850E+02  0.14161329820E+02  0.24308374038E+03  0.26326235429E+03  0.79073501726E+02 0.  0.
          5    1    3    3  501    0  0.10400912015E+03  0.39817097241E+01 -0.78867708668E+02  0.13067500357E+03  0.47000000000E+01 0. -1.
        -13    1    4    4    0    0  0.48356451586E+02  0.27928831143E+01  0.74611308789E+01  0.49008316438E+02  0.00000000000E+00 0.  1.
         14    1    4    4    0    0  0.17436887486E+02  0.86165513425E+02  0.25250213927E+01  0.87948373959E+02  0.00000000000E+00 0. -1.
         -5    1    5    5    0  502 -0.10844937937E+03 -0.10710143608E+03  0.27961070790E+03  0.31849053906E+03  0.47000000000E+01 0.  1.
         13    1    6    6    0    0 -0.27547903440E+02 -0.85409302137E+01  0.20655329149E+03  0.20855717849E+03  0.00000000000E+00 0. -1.
        -14    1    6    6    0    0 -0.33805176410E+02  0.22702260033E+02  0.36530448894E+02  0.54705175799E+02  0.00000000000E+00 0.  1.
</event>
<event>
12    1  0.8052519E-002  0.1927848E+03  0.7818608E-02  0.1158912E+00
         21   -1    0    0  503  502  0.00000000000E+00  0.00000000000E+00  0.14126228258E+03  0.14126228258E+03  0.00000000000E+00 0. -1.
         21   -1    0    0  501  503 -0.00000000000E+00 -0.00000000000E+00 -0.29092335481E+03  0.29092335481E+03  0.00000000000E+00 0. -1.
          6    2    1    2  501    0  0.31538431986E+02 -0.20880944674E+02 -0.16195596419E+03  0.25178502271E+03  0.18903776549E+03 0.  0.
         24    2    3    3    0    0 -0.41286328636E+02  0.29994408753E+01 -0.21962091539E+02  0.92116325233E+02  0.79306533980E+02 0.  0.
         -6    2    1    2    0  502 -0.31538431986E+02  0.20880944674E+02  0.12294891958E+02  0.18040061468E+03  0.17596173126E+03 0.  0.
        -24    2    5    5    0    0 -0.17384900445E+02 -0.47507300373E+02 -0.32253929699E+02  0.97430969469E+02  0.76767828407E+02 0.  0.
          5    1    3    3  501    0  0.72824760622E+02 -0.23880385549E+02 -0.13999387265E+03  0.15966869748E+03  0.47000000000E+01 0. -1.
        -13    1    4    4    0    0  0.16813297067E+02  0.22283183488E+02 -0.32451894489E+01  0.28102641854E+02  0.00000000000E+00 0.  1.
         14    1    4    4    0    0 -0.58099625702E+02 -0.19283742613E+02 -0.18716902090E+02  0.64013683379E+02  0.00000000000E+00 0. -1.
         -5    1    5    5    0  502 -0.14153531541E+02  0.68388245047E+02  0.44548821657E+02  0.82969645213E+02  0.47000000000E+01 0.  1.
         13    1    6    6    0    0  0.19100604329E+02  0.25157100578E+01  0.10735417637E+02  0.22054729077E+02  0.00000000000E+00 0. -1.
        -14    1    6    6    0    0 -0.36485504774E+02 -0.50023010431E+02 -0.42989347336E+02  0.75376240392E+02  0.00000000000E+00 0.  1.
</event>
<event>
12    1  0.8052519E-002  0.1963419E+03  0.7818608E-02  0.1153405E+00
         21   -1    0    0  501  502  0.00000000000E+00  0.00000000000E+00  0.81194880995E+02  0.81194880995E+02  0.00000000000E+00 0. -1.
         21   -1    0    0  502  503 -0.00000000000E+00 -0.00000000000E+00 -0.54492671895E+03  0.54492671895E+03  0.00000000000E+00 0.  1.
         -6    2    1    2    0  503 -0.87828881249E+02  0.32503496410E+02 -0.34762026128E+03  0.39801625210E+03  0.16972537000E+03 0.  0.
        -24    2    3    3    0    0 -0.21919212502E+02 -0.46024817099E+02 -0.13807050252E+03  0.16468393146E+03  0.73882325017E+02 0.  0.
          6    2    1    2  501    0  0.87828881249E+02 -0.32503496410E+02 -0.11611157667E+03  0.22810534784E+03  0.17256813674E+03 0.  0.
         24    2    5    5    0    0  0.12230301150E+03 -0.71354989105E+01 -0.10689573659E+03  0.18407101280E+03  0.86293089441E+02 0.  0.
          5    1    5    5  501    0 -0.34474130255E+02 -0.25367997500E+02 -0.92158400788E+01  0.44034335039E+02  0.47000000000E+01 0. -1.
        -11    1    6    6    0    0  0.37636804179E+02 -0.26249704031E+02 -0.81677858691E+02  0.93684836505E+02  0.00000000000E+00 0.  1.
         12    1    6    6    0    0  0.84666207325E+02  0.19114205121E+02 -0.25217877902E+02  0.90386176300E+02  0.00000000000E+00 0. -1.
         -5    1    3    3    0  503 -0.65909668748E+02  0.78528313510E+02 -0.20954975877E+03  0.23333232064E+03  0.47000000000E+01 0.  1.
         13    1    4    4    0    0 -0.31660081641E+02  0.48204763724E+01 -0.26059885318E+02  0.41288199098E+02  0.00000000000E+00 0. -1.
        -14    1    4    4    0    0  0.97408691391E+01 -0.50845293472E+02 -0.11201061720E+03  0.12339573236E+03  0.00000000000E+00 0.  1.
</event>
<event>
12    1  0.8052519E-002  0.1844391E+03  0.7818608E-02  0.1164082E+00
         21   -1    0    0  503  502  0.00000000000E+00  0.00000000000E+00  0.20925993679E+03  0.20925993679E+03  0.00000000000E+00 0.  1.
         21   -1    0    0  501  503 -0.00000000000E+00 -0.00000000000E+00 -0.57823514058E+03  0.57823514058E+03  0.00000000000E+00 0.  1.
          6    2    1    2  501    0  0.10421329387E+02 -0.61394404271E+02 -0.51878586764E+03  0.54987978790E+03  0.17132170820E+03 0.  0.
         24    2    3    3    0    0 -0.18293719343E+02 -0.63602823781E+01 -0.44849130325E+03  0.45598237378E+03  0.80002267157E+02 0.  0.
         -6    2    1    2    0  502 -0.10421329387E+02  0.61394404271E+02  0.14981066385E+03  0.23761528947E+03  0.17360850729E+03 0.  0.
        -24    2    5    5    0    0  0.27300823203E+02  0.63665201530E+02  0.29222985807E+02  0.11115740948E+03  0.81874256936E+02 0.  0.
          5    1    3    3  501    0  0.28715048730E+02 -0.55034121893E+02 -0.70294564392E+02  0.93897414124E+02  0.47000000000E+01 0. -1.
        -11    1    4    4    0    0 -0.24897719232E+02 -0.33735313635E+02 -0.37405250726E+03  0.37639506638E+03  0.00000000000E+00 0.  1.
         12    1    4    4    0    0  0.66039998892E+01  0.27375031257E+02 -0.74438795985E+02  0.79587307396E+02  0.00000000000E+00 0. -1.
         -5    1    5    5    0  502 -0.37722152589E+02 -0.22707972589E+01  0.12058767805E+03  0.12645787999E+03  0.47000000000E+01 0.  1.
         11    1    6    6    0    0  0.11060909031E+02  0.23778494768E+02 -0.28765782982E+02  0.38925965533E+02  0.00000000000E+00 0. -1.
        -12    1    6    6    0    0  0.16239914172E+02  0.39886706761E+02  0.57988768789E+02  0.72231443944E+02  0.00000000000E+00 0.  1.
</event>
<event>
12    1  0.8052519E-002  0.2005728E+03  0.7818608E-02  0.1149890E+00
         21   -1    0    0  501  502  0.00000000000E+00  0.00000000000E+00  0.30876057080E+03  0.30876057080E+03  0.00000000000E+00 0.  1.
         21   -1    0    0  502  503 -0.00000000000E+00 -0.00000000000E+00 -0.13852675726E+03  0.13852675726E+03  0.00000000000E+00 0.  1.
         -6    2    1    2    0  503 -0.86430043004E+02  0.49346089929E+02  0.23934718982E+02  0.19902760159E+03  0.17068663245E+03 0.  0.
        -24    2    3    3    0    0 -0.10751436595E+03  0.73197629471E+02  0.14205451220E+02  0.16540925446E+03  0.10119878839E+03 0.  0.
          6    2    1    2  501    0  0.86430043004E+02 -0.49346089929E+02  0.14629909456E+03  0.24825972647E+03  0.17413867404E+03 0.  0.
         24    2    5    5    0    0  0.95541481571E+02  0.17391436035E+02  0.60077583582E+02  0.13874646408E+03  0.78807540869E+02 0.  0.
          5    1    5    5  501    0 -0.91114385676E+01 -0.66737525964E+02  0.86221510978E+02  0.10951326239E+03  0.47000000000E+01 0. -1.
        -11    1    6    6    0    0  0.27623317800E+02 -0.24294897464E+02  0.44171026736E+02  0.57483644039E+02  0.00000000000E+00 0.  1.
         12    1    6    6    0    0  0.67918163771E+02  0.41686333499E+02  0.15906556846E+02  0.81262820042E+02  0.00000000000E+00 0. -1.
         -5    1    3    3    0  503  0.21084322943E+02 -0.23851539541E+02  0.97292677622E+01  0.33618347129E+02  0.47000000000E+01 0.  1.
         11    1    4    4    0    0 -0.25646370309E+02 -0.23936796835E+02  0.15539243920E+02  0.38368928241E+02  0.00000000000E+00 0. -1.
        -12    1    4    4    0    0 -0.81867995639E+02  0.97134426306E+02 -0.13337927007E+01  0.12704032622E+03  0.00000000000E+00 0.  1.
</event>
<event>
12    1  0.8052519E-002  0.2341089E+03  0.7818608E-02  0.1123800E+00
         21   -1    0    0  503  502  0.00000000000E+00  0.00000000000E+00  0.11989543001E+03  0.11989543001E+03  0.00000000000E+00 0. -1.
         21   -1    0    0  501  503 -0.00000000000E+00 -0.00000000000E+00 -0.45799986621E+03  0.45799986621E+03  0.00000000000E+00 0.  1.
          6    2    1    2  501    0  0.14180427942E+03 -0.72356021027E+02 -0.18325710752E+03  0.29730480991E+03  0.17164828894E+03 0.  0.
         24    2    3    3    0    0  0.12172795430E+03  0.10337305392E+02 -0.11598385083E+03  0.18872752807E+03  0.85095660640E+02 0.  0.
         -6    2    1    2    0  502 -0.14180427942E+03  0.72356021027E+02 -0.15484732867E+03  0.28059048630E+03  0.17149191925E+03 0.  0.
        -24    2    5    5    0    0 -0.91625627204E+02  0.53413770020E+02 -0.17722823883E+03  0.22228353003E+03  0.82169536301E+02 0.  0.
          5    1    3    3  501    0  0.20076325120E+02 -0.82693326419E+02 -0.67273256694E+02  0.10857728184E+03  0.47000000000E+01 0. -1.
        -13    1    4    4    0    0  0.33092883300E+02  0.27441150048E+02 -0.81408107761E+02  0.92062129295E+02  0.00000000000E+00 0.  1.
         14    1    4    4    0    0  0.88635070996E+02 -0.17103844656E+02 -0.34575743070E+02  0.96665398780E+02  0.00000000000E+00 0. -1.
         -5    1    5    5    0  502 -0.50178652212E+02  0.18942251007E+02  0.22380910153E+02  0.58306956277E+02  0.47000000000E+01 0.  1.
         11    1    6    6    0    0  0.13443841310E+02  0.13203459189E+02 -0.44285966943E+02  0.48128111035E+02  0.00000000000E+00 0. -1.
        -12    1    6    6    0    0 -0.10506946851E+03  0.40210310831E+02 -0.13294227188E+03  0.17415541899E+03  0.00000000000E+00 0.  1.
</event>
<event>
12    1  0.8052519E-002  0.1768934E+03  0.7818608E-02  0.1171174E+00
         21   -1    0    0  503  502  0.00000000000E+00  0.00000000000E+00  0.88463744332E+03  0.88463744332E+03  0.00000000000E+00 0.  1.
         21   -1    0    0  501  503 -0.00000000000E+00 -0.00000000000E+00 -0.12386149501E+03  0.12386149501E+03  0.00000000000E+00 0.  1.
          6    2    1    2  501    0  0.18836661516E+02  0.32596318871E+02 -0.46052672176E+02  0.18278984336E+03  0.17284078917E+03 0.  0.
         24    2    3    3    0    0 -0.27285296748E+02  0.27803292111E+02 -0.85233820347E+02  0.12190092391E+03  0.77958454630E+02 0.  0.
         -6    2    1    2    0  502 -0.18836661516E+02 -0.32596318871E+02  0.80682862049E+03  0.82570909497E+03  0.17148103935E+03 0.  0.
        -24    2    5    5    0    0 -0.95822674853E+01 -0.26680717097E+02  0.80921891223E+03  0.81352543182E+03  0.78642862349E+02 0.  0.
          5    1    3    3  501    0  0.46121958264E+02  0.47930267605E+01  0.39181148171E+02  0.60888919449E+02  0.47000000000E+01 0. -1.
        -13    1    4    4    0    0 -0.11730800513E+02 -0.24283423672E+02 -0.93243433082E+01  0.28534886088E+02  0.00000000000E+00 0.  1.
         14    1    4    4    0    0 -0.15554496235E+02  0.52086715783E+02 -0.75909477038E+02  0.93366037821E+02  0.00000000000E+00 0. -1.
         -5    1    5    5    0  502 -0.92543940310E+01 -0.59156017738E+01 -0.23902917364E+01  0.12183663152E+02  0.47000000000E+01 0.  1.
         13    1    6    6    0    0 -0.12758855287E+02  0.13567579606E+02  0.52064712589E+02  0.55295586637E+02  0.00000000000E+00 0. -1.
        -14    1    6    6    0    0  0.31765878016E+01 -0.40248296703E+02  0.75715419964E+03  0.75822984518E+03  0.00000000000E+00 0.  1.
</event>
<event>
12    1  0.8052519E-002  0.1871325E+03  0.7818608E-02  0.1161110E+00
         21   -1    0    0  503  502  0.00000000000E+00  0.00000000000E+00  0.52976784626E+03  0.52976784626E+03  0.00000000000E+00 0. -1.
         21   -1    0    0  501  503 -0.00000000000E+00 -0.00000000000E+00 -0.92925919333E+02  0.92925919333E+02  0.00000000000E+00 0. -1.
          6    2    1    2  501    0 -0.58276919183E+02  0.45079495472E+02  0.50903888951E+02  0.19378030113E+03  0.17184655648E+03 0.  0.
         24    2    3    3    0    0  0.18481582831E+02 -0.96660484561E+01 -0.82444549811E+01  0.82382101858E+02  0.79270664636E+02 0.  0.
         -6    2    1    2    0  502  0.58276919183E+02 -0.45079495472E+02  0.38593803798E+03  0.42891346446E+03  0.17201811131E+03 0.  0.
        -24    2    5    5    0    0  0.66642362699E+02 -0.64009417265E+02  0.38867292602E+03  0.40751504871E+03  0.80395655980E+02 0.  0.
          5    1    3    3  501    0 -0.76758502013E+02  0.54745543929E+02  0.59148343932E+02  0.11139819927E+03  0.47000000000E+01 0. -1.
        -11    1    4    4    0    0  0.24533605534E+02 -0.28461560855E+02  0.23989563555E+02  0.44580908541E+02  0.00000000000E+00 0.  1.
         12    1    4    4    0    0 -0.60520227037E+01  0.18795512399E+02 -0.32234018536E+02  0.37801193316E+02  0.00000000000E+00 0. -1.
         -5    1    5    5    0  502 -0.83654435165E+01  0.18929921793E+02 -0.27348880384E+01  0.21398415757E+02  0.47000000000E+01 0.  1.
         11    1    6    6    0    0  0.63448358143E+02 -0.61655859437E+02  0.19876067144E+03  0.21756135609E+03  0.00000000000E+00 0. -1.
        -12    1    6    6    0    0  0.31940045563E+01 -0.23535578283E+01  0.18991225458E+03  0.18995369262E+03  0.00000000000E+00 0.  1.
</event>
<event>
12    1  0.8052519E-002  0.2183422E+03  0.7818608E-02  0.1135451E+00
         21   -1    0    0  501  502  0.00000000000E+00  0.00000000000E+00  0.86936412027E+03  0.86936412027E+03  0.00000000000E+00 0.  1.
         21   -1    0    0  502  503 -0.00000000000E+00 -0.00000000000E+00 -0.54591543972E+02  0.54591543972E+02  0.00000000000E+00 0.  1.
         -6    2    1    2    0  503 -0.82328746617E+02 -0.10489398666E+03  0.38198626628E+03  0.43998500739E+03  0.17289455789E+03 0.  0.
        -24    2    3    3    0    0  0.12915712997E+01 -0.91337579927E+02  0.29436237312E+03  0.31801710020E+03  0.78367388936E+02 0.  0.
          6    2    1    2  501    0  0.82328746617E+02  0.10489398666E+03  0.43278631001E+03  0.48397065684E+03  0.17071272828E+03 0.  0.
         24    2    5    5    0    0  0.29409016222E+02  0.11243780518E+03  0.39226950771E+03  0.41673146937E+03  0.79262857748E+02 0.  0.
          5    1    5    5  501    0  0.52919730395E+02 -0.75438185216E+01  0.40516802303E+02  0.67239187472E+02  0.47000000000E+01 0. -1.
        -11    1    6    6    0    0  0.32124704258E+02  0.24047337433E+02  0.55136042606E+02  0.68192772752E+02  0.00000000000E+00 0.  1.
         12    1    6    6    0    0 -0.27156880363E+01  0.88390467744E+02  0.33713346510E+03  0.34853869662E+03  0.00000000000E+00 0. -1.
         -5    1    3    3    0  503 -0.83620317917E+02 -0.13556406728E+02  0.87623893161E+02  0.12196790719E+03  0.47000000000E+01 0.  1.
         13    1    4    4    0    0  0.11432677462E+02  0.10513413788E+02  0.65381284503E+02  0.67200821027E+02  0.00000000000E+00 0. -1.
        -14    1    4    4    0    0 -0.10141106163E+02 -0.10185099372E+03  0.22898108862E+03  0.25081627918E+03  0.00000000000E+00 0.  1.
</event>
<event>
12    1  0.8052519E-002  0.2085295E+03  0.7818608E-02  0.1142833E+00
         21   -1    0    0  501  502  0.00000000000E+00  0.00000000000E+00  0.32879163063E+03  0.32879163063E+03  0.00000000000E+00 0. -1.
         21   -1    0    0  502  503 -0.00000000000E+00 -0.00000000000E+00 -0.17573542593E+03  0.17573542593E+03  0.00000000000E+00 0. -1.
         -6    2    1    2    0  503 -0.88911499070E+02  0.76618018848E+02 -0.49460417539E+02  0.21384245736E+03  0.17177510934E+03 0.  0.
        -24    2    3    3    0    0 -0.98245639313E+02  0.23895621430E+02  0.13214360057E+02  0.13127736116E+03  0.82679621880E+02 0.  0.
          6    2    1    2  501    0  0.88911499070E+02 -0.76618018848E+02  0.20251662223E+03  0.29068459920E+03  0.17236292656E+03 0.  0.
         24    2    5    5    0    0  0.77519440722E+02 -0.54420983143E+02  0.44266693570E+02  0.13041102899E+03  0.77952480562E+02 0.  0.
          5    1    5    5  501    0  0.11392058348E+02 -0.22197035705E+02  0.15824992866E+03  0.16027357021E+03  0.47000000000E+01 0. -1.
        -13    1    6    6    0    0 -0.19838065025E+01 -0.30858650499E+01  0.35145031903E+02  0.35335977683E+02  0.00000000000E+00 0.  1.
         14    1    6    6    0    0  0.79503247224E+02 -0.51335118093E+02  0.91216616671E+01  0.95075051304E+02  0.00000000000E+00 0. -1.
         -5    1    3    3    0  503  0.93341402428E+01  0.52722397418E+02 -0.62674777596E+02  0.82565096199E+02  0.47000000000E+01 0.  1.
         13    1    4    4    0    0  0.13430611761E+02  0.12516551511E+01 -0.75411142871E+01  0.15453684920E+02  0.00000000000E+00 0. -1.
        -14    1    4    4    0    0 -0.11167625107E+03  0.22643966279E+02  0.20755474344E+02  0.11582367624E+03  0.00000000000E+00 0.  1.
</event>
<event>
12    1  0.8052519E-002  0.1771108E+03  0.7818608E-02  0.1170758E+00
         21   -1    0    0  503  502  0.00000000000E+00  0.00000000000E+00  0.21782177421E+03  0.21782177421E+03  0.00000000000E+00 0. -1.
         21   -1    0    0  501  503 -0.00000000000E+00 -0.00000000000E+00 -0.19684631259E+03  0.19684631259E+03  0.00000000000E+00 0. -1.
          6    2    1    2  501    0 -0.33248381982E+02 -0.27800362090E+02 -0.97371947209E+02  0.20165552569E+03  0.17118802499E+03 0.  0.
         24    2    3    3    0    0 -0.21283374674E+02  0.50384307298E+02 -0.54124929153E+02  0.11138704560E+03  0.80535740584E+02 0.  0.
         -6    2    1    2    0  502  0.33248381982E+02  0.27800362090E+02  0.11834740883E+03  0.21301256110E+03  0.17172631416E+03 0.  0.
        -24    2    5    5    0    0 -0.11584488119E+01  0.78698191396E+02  0.94559275785E+02  0.14696421285E+03  0.80388282037E+02 0.  0.
          5    1    3    3  501    0 -0.11965007308E+02 -0.78184669389E+02 -0.43247018055E+02  0.90268480091E+02  0.47000000000E+01 0. -1.
        -11    1    4    4    0    0 -0.30079027993E+02 -0.13845988835E+01 -0.50443942840E+02  0.58747394907E+02  0.00000000000E+00 0.  1.
         12    1    4    4    0    0  0.87956533189E+01  0.51768906182E+02 -0.36809863136E+01  0.52639650690E+02  0.00000000000E+00 0. -1.
         -5    1    5    5    0  502  0.34406830794E+02 -0.50897829306E+02  0.23788133043E+02  0.66048348253E+02  0.47000000000E+01 0.  1.
         13    1    6    6    0    0 -0.35650837853E+02  0.33961149459E+02  0.69479265828E+02  0.85156974419E+02  0.00000000000E+00 0. -1.
        -14    1    6    6    0    0  0.34492389041E+02  0.44737041937E+02  0.25080009957E+02  0.61807238431E+02  0.00000000000E+00 0.  1.
</event>
<event>
12    1  0.8052519E-002  0.1771695E+03  0.7818608E-02  0.1171473E+00
         21   -1    0    0  503  502  0.00000000000E+00  0.00000000000E+00  0.64737923186E+03  0.64737923186E+03  0.00000000000E+00 0.  1.
         21   -1    0    0  501  503 -0.00000000000E+00 -0.00000000000E+00 -0.28872792840E+03  0.28872792840E+03  0.00000000000E+00 0.  1.
          6    2    1    2  501    0 -0.22885145859E+02  0.32016674072E+02 -0.24879531822E+03  0.30335093070E+03  0.16903810064E+03 0.  0.
         24    2    3    3    0    0 -0.30150161364E+01 -0.44172842526E+02 -0.97884660256E+02  0.13306945436E+03  0.78522242914E+02 0.  0.
         -6    2    1    2    0  502  0.22885145859E+02 -0.32016674072E+02  0.60744662169E+03  0.63275622956E+03  0.17274330820E+03 0.  0.
        -24    2    5    5    0    0  0.61747275995E+02  0.52612682968E+01  0.51988489819E+03  0.52985309274E+03  0.81385413194E+02 0.  0.
          5    1    3    3  501    0 -0.19870129723E+02  0.76189516598E+02 -0.15091065797E+03  0.17028147634E+03  0.47000000000E+01 0. -1.
        -11    1    4    4    0    0  0.99720902739E+01  0.18804602172E+02 -0.84122019526E+01  0.22887131515E+02  0.00000000000E+00 0.  1.
         12    1    4    4    0    0 -0.12987106410E+02 -0.62977444699E+02 -0.89472458303E+02  0.11018232285E+03  0.00000000000E+00 0. -1.
         -5    1    5    5    0  502 -0.38862130136E+02 -0.37277942369E+02  0.87561723498E+02  0.10290313682E+03  0.47000000000E+01 0.  1.
         13    1    6    6    0    0 -0.19870957968E+02  0.55276765601E+01  0.98408607466E+02  0.10054682592E+03  0.00000000000E+00 0. -1.
        -14    1    6    6    0    0  0.81618233963E+02 -0.26640826333E+00  0.42147629073E+03  0.42930626682E+03  0.00000000000E+00 0.  1.
</event>
<event>
12    1  0.8052519E-002  0.1909087E+03  0.7818608E-02  0.1157700E+00
         21   -1    0    0  501  502  0.00000000000E+00  0.00000000000E+00  0.86381435240E+03  0.86381435240E+03  0.00000000000E+00 0.  1.
         21   -1    0    0  502  503 -0.00000000000E+00 -0.00000000000E+00 -0.62562127821E+02  0.62562127821E+02  0.00000000000E+00 0.  1.
         -6    2    1    2    0  503 -0.50374273305E+01 -0.81930465228E+02  0.13579663144E+03  0.23407794076E+03  0.17208654926E+03 0.  0.
        -24    2    3    3    0    0 -0.21925718501E+01 -0.26853291649E+02  0.14279375604E+03  0.17828691994E+03  0.10329696226E+03 0.  0.
          6    2    1    2  501    0  0.50374273305E+01  0.81930465228E+02  0.66545559314E+03  0.69229853946E+03  0.17236050732E+03 0.  0.
         24    2    5    5    0    0  0.68000882826E+02  0.35823618543E+02  0.43233037522E+03  0.44641300659E+03  0.80421187566E+02 0.  0.
          5    1    5    5  501    0 -0.62963455496E+02  0.46106846685E+02  0.23312521793E+03  0.24588553287E+03  0.47000000000E+01 0. -1.
        -13    1    6    6    0    0  0.52245483329E+02  0.40879576059E+02  0.42138259679E+03  0.42657241254E+03  0.00000000000E+00 0.  1.
         14    1    6    6    0    0  0.15755399498E+02 -0.50559575160E+01  0.10947778429E+02  0.19840594050E+02  0.00000000000E+00 0. -1.
         -5    1    3    3    0  503 -0.28448554804E+01 -0.55077173579E+02 -0.69971246068E+01  0.55791020827E+02  0.47000000000E+01 0.  1.
         13    1    4    4    0    0  0.43741251870E+02  0.13193628120E+02  0.65479971691E+02  0.79843569752E+02  0.00000000000E+00 0. -1.
        -14    1    4    4    0    0 -0.45933823721E+02 -0.40046919768E+02  0.77313784352E+02  0.98443350184E+02  0.00000000000E+00 0.  1.
</event>
<event>
12    1  0.8052519E-002  0.2663509E+03  0.7818608E-02  0.1103605E+00
         21   -1    0    0  501  502  0.00000000000E+00  0.00000000000E+00  0.53170548547E+03  0.53170548547E+03  0.00000000000E+00 0.  1.
         21   -1    0    0  502  503 -0.00000000000E+00 -0.00000000000E+00 -0.13307967029E+03  0.13307967029E+03  0.00000000000E+00 0. -1.
         -6    2    1    2    0  503  0.19814738603E+03 -0.34985994278E+02  0.21819128275E+03  0.34431124091E+03  0.17451758755E+03 0.  0.
        -24    2    3    3    0    0  0.55212319577E+02  0.38338533539E+02  0.69424512922E+02  0.12531224227E+03  0.79781900715E+02 0.  0.
          6    2    1    2  501    0 -0.19814738603E+03  0.34985994278E+02  0.18043453243E+03  0.32047391484E+03  0.17222224947E+03 0.  0.
         24    2    5    5    0    0 -0.11592941219E+03  0.48509063833E+02  0.18344132345E+03  0.23696463736E+03  0.81907034647E+02 0.  0.
          5    1    5    5  501    0 -0.82217973845E+02 -0.13523069555E+02 -0.30067910213E+01  0.83509277482E+02  0.47000000000E+01 0. -1.
        -13    1    6    6    0    0 -0.12866760685E+03  0.46754396513E+02  0.17126680598E+03  0.21925703062E+03  0.00000000000E+00 0.  1.
         14    1    6    6    0    0  0.12738194664E+02  0.17546673201E+01  0.12174517472E+02  0.17707606737E+02  0.00000000000E+00 0. -1.
         -5    1    3    3    0  503  0.14293506645E+03 -0.73324527817E+02  0.14876676983E+03  0.21899899864E+03  0.47000000000E+01 0.  1.
         13    1    4    4    0    0  0.20694876507E+02  0.39020178766E+02 -0.38256468966E+01  0.44333822740E+02  0.00000000000E+00 0. -1.
        -14    1    4    4    0    0  0.34517443070E+02 -0.68164522770E+00  0.73250159818E+02  0.80978419531E+02  0.00000000000E+00 0.  1.
</event>
<event>
12    1  0.8052519E-002  0.2633434E+03  0.7818608E-02  0.1105186E+00
         21   -1    0    0  503  502  0.00000000000E+00  0.00000000000E+00  0.31782461190E+03  0.31782461190E+03  0.00000000000E+00 0. -1.
         21   -1    0    0  501  503 -0.00000000000E+00 -0.00000000000E+00 -0.31485740984E+03  0.31485740984E+03  0.00000000000E+00 0. -1.
          6    2    1    2  501    0  0.98572291931E+02  0.17280888709E+03 -0.17396546369E+03  0.31561644331E+03  0.17254086049E+03 0.  0.
         24    2    3    3    0    0 -0.59605815502E+01  0.38096074253E+02 -0.36120971115E+02  0.96304205365E+02  0.80516681568E+02 0.  0.
         -6    2    1    2    0  502 -0.98572291931E+02 -0.17280888709E+03  0.17693266575E+03  0.31706557842E+03  0.17218015164E+03 0.  0.
        -24    2    5    5    0    0 -0.13091555831E+03 -0.12218159408E+03  0.16230523146E+03  0.25505540578E+03  0.81504886477E+02 0.  0.
          5    1    3    3  501    0  0.10453287348E+03  0.13471281283E+03 -0.13784449257E+03  0.21931223795E+03  0.47000000000E+01 0. -1.
        -13    1    4    4    0    0  0.86976305679E+01  0.37758454439E+02  0.16177866193E+02  0.41988962998E+02  0.00000000000E+00 0.  1.
         14    1    4    4    0    0 -0.14658212118E+02  0.33761981414E+00 -0.52298837308E+02  0.54315242367E+02  0.00000000000E+00 0. -1.
         -5    1    5    5    0  502  0.32343266376E+02 -0.50627293004E+02  0.14627434286E+02  0.62010172638E+02  0.47000000000E+01 0.  1.
         13    1    6    6    0    0 -0.13338992309E+03 -0.12080838581E+03  0.12850247601E+03  0.22113440258E+03  0.00000000000E+00 0. -1.
        -14    1    6    6    0    0  0.24743647868E+01 -0.13732082741E+01  0.33802755449E+02  0.33921003199E+02  0.00000000000E+00 0.  1.
</event>
<event>
12    1  0.8052519E-002  0.1793243E+03  0.7818608E-02  0.1169283E+00
         21   -1    0    0  503  502  0.00000000000E+00  0.00000000000E+00  0.10895412397E+04  0.10895412397E+04  0.00000000000E+00 0. -1.
         21   -1    0    0  501  503 -0.00000000000E+00 -0.00000000000E+00 -0.32564045925E+02  0.32564045925E+02  0.00000000000E+00 0. -1.
          6    2    1    2  501    0  0.19038261126E+02 -0.46372275287E+02  0.33751434386E+03  0.38063108452E+03  0.16867497411E+03 0.  0.
         24    2    3    3    0    0  0.22451594687E+02  0.23236195403E+02  0.96083846755E+02  0.12929910293E+03  0.80263052094E+02 0.  0.
         -6    2    1    2    0  502 -0.19038261126E+02  0.46372275287E+02  0.71946284995E+03  0.74147420113E+03  0.17217536174E+03 0.  0.
        -24    2    5    5    0    0  0.11393347771E+02  0.39202777518E+02  0.69713428927E+03  0.70276839872E+03  0.78870392574E+02 0.  0.
          5    1    3    3  501    0 -0.34133335608E+01 -0.69608470690E+02  0.24143049711E+03  0.25133198159E+03  0.47000000000E+01 0. -1.
        -11    1    4    4    0    0  0.39433546456E+02 -0.10766996797E+02  0.76037523510E+02  0.86328661449E+02  0.00000000000E+00 0.  1.
         12    1    4    4    0    0 -0.16981951769E+02  0.34003192200E+02  0.20046323245E+02  0.42970441484E+02  0.00000000000E+00 0. -1.
         -5    1    5    5    0  502 -0.30431608897E+02  0.71694977683E+01  0.22328560671E+02  0.38705802407E+02  0.47000000000E+01 0.  1.
         13    1    6    6    0    0 -0.88460829846E+01  0.47952290814E+02  0.22990525096E+03  0.23501936048E+03  0.00000000000E+00 0. -1.
        -14    1    6    6    0    0  0.20239430755E+02 -0.87495132959E+01  0.46722903831E+03  0.46774903825E+03  0.00000000000E+00 0.  1.
</event>
<event>
12    1  0.8052519E-002  0.2014512E+03  0.7818608E-02  0.1148832E+00
         21   -1    0    0  503  502  0.00000000000E+00  0.00000000000E+00  0.23905615126E+03  0.23905615126E+03  0.00000000000E+00 0. -1.
         21   -1    0    0  501  503 -0.00000000000E+00 -0.00000000000E+00 -0.59354125755E+03  0.59354125755E+03  0.00000000000E+00 0. -1.
          6    2    1    2  501    0  0.97751270348E+02  0.31155586471E+02 -0.52970845234E+03  0.56672184216E+03  0.17336845294E+03 0.  0.
         24    2    3    3    0    0 -0.99214684474E+01  0.42061087654E+02 -0.23175668041E+03  0.24968919867E+03  0.82255494591E+02 0.  0.
         -6    2    1    2    0  502 -0.97751270348E+02 -0.31155586471E+02  0.17522334605E+03  0.26587556665E+03  0.17164094651E+03 0.  0.
        -24    2    5    5    0    0  0.44844243440E+01  0.36338510405E+01  0.30934345832E+02  0.85587331273E+02  0.79592352568E+02 0.  0.
          5    1    3    3  501    0  0.10767273880E+03 -0.10905501183E+02 -0.29795177194E+03  0.31703264349E+03  0.47000000000E+01 0. -1.
        -13    1    4    4    0    0 -0.58847278842E+01  0.16595130332E+02 -0.11495473533E+01  0.17645107881E+02  0.00000000000E+00 0.  1.
         14    1    4    4    0    0 -0.40367405633E+01  0.25465957322E+02 -0.23060713305E+03  0.23204409079E+03  0.00000000000E+00 0. -1.
         -5    1    5    5    0  502 -0.10223569469E+03 -0.34789437512E+02  0.14428900022E+03  0.18028823538E+03  0.47000000000E+01 0.  1.
         13    1    6    6    0    0 -0.32452549725E+02 -0.55597640608E+01  0.34088319058E+02  0.47392957877E+02  0.00000000000E+00 0. -1.
        -14    1    6    6    0    0  0.36936974069E+02  0.91936151013E+01 -0.31539732260E+01  0.38194373396E+02  0.00000000000E+00 0.  1.
</event>
<event>
12    1  0.8052519E-002  0.1866859E+03  0.7818608E-02  0.1161532E+00
         21   -1    0    0  501  502  0.00000000000E+00  0.00000000000E+00  0.85114330344E+03  0.85114330344E+03  0.00000000000E+00 0. -1.
         21   -1    0    0  502  503 -0.00000000000E+00 -0.00000000000E+00 -0.51153319337E+02  0.51153319337E+02  0.00000000000E+00 0. -1.
         -6    2    1    2    0  503 -0.59148679676E+02  0.38407164172E+02  0.60178039365E+03  0.63001245614E+03  0.17263364721E+03 0.  0.
        -24    2    3    3    0    0 -0.98279049474E+02  0.37731438006E+02  0.54765054493E+03  0.56305147520E+03  0.77610639646E+02 0.  0.
          6    2    1    2  501    0  0.59148679676E+02 -0.38407164172E+02  0.19820959045E+03  0.27228416663E+03  0.17285239102E+03 0.  0.
         24    2    5    5    0    0  0.36235689509E+02  0.32724413260E+02  0.16622816228E+03  0.19086176078E+03  0.80078070512E+02 0.  0.
          5    1    5    5  501    0  0.22912990167E+02 -0.71131577431E+02  0.31981428176E+02  0.81422405850E+02  0.47000000000E+01 0. -1.
        -11    1    6    6    0    0  0.51811795070E+02  0.44105373510E+02  0.93618549065E+02  0.11573322258E+03  0.00000000000E+00 0.  1.
         12    1    6    6    0    0 -0.15576105561E+02 -0.11380960250E+02  0.72609613210E+02  0.75128538194E+02  0.00000000000E+00 0. -1.
         -5    1    3    3    0  503  0.39130369798E+02  0.67572616545E+00  0.54129848722E+02  0.66960980945E+02  0.47000000000E+01 0.  1.
         11    1    4    4    0    0 -0.36792440481E+02  0.54623705767E+02  0.24067878099E+03  0.24952696954E+03  0.00000000000E+00 0. -1.
        -12    1    4    4    0    0 -0.61486608993E+02 -0.16892267761E+02  0.30697176393E+03  0.31352450566E+03  0.00000000000E+00 0.  1.
</event>
<event>
12    1  0.8052519E-002  0.1825139E+03  0.7818608E-02  0.1165432E+00
         21   -1    0    0  501  502  0.00000000000E+00  0.00000000000E+00  0.67178813373E+03  0.67178813373E+03  0.00000000000E+00 0.  1.
         21   -1    0    0  502  503 -0.00000000000E+00 -0.00000000000E+00 -0.32641432556E+03  0.32641432556E+03  0.00000000000E+00 0.  1.
         -6    2    1    2    0  503  0.54829947391E+02  0.23978069769E+02 -0.28699452706E+03  0.34002235959E+03  0.17224423212E+03 0.  0.
        -24    2    3    3    0    0  0.64445458385E+02 -0.16282838106E+01 -0.78564610878E+02  0.12975285787E+03  0.80669310322E+02 0.  0.
          6    2    1    2  501    0 -0.54829947391E+02 -0.23978069769E+02  0.63236833523E+03  0.65818009970E+03  0.17242407398E+03 0.  0.
         24    2    5    5    0    0 -0.66464728371E+02  0.36874342089E+02  0.28998598661E+03  0.31020575180E+03  0.79739944789E+02 0.  0.
          5    1    5    5  501    0  0.11634780980E+02 -0.60852411858E+02  0.34238234861E+03  0.34797434791E+03  0.47000000000E+01 0. -1.
        -11    1    6    6    0    0 -0.68971944047E+02  0.49270506660E+02  0.28368180726E+03  0.29607444953E+03  0.00000000000E+00 0.  1.
         12    1    6    6    0    0  0.25072156758E+01 -0.12396164571E+02  0.63041793475E+01  0.14131302267E+02  0.00000000000E+00 0. -1.
         -5    1    3    3    0  503 -0.96155109939E+01  0.25606353580E+02 -0.20842991618E+03  0.21026950172E+03  0.47000000000E+01 0.  1.
         13    1    4    4    0    0  0.53837120997E+01  0.20910545260E+02  0.75952317087E+01  0.22889360055E+02  0.00000000000E+00 0. -1.
        -14    1    4    4    0    0  0.59061746286E+02 -0.22538829070E+02 -0.86159842587E+02  0.10686349781E+03  0.00000000000E+00 0.  1.
</event>
<event>
12    1  0.8052519E-002  0.2626105E+03  0.7818608E-02  0.1106103E+00
         21   -1    0    0  501  502  0.00000000000E+00  0.00000000000E+00  0.93956863813E+03  0.93956863813E+03  0.00000000000E+00 0. -1.
         21   -1    0    0  502  503 -0.00000000000E+00 -0.00000000000E+00 -0.89945720256E+02  0.89945720256E+02  0.00000000000E+00 0. -1.
         -6    2    1    2    0  503  0.16872002430E+03 -0.99856729758E+02  0.19995331997E+03  0.33006911324E+03  0.17471827686E+03 0.  0.
        -24    2    3    3    0    0  0.40906414312E+02  0.33830457871E+01  0.34542790516E+02  0.96879269107E+02  0.80669750684E+02 0.  0.
          6    2    1    2  501    0 -0.16872002430E+03  0.99856729758E+02  0.64966959790E+03  0.69944524514E+03  0.16945575069E+03 0.  0.
         24    2    5    5    0    0 -0.13968479939E+03  0.13635516173E+03  0.55305259781E+03  0.59205756183E+03  0.80996341052E+02 0.  0.
          5    1    5    5  501    0 -0.29035224903E+02 -0.36498431969E+02  0.96617000083E+02  0.10738768331E+03  0.47000000000E+01 0. -1.
        -13    1    6    6    0    0 -0.12558475489E+02  0.99827286295E+01  0.73078985717E+01  0.17628827500E+02  0.00000000000E+00 0.  1.
         14    1    6    6    0    0 -0.12712632390E+03  0.12637243310E+03  0.54574469924E+03  0.57442873433E+03  0.00000000000E+00 0. -1.
         -5    1    3    3    0  503  0.12781360998E+03 -0.10323977555E+03  0.16541052946E+03  0.23318984413E+03  0.47000000000E+01 0.  1.
         11    1    4    4    0    0  0.56451576858E+02 -0.20204489616E+02  0.12996100406E+02  0.61350636151E+02  0.00000000000E+00 0. -1.
        -12    1    4    4    0    0 -0.15545162547E+02  0.23587535403E+02  0.21546690111E+02  0.35528632956E+02  0.00000000000E+00 0.  1.
</event>
<event>
12    1  0.8052519E-002  0.1847575E+03  0.7818608E-02  0.1163330E+00
         21   -1    0    0  501  502  0.00000000000E+00  0.00000000000E+00  0.11564879166E+04  0.11564879166E+04  0.00000000000E+00 0. -1.
         21   -1    0    0  502  503 -0.00000000000E+00 -0.00000000000E+00 -0.30646900605E+02  0.30646900605E+02  0.00000000000E+00 0. -1.
         -6    2    1    2    0  503 -0.61294683707E+02  0.28862516672E+02  0.44677605542E+03  0.48338446608E+03  0.17164386162E+03 0.  0.
        -24    2    3    3    0    0 -0.98491339930E+02  0.57301405309E+02  0.33354101818E+03  0.36076054802E+03  0.76906222831E+02 0.  0.
          6    2    1    2  501    0  0.61294683707E+02 -0.28862516672E+02  0.67906496057E+03  0.70375035112E+03  0.17188732620E+03 0.  0.
         24    2    5    5    0    0  0.95065215948E+02  0.67495662329E+01  0.58331955342E+03  0.59605660809E+03  0.77063783466E+02 0.  0.
          5    1    5    5  501    0 -0.33770532241E+02 -0.35612082905E+02  0.95745407153E+02  0.10769374303E+03  0.47000000000E+01 0. -1.
        -13    1    6    6    0    0 -0.90586717298E+01  0.10349961101E+02  0.13930698215E+03  0.13998434378E+03  0.00000000000E+00 0.  1.
         14    1    6    6    0    0  0.10412388768E+03 -0.36003948681E+01  0.44401257127E+03  0.45607226431E+03  0.00000000000E+00 0. -1.
         -5    1    3    3    0  503  0.37196656222E+02 -0.28438888637E+02  0.11323503724E+03  0.12262391806E+03  0.47000000000E+01 0.  1.
         11    1    4    4    0    0 -0.41231051504E+02  0.67309874316E+02  0.20568549683E+03  0.22031146678E+03  0.00000000000E+00 0. -1.
        -12    1    4    4    0    0 -0.57260288426E+02 -0.10008469007E+02  0.12785552135E+03  0.14044908124E+03  0.00000000000E+00 0.  1.
</event>
<event>
12    1  0.8052519E-002  0.1877924E+03  0.7818608E-02  0.1160595E+00
         21   -1    0    0  503  502  0.00000000000E+00  0.00000000000E+00  0.46925800287E+02  0.46925800287E+02  0.00000000000E+00 0.  1.
         21   -1    0    0  501  503 -0.00000000000E+00 -0.00000000000E+00 -0.82246513941E+03  0.82246513941E+03  0.00000000000E+00 0.  1.
          6    2    1    2  501    0  0.70715698581E+02  0.21738013701E+02 -0.25759486824E+03  0.31845313872E+03  0.17200009929E+03 0.  0.
         24    2    3    3    0    0  0.78536319847E+02  0.67437236367E+02 -0.20843404647E+03  0.25071498503E+03  0.93260482550E+02 0.  0.
         -6    2    1    2    0  502 -0.70715698581E+02 -0.21738013701E+02 -0.51794447089E+03  0.55093780098E+03  0.17260571936E+03 0.  0.
        -24    2    5    5    0    0 -0.17335045826E+02  0.10360710080E+02 -0.45511979396E+03  0.46234405296E+03  0.78867916940E+02 0.  0.
          5    1    3    3  501    0 -0.78206212666E+01 -0.45699222666E+02 -0.49160821763E+02  0.67738153693E+02  0.47000000000E+01 0. -1.
        -11    1    4    4    0    0  0.18967487886E+02  0.10275984682E+02 -0.14501325668E+03  0.14660902452E+03  0.00000000000E+00 0.  1.
         12    1    4    4    0    0  0.59568831962E+02  0.57161251685E+02 -0.63420789791E+02  0.10410596051E+03  0.00000000000E+00 0. -1.
         -5    1    5    5    0  502 -0.53380652755E+02 -0.32098723781E+02 -0.62824676928E+02  0.88593748019E+02  0.47000000000E+01 0.  1.
         11    1    6    6    0    0 -0.23554554423E+00  0.37884403212E+02 -0.12440636060E+03  0.13004701475E+03  0.00000000000E+00 0. -1.
        -12    1    6    6    0    0 -0.17099500281E+02 -0.27523693132E+02 -0.33071343337E+03  0.33229703821E+03  0.00000000000E+00 0.  1.
</event>
<event>
12    1  0.8052519E-002  0.2281993E+03  0.7818608E-02  0.1127990E+00
         21   -1    0    0  503  502  0.00000000000E+00  0.00000000000E+00  0.48056202358E+03  0.48056202358E+03  0.00000000000E+00 0. -1.
         21   -1    0    0  501  503 -0.00000000000E+00 -0.00000000000E+00 -0.26100350372E+03  0.26100350372E+03  0.00000000000E+00 0. -1.
          6    2    1    2  501    0  0.12562883343E+03 -0.82586440807E+02 -0.17391898069E+03  0.28691936946E+03  0.17167349457E+03 0.  0.
         24    2    3    3    0    0  0.99719316540E+02 -0.44512301780E+02 -0.19339960645E+03  0.23669459561E+03  0.81826870380E+02 0.  0.
         -6    2    1    2    0  502 -0.12562883343E+03  0.82586440807E+02  0.39347750055E+03  0.45464615784E+03  0.17110073468E+03 0.  0.
        -24    2    5    5    0    0 -0.14599138070E+03  0.10511470627E+03  0.33156215948E+03  0.38552484756E+03  0.79582396114E+02 0.  0.
          5    1    3    3  501    0  0.25909516890E+02 -0.38074139026E+02  0.19480625766E+02  0.50224773850E+02  0.47000000000E+01 0. -1.
        -11    1    4    4    0    0 -0.11061690321E+02  0.74358039870E+01 -0.12308805289E+02  0.18142735773E+02  0.00000000000E+00 0.  1.
         12    1    4    4    0    0  0.11078100686E+03 -0.51948105767E+02 -0.18109080116E+03  0.21855185984E+03  0.00000000000E+00 0. -1.
         -5    1    5    5    0  502  0.20362547269E+02 -0.22528265460E+02  0.61915341065E+02  0.69121310283E+02  0.47000000000E+01 0.  1.
         11    1    6    6    0    0 -0.93245189839E+02  0.10323834504E+03  0.27486069216E+03  0.30806041845E+03  0.00000000000E+00 0. -1.
        -12    1    6    6    0    0 -0.52746190859E+02  0.18763612240E+01  0.56701467317E+02  0.77464429111E+02  0.00000000000E+00 0.  1.
</event>
<event>
12    1  0.8052519E-002  0.1808620E+03  0.7818608E-02  0.1168651E+00
         21   -1    0    0  503  502  0.00000000000E+00  0.00000000000E+00  0.30196747875E+02  0.30196747875E+02  0.00000000000E+00 0. -1.
         21   -1    0    0  501  503 -0.00000000000E+00 -0.00000000000E+00 -0.10822586307E+04  0.10822586307E+04  0.00000000000E+00 0. -1.
          6    2    1    2  501    0 -0.22646756666E+02  0.14802703744E+02 -0.40990797640E+03  0.44531767655E+03  0.17190488158E+03 0.  0.
         24    2    3    3    0    0 -0.36097265761E+02 -0.31660245164E+02 -0.12314000625E+03  0.15446087241E+03  0.79933198646E+02 0.  0.
         -6    2    1    2    0  502  0.22646756666E+02 -0.14802703744E+02 -0.64215390643E+03  0.66713770203E+03  0.17882695069E+03 0.  0.
        -24    2    5    5    0    0  0.19596881478E+02 -0.18423116729E+02 -0.65027050206E+03  0.65663159650E+03  0.87119909743E+02 0.  0.
          5    1    3    3  501    0  0.13450509095E+02  0.46462948908E+02 -0.28676797014E+03  0.29085680414E+03  0.47000000000E+01 0. -1.
        -13    1    4    4    0    0 -0.12244667665E+02  0.47876239844E+01 -0.10731329625E+03  0.10811566391E+03  0.00000000000E+00 0.  1.
         14    1    4    4    0    0 -0.23852598096E+02 -0.36447869148E+02 -0.15826709998E+02  0.46345208498E+02  0.00000000000E+00 0. -1.
         -5    1    5    5    0  502  0.30498751876E+01  0.36204129850E+01  0.81165956278E+01  0.10506105531E+02  0.47000000000E+01 0.  1.
         11    1    6    6    0    0  0.13084479653E+02 -0.53629996517E+02 -0.41377640614E+03  0.41744256421E+03  0.00000000000E+00 0. -1.
        -12    1    6    6    0    0  0.65124018248E+01  0.35206879787E+02 -0.23649409592E+03  0.23918903229E+03  0.00000000000E+00 0.  1.
</event>
<event>
12    1  0.8052519E-002  0.3124931E+03  0.7818608E-02  0.1079333E+00
         21   -1    0    0  503  502  0.00000000000E+00  0.00000000000E+00  0.12167307217E+04  0.12167307217E+04  0.00000000000E+00 0. -1.
         21   -1    0    0  501  503 -0.00000000000E+00 -0.00000000000E+00 -0.41669527935E+03  0.41669527935E+03  0.00000000000E+00 0.  1.
          6    2    1    2  501    0 -0.24616952974E+03  0.85801634331E+02 -0.33443788113E+03  0.45670103220E+03  0.16960477191E+03 0.  0.
         24    2    3    3    0    0 -0.22543091738E+03  0.20659282522E+02 -0.24975275856E+03  0.34776400440E+03  0.85542140963E+02 0.  0.
         -6    2    1    2    0  502  0.24616952974E+03 -0.85801634331E+02  0.11344733234E+04  0.11767249688E+04  0.17230952613E+03 0.  0.
        -24    2    5    5    0    0  0.23620733477E+03 -0.76535783856E+02  0.79864122750E+03  0.84058453986E+03  0.84278865501E+02 0.  0.
          5    1    3    3  501    0 -0.20738612355E+02  0.65142351809E+02 -0.84685122571E+02  0.10893702780E+03  0.47000000000E+01 0. -1.
        -13    1    4    4    0    0 -0.54176085064E+02  0.41032885179E+02 -0.89165899766E+02  0.11211290532E+03  0.00000000000E+00 0.  1.
         14    1    4    4    0    0 -0.17125483232E+03 -0.20373602657E+02 -0.16058685879E+03  0.23565109907E+03  0.00000000000E+00 0. -1.
         -5    1    5    5    0  502  0.99621949638E+01 -0.92658504743E+01  0.33583209593E+03  0.33614042894E+03  0.47000000000E+01 0.  1.
         13    1    6    6    0    0  0.19838847150E+03 -0.66497687677E+02  0.74725921218E+03  0.77600016641E+03  0.00000000000E+00 0. -1.
        -14    1    6    6    0    0  0.37818863276E+02 -0.10038096179E+02  0.51382015326E+02  0.64584373445E+02  0.00000000000E+00 0.  1.
</event>
<event>
12    1  0.8052519E-002  0.1969612E+03  0.7818608E-02  0.1153664E+00
         21   -1    0    0  503  502  0.00000000000E+00  0.00000000000E+00  0.41161554869E+03  0.41161554869E+03  0.00000000000E+00 0.  1.
         21   -1    0    0  501  503 -0.00000000000E+00 -0.00000000000E+00 -0.95429152720E+02  0.95429152720E+02  0.00000000000E+00 0.  1.
          6    2    1    2  501    0 -0.75810873904E+02 -0.55905997355E+02  0.10805796449E+03  0.22465580555E+03  0.17297669825E+03 0.  0.
         24    2    3    3    0    0 -0.11491779497E+03 -0.28971128286E+02  0.58826362262E+02  0.15609430685E+03  0.82821892377E+02 0.  0.
         -6    2    1    2    0  502  0.75810873904E+02  0.55905997355E+02  0.20812843148E+03  0.28238889585E+03  0.16599179308E+03 0.  0.
        -24    2    5    5    0    0 -0.19299150604E+02  0.21542587550E+02  0.61380263204E+02  0.10410856719E+03  0.78958956169E+02 0.  0.
          5    1    3    3  501    0  0.39106921071E+02 -0.26934869069E+02  0.49231602225E+02  0.68561498708E+02  0.47000000000E+01 0. -1.
        -11    1    4    4    0    0 -0.92160088841E+02 -0.57003601994E+02  0.46777655856E+02  0.11802983395E+03  0.00000000000E+00 0.  1.
         12    1    4    4    0    0 -0.22757706134E+02  0.28032473708E+02  0.12048706406E+02  0.38064472894E+02  0.00000000000E+00 0. -1.
         -5    1    5    5    0  502  0.95110024508E+02  0.34363409806E+02  0.14674816828E+03  0.17828032866E+03  0.47000000000E+01 0.  1.
         11    1    6    6    0    0 -0.16520770628E+02 -0.55663140861E-01  0.76068396112E+02  0.77841761591E+02  0.00000000000E+00 0. -1.
        -12    1    6    6    0    0 -0.27783799760E+01  0.21598250691E+02 -0.14688132908E+02  0.26266805601E+02  0.00000000000E+00 0.  1.
</event>
<event>
12    1  0.8052519E-002  0.2872832E+03  0.7818608E-02  0.1092499E+00
         21   -1    0    0  503  502  0.00000000000E+00  0.00000000000E+00  0.97789023427E+03  0.97789023427E+03  0.00000000000E+00 0.  1.
         21   -1    0    0  501  503 -0.00000000000E+00 -0.00000000000E+00 -0.84173332898E+02  0.84173332898E+02  0.00000000000E+00 0.  1.
          6    2    1    2  501    0  0.23003480635E+03 -0.25296322870E+02  0.38358318123E+03  0.47923655423E+03  0.17022250705E+03 0.  0.
         24    2    3    3    0    0  0.18598867917E+03 -0.46924717017E+02  0.19791991031E+03  0.28714077364E+03  0.80522140696E+02 0.  0.
         -6    2    1    2    0  502 -0.23003480635E+03  0.25296322870E+02  0.51013372015E+03  0.58282701294E+03  0.16091922975E+03 0.  0.
        -24    2    5    5    0    0 -0.10507819198E+03  0.67575148030E+02  0.23905620257E+03  0.28131952537E+03  0.79906071754E+02 0.  0.
          5    1    3    3  501    0  0.44046127179E+02  0.21628394147E+02  0.18566327092E+03  0.19209578059E+03  0.47000000000E+01 0. -1.
        -13    1    4    4    0    0  0.17412816109E+03 -0.17809495712E+02  0.15406901255E+03  0.23318459480E+03  0.00000000000E+00 0.  1.
         14    1    4    4    0    0  0.11860518075E+02 -0.29115221304E+02  0.43850897758E+02  0.53956178838E+02  0.00000000000E+00 0. -1.
         -5    1    5    5    0  502 -0.12495661436E+03 -0.42278825160E+02  0.27107751757E+03  0.30150748757E+03  0.47000000000E+01 0.  1.
         13    1    6    6    0    0  0.12785460905E+02  0.59604548727E+01  0.13819374099E+02  0.19747661465E+02  0.00000000000E+00 0. -1.
        -14    1    6    6    0    0 -0.11786365289E+03  0.61614693157E+02  0.22523682848E+03  0.26157186391E+03  0.00000000000E+00 0.  1.
</event>
<event>
12    1  0.8052519E-002  0.2202928E+03  0.7818608E-02  0.1133840E+00
         21   -1    0    0  501  502  0.00000000000E+00  0.00000000000E+00  0.86025640724E+02  0.86025640724E+02  0.00000000000E+00 0. -1.
         21   -1    0    0  502  503 -0.00000000000E+00 -0.00000000000E+00 -0.14071321248E+04  0.14071321248E+04  0.00000000000E+00 0. -1.
         -6    2    1    2    0  503  0.11802560871E+03 -0.66187577648E+02 -0.12386743269E+04  0.12579472617E+04  0.17264525873E+03 0.  0.
        -24    2    3    3    0    0  0.34597231885E+02 -0.68024609294E+01 -0.27114696973E+03  0.28500421968E+03  0.80395796617E+02 0.  0.
          6    2    1    2  501    0 -0.11802560871E+03  0.66187577648E+02 -0.82432157182E+02  0.23521050382E+03  0.17383348592E+03 0.  0.
         24    2    5    5    0    0 -0.53361907521E+02 -0.29930635063E+02 -0.14080785918E+02  0.10062185267E+03  0.78633024953E+02 0.  0.
          5    1    5    5  501    0 -0.64663701187E+02  0.96118212711E+02 -0.68351371263E+02  0.13458865115E+03  0.47000000000E+01 0. -1.
        -13    1    6    6    0    0 -0.38870839311E+01  0.18137369039E+02 -0.24636214459E+02  0.30838557684E+02  0.00000000000E+00 0.  1.
         14    1    6    6    0    0 -0.49474823589E+02 -0.48068004102E+02  0.10555428541E+02  0.69783294987E+02  0.00000000000E+00 0. -1.
         -5    1    3    3    0  503  0.83428376822E+02 -0.59385116719E+02 -0.96752735715E+03  0.97294304200E+03  0.47000000000E+01 0.  1.
         11    1    4    4    0    0 -0.10247820999E+02 -0.17455549639E+02 -0.19460783021E+03  0.19565766437E+03  0.00000000000E+00 0. -1.
        -12    1    4    4    0    0  0.44845052884E+02  0.10653088710E+02 -0.76539139517E+02  0.89346555307E+02  0.00000000000E+00 0.  1.
</event>
<event>
12    1  0.8052519E-002  0.2433528E+03  0.7818608E-02  0.1117700E+00
         21   -1    0    0  503  502  0.00000000000E+00  0.00000000000E+00  0.19357193099E+03  0.19357193099E+03  0.00000000000E+00 0.  1.
         21   -1    0    0  501  503 -0.00000000000E+00 -0.00000000000E+00 -0.38216335886E+03  0.38216335886E+03  0.00000000000E+00 0.  1.
          6    2    1    2  501    0  0.14189839655E+03 -0.96433150895E+02 -0.22352283264E+03  0.32988820751E+03  0.17154959985E+03 0.  0.
         24    2    3    3    0    0  0.33557427654E+02  0.13823629494E+02 -0.70689196617E+02  0.11246113132E+03  0.79582346379E+02 0.  0.
         -6    2    1    2    0  502 -0.14189839655E+03  0.96433150895E+02  0.34931404766E+02  0.24584708235E+03  0.17258643436E+03 0.  0.
        -24    2    5    5    0    0 -0.16561280762E+03  0.60252715193E+02  0.65771549875E+01  0.19391009456E+03  0.80621796485E+02 0.  0.
          5    1    3    3  501    0  0.10834096890E+03 -0.11025678039E+03 -0.15283363602E+03  0.21742707619E+03  0.47000000000E+01 0. -1.
        -11    1    4    4    0    0 -0.11464135333E+02 -0.23043732732E+02 -0.37464197677E+02  0.45453340083E+02  0.00000000000E+00 0.  1.
         12    1    4    4    0    0  0.45021562986E+02  0.36867362226E+02 -0.33224998940E+02  0.67007791232E+02  0.00000000000E+00 0. -1.
         -5    1    5    5    0  502  0.23714411071E+02  0.36180435701E+02  0.28354249778E+02  0.51936987788E+02  0.47000000000E+01 0.  1.
         11    1    6    6    0    0 -0.42421874891E+01 -0.74589893766E+01 -0.15304933431E+02  0.17546329090E+02  0.00000000000E+00 0. -1.
        -12    1    6    6    0    0 -0.16137062013E+03  0.67711704570E+02  0.21882088418E+02  0.17636376547E+03  0.00000000000E+00 0.  1.
</event>
<event>
12    1  0.8052519E-002  0.1781558E+03  0.7818608E-02  0.1169729E+00
         21   -1    0    0  503  502  0.00000000000E+00  0.00000000000E+00  0.94374640742E+02  0.94374640742E+02  0.00000000000E+00 0. -1.
         21   -1    0    0  501  503 -0.00000000000E+00 -0.00000000000E+00 -0.36630452379E+03  0.36630452379E+03  0.00000000000E+00 0. -1.
          6    2    1    2  501    0  0.20903751682E+02 -0.40830802167E+02 -0.69158771928E+02  0.19110844312E+03  0.17214929584E+03 0.  0.
         24    2    3    3    0    0 -0.18816008390E+02 -0.22487332293E+02 -0.10409925980E+03  0.13492063376E+03  0.80667212907E+02 0.  0.
         -6    2    1    2    0  502 -0.20903751682E+02  0.40830802167E+02 -0.20277111112E+03  0.26957072141E+03  0.17160457191E+03 0.  0.
        -24    2    5    5    0    0 -0.68833495770E+01  0.61196615750E+02 -0.21821661235E+03  0.24004121843E+03  0.78796512360E+02 0.  0.
          5    1    3    3  501    0  0.39719760072E+02 -0.18343469875E+02  0.34940487875E+02  0.56187809355E+02  0.47000000000E+01 0. -1.
        -11    1    4    4    0    0  0.26314917571E+02 -0.29808354405E+02 -0.42397098939E+02  0.58125096796E+02  0.00000000000E+00 0.  1.
         12    1    4    4    0    0 -0.45130925961E+02  0.73210221123E+01 -0.61702160865E+02  0.76795536968E+02  0.00000000000E+00 0. -1.
         -5    1    5    5    0  502 -0.14020402105E+02 -0.20365813583E+02  0.15445501231E+02  0.29529502982E+02  0.47000000000E+01 0.  1.
         13    1    6    6    0    0 -0.48470255714E+01 -0.86808813265E+01 -0.11470204773E+03  0.11513214630E+03  0.00000000000E+00 0. -1.
        -14    1    6    6    0    0 -0.20363240057E+01  0.69877497077E+02 -0.10351456462E+03  0.12490907214E+03  0.00000000000E+00 0.  1.
</event>
<event>
12    1  0.8052519E-002  0.1857749E+03  0.7818608E-02  0.1162469E+00
         21   -1    0    0  503  502  0.00000000000E+00  0.00000000000E+00  0.17409795246E+03  0.17409795246E+03  0.00000000000E+00 0. -1.
         21   -1    0    0  501  503 -0.00000000000E+00 -0.00000000000E+00 -0.32932271283E+03  0.32932271283E+03  0.00000000000E+00 0. -1.
          6    2    1    2  501    0  0.66770194504E+02 -0.18744189657E+02 -0.23688520298E+03  0.30104302218E+03  0.17234470777E+03 0.  0.
         24    2    3    3    0    0  0.88931143541E+02 -0.50775198141E+02 -0.11660699903E+03  0.17452808428E+03  0.79849802399E+02 0.  0.
         -6    2    1    2    0  502 -0.66770194504E+02  0.18744189657E+02  0.81660442612E+02  0.20237764311E+03  0.17169356139E+03 0.  0.
        -24    2    5    5    0    0  0.44837014379E+01  0.49062375238E+02  0.88251655137E+02  0.12451979735E+03  0.72729671074E+02 0.  0.
          5    1    3    3  501    0 -0.22160949037E+02  0.32031008484E+02 -0.12027820395E+03  0.12651493790E+03  0.47000000000E+01 0. -1.
        -11    1    4    4    0    0 -0.10406747466E+02  0.45341534318E+01 -0.28533007050E+02  0.30708165551E+02  0.00000000000E+00 0.  1.
         12    1    4    4    0    0  0.99337891007E+02 -0.55309351573E+02 -0.88073991978E+02  0.14381991873E+03  0.00000000000E+00 0. -1.
         -5    1    5    5    0  502 -0.71253895942E+02 -0.30318185581E+02 -0.65912125255E+01  0.77857845760E+02  0.47000000000E+01 0.  1.
         13    1    6    6    0    0 -0.21417767970E+02  0.39194944601E+02  0.16524924304E+02  0.47623918259E+02  0.00000000000E+00 0. -1.
        -14    1    6    6    0    0  0.25901469408E+02  0.98674306375E+01  0.71726730834E+02  0.76895879089E+02  0.00000000000E+00 0.  1.
</event>
<event>
12    1  0.8052519E-002  0.2018766E+03  0.7818608E-02  0.1149508E+00
         21   -1    0    0  501  502  0.00000000000E+00  0.00000000000E+00  0.23606135768E+03  0.23606135768E+03  0.00000000000E+00 0.  1.
         21   -1    0    0  502  503 -0.00000000000E+00 -0.00000000000E+00 -0.17401081950E+03  0.17401081950E+03  0.00000000000E+00 0. -1.
         -6    2    1    2    0  503 -0.57365113579E+02 -0.91224642918E+02  0.71858371154E+02  0.21428434852E+03  0.17070871326E+03 0.  0.
        -24    2    3    3    0    0  0.15531550642E+02 -0.99218508384E+02  0.56835954769E+02  0.13928042506E+03  0.77994676615E+02 0.  0.
          6    2    1    2  501    0  0.57365113579E+02  0.91224642918E+02 -0.98078329747E+01  0.19578782867E+03  0.16316858930E+03 0.  0.
         24    2    5    5    0    0  0.62814034289E+02  0.33101891466E+01  0.15187596947E+02  0.10410629598E+03  0.81553034928E+02 0.  0.
          5    1    5    5  501    0 -0.54489207096E+01  0.87914453772E+02 -0.24995429922E+02  0.91681532687E+02  0.47000000000E+01 0. -1.
        -11    1    6    6    0    0  0.48942856953E+02 -0.20860222315E+02 -0.22053546528E+02  0.57592630051E+02  0.00000000000E+00 0.  1.
         12    1    6    6    0    0  0.13871177336E+02  0.24170411462E+02  0.37241143475E+02  0.46513665930E+02  0.00000000000E+00 0. -1.
         -5    1    3    3    0  503 -0.72896664222E+02  0.79938654659E+01  0.15022416385E+02  0.75003923456E+02  0.47000000000E+01 0.  1.
         11    1    4    4    0    0  0.87890753350E+01  0.12144293774E+02  0.25460105925E+01  0.15205718873E+02  0.00000000000E+00 0. -1.
        -12    1    4    4    0    0  0.67424753074E+01 -0.11136280216E+03  0.54289944177E+02  0.12407470619E+03  0.00000000000E+00 0.  1.
</event>
<event>
12    1  0.8052519E-002  0.1805076E+03  0.7818608E-02  0.1167625E+00
         21   -1    0    0  503  502  0.00000000000E+00  0.00000000000E+00  0.53319353413E+03  0.53319353413E+03  0.00000000000E+00 0. -1.
         21   -1    0    0  501  503 -0.00000000000E+00 -0.00000000000E+00 -0.63715983912E+02  0.63715983912E+02  0.00000000000E+00 0. -1.
          6    2    1    2  501    0  0.22351394734E+02  0.52182556836E+02  0.16871347666E+03  0.24613606857E+03  0.16998859656E+03 0.  0.
         24    2    3    3    0    0  0.19339018421E+02 -0.35814630678E+02  0.10055500748E+03  0.13468990963E+03  0.79833431733E+02 0.  0.
         -6    2    1    2    0  502 -0.22351394734E+02 -0.52182556836E+02  0.30076407356E+03  0.35077344947E+03  0.17134871120E+03 0.  0.
        -24    2    5    5    0    0  0.50970137691E+02 -0.36949386629E+02  0.16306888891E+03  0.19396098037E+03  0.84060616621E+02 0.  0.
          5    1    3    3  501    0  0.30123763129E+01  0.87997187514E+02  0.68158469180E+02  0.11144615894E+03  0.47000000000E+01 0. -1.
        -11    1    4    4    0    0 -0.46871718184E+01 -0.32936561999E+02  0.21327935466E+01  0.33336699061E+02  0.00000000000E+00 0.  1.
         12    1    4    4    0    0  0.24026190239E+02 -0.28780686790E+01  0.98422213934E+02  0.10135321057E+03  0.00000000000E+00 0. -1.
         -5    1    5    5    0  502 -0.73321532425E+02 -0.15233170207E+02  0.13769518465E+03  0.15681246911E+03  0.47000000000E+01 0.  1.
         11    1    6    6    0    0  0.33416578419E+02 -0.61288201442E+02  0.82993362015E+02  0.10844726593E+03  0.00000000000E+00 0. -1.
        -12    1    6    6    0    0  0.17553559273E+02  0.24338814813E+02  0.80075526894E+02  0.85513714438E+02  0.00000000000E+00 0.  1.
</event>
<event>
12    1  0.8052519E-002  0.2148715E+03  0.7818608E-02  0.1137853E+00
         21   -1    0    0  501  502  0.00000000000E+00  0.00000000000E+00  0.10936474883E+03  0.10936474883E+03  0.00000000000E+00 0.  1.
         21   -1    0    0  502  503 -0.00000000000E+00 -0.00000000000E+00 -0.64061203851E+03  0.64061203851E+03  0.00000000000E+00 0.  1.
         -6    2    1    2    0  503  0.40043675059E+02  0.12284371284E+03 -0.48522948624E+03  0.53067639403E+03  0.17168490665E+03 0.  0.
        -24    2    3    3    0    0  0.16209061138E+02  0.28497060158E+02 -0.10046998626E+03  0.13377421147E+03  0.82015275505E+02 0.  0.
          6    2    1    2  501    0 -0.40043675059E+02 -0.12284371284E+03 -0.46017803439E+02  0.21930039331E+03  0.17111677467E+03 0.  0.
         24    2    5    5    0    0 -0.69147520586E+02 -0.70998280788E+02 -0.81609444305E+02  0.14984654137E+03  0.77277092872E+02 0.  0.
          5    1    5    5  501    0  0.29103845528E+02 -0.51845432054E+02  0.35591640866E+02  0.69453851937E+02  0.47000000000E+01 0. -1.
        -11    1    6    6    0    0 -0.81914778901E+02 -0.63501818702E+02 -0.50286660833E+02  0.11520095589E+03  0.00000000000E+00 0.  1.
         12    1    6    6    0    0  0.12767258314E+02 -0.74964620861E+01 -0.31322783472E+02  0.34645585478E+02  0.00000000000E+00 0. -1.
         -5    1    3    3    0  503  0.23834613921E+02  0.94346652685E+02 -0.38475949998E+03  0.39690218256E+03  0.47000000000E+01 0.  1.
         11    1    4    4    0    0  0.19989447136E+02 -0.24095940127E+02 -0.18669599531E+02  0.36451972156E+02  0.00000000000E+00 0. -1.
        -12    1    4    4    0    0 -0.37803859980E+01  0.52593000285E+02 -0.81800386726E+02  0.97322239318E+02  0.00000000000E+00 0.  1.
</event>
<event>
12    1  0.8052519E-002  0.2333509E+03  0.7818608E-02  0.1124307E+00
         21   -1    0    0  501  502  0.00000000000E+00  0.00000000000E+00  0.15373891957E+04  0.15373891957E+04  0.00000000000E+00 0. -1.
         21   -1    0    0  502  503 -0.00000000000E+00 -0.00000000000E+00 -0.40998685843E+02  0.40998685843E+02  0.00000000000E+00 0.  1.
         -6    2    1    2    0  503  0.14050860650E+03 -0.72859992510E+02  0.45693848847E+03  0.51306485141E+03  0.17143953015E+03 0.  0.
        -24    2    3    3    0    0  0.56519864563E+02 -0.27291646045E+02  0.36164164776E+03  0.37803092671E+03  0.90461987133E+02 0.  0.
          6    2    1    2  501    0 -0.14050860650E+03  0.72859992510E+02  0.10394520214E+04  0.10653230302E+04  0.17146838415E+03 0.  0.
         24    2    5    5    0    0 -0.69387260587E+02  0.99342279637E+02  0.83302130041E+03  0.84533373508E+03  0.77337935549E+02 0.  0.
          5    1    5    5  501    0 -0.71121345913E+02 -0.26482287127E+02  0.20643072101E+03  0.21998929509E+03  0.47000000000E+01 0. -1.
        -13    1    6    6    0    0 -0.50743015718E+02  0.29034921619E+02  0.20688554876E+03  0.21498723358E+03  0.00000000000E+00 0.  1.
         14    1    6    6    0    0 -0.18644244869E+02  0.70307358018E+02  0.62613575165E+03  0.63034650150E+03  0.00000000000E+00 0. -1.
         -5    1    3    3    0  503  0.83988741936E+02 -0.45568346465E+02  0.95296840709E+02  0.13503392470E+03  0.47000000000E+01 0.  1.
         13    1    4    4    0    0 -0.83708173427E+01  0.19968763466E+02  0.31194538883E+02  0.37972639537E+02  0.00000000000E+00 0. -1.
        -14    1    4    4    0    0  0.64890681906E+02 -0.47260409511E+02  0.33044710888E+03  0.34005828717E+03  0.00000000000E+00 0.  1.
</event>
<event>
12    1  0.8052519E-002  0.1838681E+03  0.7818608E-02  0.1164142E+00
         21   -1    0    0  501  502  0.00000000000E+00  0.00000000000E+00  0.25788202086E+03  0.25788202086E+03  0.00000000000E+00 0. -1.
         21   -1    0    0  502  503 -0.00000000000E+00 -0.00000000000E+00 -0.13132567532E+03  0.13132567532E+03  0.00000000000E+00 0.  1.
         -6    2    1    2    0  503 -0.55727467526E+02 -0.34748395287E+02  0.72904519867E+02  0.19767177434E+03  0.17159854236E+03 0.  0.
        -24    2    3    3    0    0 -0.88948148152E+02 -0.41770458645E+02  0.93670798801E+02  0.15759370882E+03  0.80031332837E+02 0.  0.
          6    2    1    2  501    0  0.55727467526E+02  0.34748395287E+02  0.53651825672E+02  0.19153592185E+03  0.17173959750E+03 0.  0.
         24    2    5    5    0    0 -0.20471481787E+02 -0.24951272853E+02  0.13523747938E+02  0.86642247709E+02  0.79261212117E+02 0.  0.
          5    1    5    5  501    0  0.76198949314E+02  0.59699668140E+02  0.40128077734E+02  0.10489367414E+03  0.47000000000E+01 0. -1.
        -11    1    6    6    0    0  0.96924580653E+01 -0.23464972239E+02 -0.26370943531E+02  0.36605673443E+02  0.00000000000E+00 0.  1.
         12    1    6    6    0    0 -0.30163939853E+02 -0.14863006137E+01  0.39894691468E+02  0.50036574266E+02  0.00000000000E+00 0. -1.
         -5    1    3    3    0  503  0.33220680626E+02  0.70220633578E+01 -0.20766278934E+02  0.40078065520E+02  0.47000000000E+01 0.  1.
         13    1    4    4    0    0 -0.26143113145E+02 -0.35806915115E+02 -0.38822662662E+00  0.44336759635E+02  0.00000000000E+00 0. -1.
        -14    1    4    4    0    0 -0.62805035007E+02 -0.59635435293E+01  0.94059025428E+02  0.11325694918E+03  0.00000000000E+00 0.  1.
</event>
<event>
12    1  0.8052519E-002  0.1756590E+03  0.7818608E-02  0.1172395E+00
         21   -1    0    0  501  502  0.00000000000E+00  0.00000000000E+00  0.10876093558E+04  0.10876093558E+04  0.00000000000E+00 0. -1.
         21   -1    0    0  502  503 -0.00000000000E+00 -0.00000000000E+00 -0.28182002715E+02  0.28182002715E+02  0.00000000000E+00 0. -1.
         -6    2    1    2    0  503  0.14531365140E+02 -0.58013683545E+00  0.51320422835E+03  0.54201806636E+03  0.17376278983E+03 0.  0.
        -24    2    3    3    0    0  0.58801286032E+02  0.80157717035E+01  0.18488756886E+03  0.21058536664E+03  0.81491960900E+02 0.  0.
          6    2    1    2  501    0 -0.14531365140E+02  0.58013683545E+00  0.54622312475E+03  0.57377329217E+03  0.17505596724E+03 0.  0.
         24    2    5    5    0    0  0.34133386749E+02 -0.44018026430E+02  0.42122855965E+03  0.43234138082E+03  0.79893024515E+02 0.  0.
          5    1    5    5  501    0 -0.48664751889E+02  0.44598163266E+02  0.12499456510E+03  0.14143191135E+03  0.47000000000E+01 0. -1.
        -13    1    6    6    0    0  0.24811919236E+02  0.17175718534E+02  0.79149543727E+02  0.84707065323E+02  0.00000000000E+00 0.  1.
         14    1    6    6    0    0  0.93214675136E+01 -0.61193744965E+02  0.34207901592E+03  0.34763431550E+03  0.00000000000E+00 0. -1.
         -5    1    3    3    0  503 -0.44269920892E+02 -0.85959085390E+01  0.32831665949E+03  0.33143269971E+03  0.47000000000E+01 0.  1.
         13    1    4    4    0    0  0.28138670295E+02  0.24580631895E+02  0.16753995778E+03  0.17165555535E+03  0.00000000000E+00 0. -1.
        -14    1    4    4    0    0  0.30662615737E+02 -0.16564860192E+02  0.17347611076E+02  0.38929811290E+02  0.00000000000E+00 0.  1.
</event>
<event>
12    1  0.8052519E-002  0.2024284E+03  0.7818608E-02  0.1147899E+00
         21   -1    0    0  501  502  0.00000000000E+00  0.00000000000E+00  0.53791127874E+02  0.53791127874E+02  0.00000000000E+00 0. -1.
         21   -1    0    0  502  503 -0.00000000000E+00 -0.00000000000E+00 -0.78158365798E+03  0.78158365798E+03  0.00000000000E+00 0. -1.
         -6    2    1    2    0  503  0.92135270598E+02  0.50807192215E+02 -0.43679931021E+03  0.48142590861E+03  0.17293637330E+03 0.  0.
        -24    2    3    3    0    0  0.52784928539E+02  0.75816195269E+02 -0.41024468137E+03  0.42756369582E+03  0.77302465938E+02 0.  0.
          6    2    1    2  501    0 -0.92135270598E+02 -0.50807192215E+02 -0.29099321990E+03  0.35394887725E+03  0.17185015219E+03 0.  0.
         24    2    5    5    0    0  0.17979906663E+01 -0.25240370093E+01 -0.20275203422E+03  0.21624151543E+03  0.75115924296E+02 0.  0.
          5    1    5    5  501    0 -0.93933261264E+02 -0.48283155206E+02 -0.88241185677E+02  0.13770736182E+03  0.47000000000E+01 0. -1.
        -11    1    6    6    0    0 -0.10614302207E+02 -0.57719622911E+01 -0.20304873506E+03  0.20340788522E+03  0.00000000000E+00 0.  1.
         12    1    6    6    0    0  0.12412292874E+02  0.32479252818E+01  0.29670084103E+00  0.12833630212E+02  0.00000000000E+00 0. -1.
         -5    1    3    3    0  503  0.39350342059E+02 -0.25009003054E+02 -0.26554628837E+02  0.53862212790E+02  0.47000000000E+01 0.  1.
         11    1    4    4    0    0  0.58467675410E+02  0.88772158321E+02 -0.36408131901E+03  0.37928112530E+03  0.00000000000E+00 0. -1.
        -12    1    4    4    0    0 -0.56827468714E+01 -0.12955963051E+02 -0.46163362366E+02  0.48282570515E+02  0.00000000000E+00 0.  1.
</event>
<event>
12    1  0.8052519E-002  0.1877662E+03  0.7818608E-02  0.1160648E+00
         21   -1    0    0  503  502  0.00000000000E+00  0.00000000000E+00  0.93717906836E+03  0.93717906836E+03  0.00000000000E+00 0.  1.
         21   -1    0    0  501  503 -0.00000000000E+00 -0.00000000000E+00 -0.37978159730E+02  0.37978159730E+02  0.00000000000E+00 0. -1.
          6    2    1    2  501    0  0.73333290894E+02 -0.15866261372E+02  0.39474149669E+03  0.43712355933E+03  0.17212392951E+03 0.  0.
         24    2    3    3    0    0  0.76851798479E+02  0.27044221056E+02  0.37041712688E+03  0.38745008185E+03  0.79190461678E+02 0.  0.
         -6    2    1    2    0  502 -0.73333290894E+02  0.15866261372E+02  0.50445941194E+03  0.53803366876E+03  0.17138092256E+03 0.  0.
        -24    2    5    5    0    0 -0.85244567216E+01  0.45151827492E+02  0.40721106329E+03  0.41746352036E+03  0.79646637572E+02 0.  0.
          5    1    3    3  501    0 -0.35185075855E+01 -0.42910482429E+02  0.24324369805E+02  0.49673477473E+02  0.47000000000E+01 0. -1.
        -11    1    4    4    0    0  0.76657202544E+02  0.11174980884E+02  0.17488070321E+03  0.19127066491E+03  0.00000000000E+00 0.  1.
         12    1    4    4    0    0  0.19459593457E+00  0.15869240173E+02  0.19553642367E+03  0.19617941694E+03  0.00000000000E+00 0. -1.
         -5    1    5    5    0  502 -0.64808834172E+02 -0.29285566120E+02  0.97248348651E+02  0.12057014840E+03  0.47000000000E+01 0.  1.
         13    1    6    6    0    0  0.29591229376E+01  0.61505926948E+02  0.19933788345E+03  0.20863203789E+03  0.00000000000E+00 0. -1.
        -14    1    6    6    0    0 -0.11483579659E+02 -0.16354099457E+02  0.20787317984E+03  0.20883148246E+03  0.00000000000E+00 0.  1.
</event>
<event>
12    1  0.8052519E-002  0.1772266E+03  0.7818608E-02  0.1170812E+00
         21   -1    0    0  501  502  0.00000000000E+00  0.00000000000E+00  0.42069743896E+03  0.42069743896E+03  0.00000000000E+00 0.  1.
         21   -1    0    0  502  503 -0.00000000000E+00 -0.00000000000E+00 -0.28582861738E+03  0.28582861738E+03  0.00000000000E+00 0.  1.
         -6    2    1    2    0  503 -0.37012932873E+02  0.19583143899E+02 -0.23662755961E+03  0.29492085810E+03  0.17097442455E+03 0.  0.
        -24    2    3    3    0    0 -0.52440458060E+01 -0.24410380669E+02 -0.42374707284E+02  0.93176086107E+02  0.79137857591E+02 0.  0.
          6    2    1    2  501    0  0.37012932873E+02 -0.19583143899E+02  0.37149638118E+03  0.41160519824E+03  0.17220865618E+03 0.  0.
         24    2    5    5    0    0  0.87477747194E+02  0.66128491715E+01  0.27499791376E+03  0.29950269268E+03  0.79886947147E+02 0.  0.
          5    1    5    5  501    0 -0.50464814322E+02 -0.26195993071E+02  0.96498467424E+02  0.11210250556E+03  0.47000000000E+01 0. -1.
        -11    1    6    6    0    0  0.49873006918E+02  0.37947584275E+02  0.10200321381E+03  0.11971629629E+03  0.00000000000E+00 0.  1.
         12    1    6    6    0    0  0.37604740276E+02 -0.31334735103E+02  0.17299469995E+03  0.17978639639E+03  0.00000000000E+00 0. -1.
         -5    1    3    3    0  503 -0.31768887067E+02  0.43993524569E+02 -0.19425285232E+03  0.20174477199E+03  0.47000000000E+01 0.  1.
         13    1    4    4    0    0  0.22234130877E+02  0.77935498099E+01  0.10202119223E+02  0.25674485995E+02  0.00000000000E+00 0. -1.
        -14    1    4    4    0    0 -0.27478176683E+02 -0.32203930479E+02 -0.52576826507E+02  0.67501600112E+02  0.00000000000E+00 0.  1.
</event>
<event>
12    1  0.8052519E-002  0.2677962E+03  0.7818608E-02  0.1102649E+00
         21   -1    0    0  501  502  0.00000000000E+00  0.00000000000E+00  0.14835100661E+04  0.14835100661E+04  0.00000000000E+00 0.  1.
         21   -1    0    0  502  503 -0.00000000000E+00 -0.00000000000E+00 -0.57365518894E+02  0.57365518894E+02  0.00000000000E+00 0. -1.
         -6    2    1    2    0  503  0.20408064285E+03  0.14230590465E+02  0.40615692989E+03  0.48649587530E+03  0.17281020368E+03 0.  0.
        -24    2    3    3    0    0  0.94270038289E+02 -0.50831193453E+02  0.25697674485E+03  0.29010793726E+03  0.81577677829E+02 0.  0.
          6    2    1    2  501    0 -0.20408064285E+03 -0.14230590465E+02  0.10199876173E+04  0.10543797097E+04  0.17172773290E+03 0.  0.
         24    2    5    5    0    0 -0.14055578492E+03 -0.58641564762E+02  0.50448856155E+03  0.53306492120E+03  0.80341394564E+02 0.  0.
          5    1    5    5  501    0 -0.63524857924E+02  0.44410974297E+02  0.51549905576E+03  0.52131478849E+03  0.47000000000E+01 0. -1.
        -13    1    6    6    0    0  0.28399624918E+01 -0.18148704867E+02  0.25444552629E+02  0.31382576914E+02  0.00000000000E+00 0.  1.
         14    1    6    6    0    0 -0.14339574741E+03 -0.40492859895E+02  0.47904400892E+03  0.50168234428E+03  0.00000000000E+00 0. -1.
         -5    1    3    3    0  503  0.10981060456E+03  0.65061783918E+02  0.14918018504E+03  0.19638793805E+03  0.47000000000E+01 0.  1.
         11    1    4    4    0    0 -0.63629188698E+01 -0.16107938704E+02  0.93048054530E+02  0.94646145604E+02  0.00000000000E+00 0. -1.
        -12    1    4    4    0    0  0.10063295716E+03 -0.34723254749E+02  0.16392869032E+03  0.19546179165E+03  0.00000000000E+00 0.  1.
</event>
<event>
12    1  0.8052519E-002  0.1803363E+03  0.7818608E-02  0.1167491E+00
         21   -1    0    0  503  502  0.00000000000E+00  0.00000000000E+00  0.11402723898E+03  0.11402723898E+03  0.00000000000E+00 0.  1.
         21   -1    0    0  501  503 -0.00000000000E+00 -0.00000000000E+00 -0.38092248188E+03  0.38092248188E+03  0.00000000000E+00 0.  1.
          6    2    1    2  501    0 -0.33231355033E+02  0.40472370617E+02 -0.25757027313E+03  0.31442588821E+03  0.17256551751E+03 0.  0.
         24    2    3    3    0    0 -0.46020972301E+02  0.11103825381E+02 -0.26516841972E+03  0.28117069928E+03  0.80631547698E+02 0.  0.
         -6    2    1    2    0  502  0.33231355033E+02 -0.40472370617E+02 -0.93249697735E+01  0.18052383265E+03  0.17250960365E+03 0.  0.
        -24    2    5    5    0    0 -0.39188149118E+02  0.94677588378E+01  0.63510201994E+01  0.91045188422E+02  0.81385142309E+02 0.  0.
          5    1    3    3  501    0  0.12789617268E+02  0.29368545236E+02  0.75981465942E+01  0.33255188931E+02  0.47000000000E+01 0. -1.
        -11    1    4    4    0    0 -0.35795771310E+02 -0.25892445004E+02 -0.73978916223E+02  0.86166327516E+02  0.00000000000E+00 0.  1.
         12    1    4    4    0    0 -0.10225200990E+02  0.36996270385E+02 -0.19118950350E+03  0.19500437176E+03  0.00000000000E+00 0. -1.
         -5    1    5    5    0  502  0.72419504151E+02 -0.49940129455E+02 -0.15675989973E+02  0.89478644229E+02  0.47000000000E+01 0.  1.
         13    1    6    6    0    0 -0.92761698975E+01 -0.95992069318E+01  0.39989938187E+02  0.42159070885E+02  0.00000000000E+00 0. -1.
        -14    1    6    6    0    0 -0.29911979220E+02  0.19066965770E+02 -0.33638917987E+02  0.48886117538E+02  0.00000000000E+00 0.  1.
</event>
<event>
12    1  0.8052519E-002  0.3030826E+03  0.7818608E-02  0.1083829E+00
         21   -1    0    0  503  502  0.00000000000E+00  0.00000000000E+00  0.66267324450E+03  0.66267324450E+03  0.00000000000E+00 0.  1.
         21   -1    0    0  501  503 -0.00000000000E+00 -0.00000000000E+00 -0.29098976606E+03  0.29098976606E+03  0.00000000000E+00 0. -1.
          6    2    1    2  501    0  0.28173173288E+02 -0.24809248779E+03 -0.15984378744E+03  0.34179675169E+03  0.17009224818E+03 0.  0.
         24    2    3    3    0    0  0.26946767087E+02 -0.64812896706E+02 -0.10892662636E+03  0.15151390992E+03  0.78515063093E+02 0.  0.
         -6    2    1    2    0  502 -0.28173173288E+02  0.24809248779E+03  0.53152726588E+03  0.61186625888E+03  0.17180068156E+03 0.  0.
        -24    2    5    5    0    0  0.22555972684E+02  0.11597631280E+03  0.37406253627E+03  0.40009902577E+03  0.78722121085E+02 0.  0.
          5    1    3    3  501    0  0.12264062013E+01 -0.18327959109E+03 -0.50917161084E+02  0.19028284177E+03  0.47000000000E+01 0. -1.
        -13    1    4    4    0    0  0.44642799119E+02 -0.68234823878E+02 -0.65821814430E+02  0.10479256633E+03  0.00000000000E+00 0.  1.
         14    1    4    4    0    0 -0.17696032033E+02  0.34219271718E+01 -0.43104811930E+02  0.46721343589E+02  0.00000000000E+00 0. -1.
         -5    1    5    5    0  502 -0.50729145972E+02  0.13211617499E+03  0.15746472961E+03  0.21176723311E+03  0.47000000000E+01 0.  1.
         11    1    6    6    0    0  0.22939648574E+02  0.50803504989E+02  0.71843689116E+02  0.90932608351E+02  0.00000000000E+00 0. -1.
        -12    1    6    6    0    0 -0.38367589003E+00  0.65172807814E+02  0.30221884715E+03  0.30916641742E+03  0.00000000000E+00 0.  1.
</event>
<event>
12    1  0.8052519E-002  0.2116772E+03  0.7818608E-02  0.1140878E+00
         21   -1    0    0  501  502  0.00000000000E+00  0.00000000000E+00  0.71283629603E+02  0.71283629603E+02  0.00000000000E+00 0. -1.
         21   -1    0    0  502  503 -0.00000000000E+00 -0.00000000000E+00 -0.88579629237E+03  0.88579629237E+03  0.00000000000E+00 0. -1.
         -6    2    1    2    0  503  0.60762282383E+02  0.10138549144E+03 -0.67200806493E+03  0.70455807517E+03  0.17560230387E+03 0.  0.
        -24    2    3    3    0    0  0.10390131226E+03  0.75934363740E+02 -0.58431383528E+03  0.60345860082E+03  0.78600982950E+02 0.  0.
          6    2    1    2  501    0 -0.60762282383E+02 -0.10138549144E+03 -0.14250459784E+03  0.25252184680E+03  0.17172259569E+03 0.  0.
         24    2    5    5    0    0  0.16145401875E+02 -0.48649637059E+02 -0.40924464949E+01  0.85561145213E+02  0.68384941793E+02 0.  0.
          5    1    5    5  501    0 -0.76907684259E+02 -0.52735854381E+02 -0.13841215134E+03  0.16696070159E+03  0.47000000000E+01 0. -1.
        -11    1    6    6    0    0  0.29227055522E+02 -0.91232926929E+01 -0.24481424826E+02  0.39201982164E+02  0.00000000000E+00 0.  1.
         12    1    6    6    0    0 -0.13081653647E+02 -0.39526344367E+02  0.20388978332E+02  0.46359163048E+02  0.00000000000E+00 0. -1.
         -5    1    3    3    0  503 -0.43139029878E+02  0.25451127700E+02 -0.87694229646E+02  0.10109947435E+03  0.47000000000E+01 0.  1.
         13    1    4    4    0    0  0.95138674914E+02  0.37590935600E+02 -0.31258422898E+03  0.32889716647E+03  0.00000000000E+00 0. -1.
        -14    1    4    4    0    0  0.87626373468E+01  0.38343428140E+02 -0.27172960630E+03  0.27456143435E+03  0.00000000000E+00 0.  1.
</event>
<event>
12    1  0.8052519E-002  0.2124797E+03  0.7818608E-02  0.1139739E+00
         21   -1    0    0  503  502  0.00000000000E+00  0.00000000000E+00  0.98402507138E+02  0.98402507138E+02  0.00000000000E+00 0.  1.
         21   -1    0    0  501  503 -0.00000000000E+00 -0.00000000000E+00 -0.10153064385E+04  0.10153064385E+04  0.00000000000E+00 0.  1.
          6    2    1    2  501    0  0.11351171821E+03 -0.51096300435E+02 -0.87091063198E+03  0.89630840344E+03  0.17142836141E+03 0.  0.
         24    2    3    3    0    0  0.12317137705E+03 -0.67293380383E+02 -0.51088999744E+03  0.53576353563E+03  0.79588877748E+02 0.  0.
         -6    2    1    2    0  502 -0.11351171821E+03  0.51096300435E+02 -0.45993299364E+02  0.21740054218E+03  0.17219718367E+03 0.  0.
        -24    2    5    5    0    0 -0.11984376352E+02  0.38343864401E+02 -0.69319655132E+02  0.11234515373E+03  0.78754947559E+02 0.  0.
          5    1    3    3  501    0 -0.96596588472E+01  0.16197079948E+02 -0.36002063454E+03  0.36054486781E+03  0.47000000000E+01 0. -1.
        -13    1    4    4    0    0  0.13029621773E+02 -0.23506222479E+02 -0.22026008309E+03  0.22189370821E+03  0.00000000000E+00 0.  1.
         14    1    4    4    0    0  0.11014175528E+03 -0.43787157904E+02 -0.29062991434E+03  0.31386982742E+03  0.00000000000E+00 0. -1.
         -5    1    5    5    0  502 -0.10152734185E+03  0.12752436034E+02  0.23326355768E+02  0.10505538845E+03  0.47000000000E+01 0.  1.
         11    1    6    6    0    0  0.29034407096E+02  0.37338783286E+02 -0.39489481830E+02  0.61616561961E+02  0.00000000000E+00 0. -1.
        -12    1    6    6    0    0 -0.41018783447E+02  0.10050811150E+01 -0.29830173302E+02  0.50728591768E+02  0.00000000000E+00 0.  1.
</event>
<event>
12    1  0.8052519E-002  0.3392656E+03  0.7818608E-02  0.1067269E+00
         21   -1    0    0  503  502  0.00000000000E+00  0.00000000000E+00  0.77642835253E+03  0.77642835253E+03  0.00000000000E+00 0.  1.
         21   -1    0    0  501  503 -0.00000000000E+00 -0.00000000000E+00 -0.16368251649E+03  0.16368251649E+03  0.00000000000E+00 0.  1.
          6    2    1    2  501    0  0.90091243762E+01 -0.29061939384E+03  0.15839325334E+03  0.37306819788E+03  0.17190305746E+03 0.  0.
         24    2    3    3    0    0  0.61523051092E+02 -0.25339020957E+03  0.13575856378E+03  0.30467124011E+03  0.80015578405E+02 0.  0.
         -6    2    1    2    0  502 -0.90091243762E+01  0.29061939384E+03  0.45435258269E+03  0.56704267115E+03  0.17481511692E+03 0.  0.
        -24    2    5    5    0    0 -0.62915031153E+02  0.89341596911E+02  0.19058008793E+03  0.23086322901E+03  0.70970687677E+02 0.  0.
          5    1    3    3  501    0 -0.52513926716E+02 -0.37229184271E+02  0.22634689564E+02  0.68396957770E+02  0.47000000000E+01 0. -1.
        -13    1    4    4    0    0 -0.13253514411E+02 -0.11212115041E+03  0.54775175267E+02  0.12548756049E+03  0.00000000000E+00 0.  1.
         14    1    4    4    0    0  0.74776565503E+02 -0.14126905916E+03  0.80983388511E+02  0.17918367961E+03  0.00000000000E+00 0. -1.
         -5    1    5    5    0  502  0.53905906777E+02  0.20127779693E+03  0.26377249476E+03  0.33617944214E+03  0.47000000000E+01 0.  1.
         11    1    6    6    0    0 -0.11901539565E+02  0.37920020975E+01 -0.32776023854E+01  0.12913891797E+02  0.00000000000E+00 0. -1.
        -12    1    6    6    0    0 -0.51013491588E+02  0.85549594814E+02  0.19385769032E+03  0.21794933721E+03  0.00000000000E+00 0.  1.
</event>
<event>
12    1  0.8052519E-002  0.1848658E+03  0.7818608E-02  0.1163892E+00
         21   -1    0    0  501  502  0.00000000000E+00  0.00000000000E+00  0.69393528754E+02  0.69393528754E+02  0.00000000000E+00 0. -1.
         21   -1    0    0  502  503 -0.00000000000E+00 -0.00000000000E+00 -0.49559014064E+03  0.49559014064E+03  0.00000000000E+00 0. -1.
         -6    2    1    2    0  503  0.56385391076E+02 -0.34522572804E+02 -0.25723985442E+03  0.31677705151E+03  0.17263903760E+03 0.  0.
        -24    2    3    3    0    0  0.76189751835E+01  0.45440705168E+02 -0.11793914578E+03  0.14885127454E+03  0.78256970023E+02 0.  0.
          6    2    1    2  501    0 -0.56385391076E+02  0.34522572804E+02 -0.16895675746E+03  0.24820661788E+03  0.16937833069E+03 0.  0.
         24    2    5    5    0    0 -0.10059018642E+03  0.37608669016E+02 -0.11541292914E+03  0.17854587231E+03  0.83819369576E+02 0.  0.
          5    1    5    5  501    0  0.44204795349E+02 -0.30860962120E+01 -0.53543828322E+02  0.69660745567E+02  0.47000000000E+01 0. -1.
        -13    1    6    6    0    0 -0.88340493599E+02 -0.56900887538E+01 -0.58994761153E+02  0.10638045762E+03  0.00000000000E+00 0.  1.
         14    1    6    6    0    0 -0.12249692826E+02  0.43298757770E+02 -0.56418167987E+02  0.72165414693E+02  0.00000000000E+00 0. -1.
         -5    1    3    3    0  503  0.48766415892E+02 -0.79963277971E+02 -0.13930070864E+03  0.16792577697E+03  0.47000000000E+01 0.  1.
         13    1    4    4    0    0 -0.25305648028E+02 -0.63707107825E+01 -0.18492122790E+02  0.31983126540E+02  0.00000000000E+00 0. -1.
        -14    1    4    4    0    0  0.32924623212E+02  0.51811415950E+02 -0.99447022985E+02  0.11686814800E+03  0.00000000000E+00 0.  1.
</event>
<event>
12    1  0.8052519E-002  0.4636755E+03  0.7818608E-02  0.1023732E+00
         21   -1    0    0  503  502  0.00000000000E+00  0.00000000000E+00  0.82543172514E+03  0.82543172514E+03  0.00000000000E+00 0.  1.
         21   -1    0    0  501  503 -0.00000000000E+00 -0.00000000000E+00 -0.27934019338E+03  0.27934019338E+03  0.00000000000E+00 0. -1.
          6    2    1    2  501    0 -0.24723371224E+03  0.35228299979E+03  0.12907966633E+03  0.48115840080E+03  0.17211631528E+03 0.  0.
         24    2    3    3    0    0 -0.12809886741E+03  0.17152348367E+03  0.13423845505E+03  0.26455780748E+03  0.78366098574E+02 0.  0.
         -6    2    1    2    0  502  0.24723371224E+03 -0.35228299979E+03  0.41701186543E+03  0.62361351772E+03  0.17253145558E+03 0.  0.
        -24    2    5    5    0    0  0.17865920900E+03 -0.14456069655E+03  0.19439197636E+03  0.31147136618E+03  0.80057876129E+02 0.  0.
          5    1    3    3  501    0 -0.11913484483E+03  0.18075951613E+03 -0.51587887149E+01  0.21660059332E+03  0.47000000000E+01 0. -1.
        -13    1    4    4    0    0 -0.13750597563E+03  0.14639319870E+03  0.12261408885E+03  0.23531484599E+03  0.00000000000E+00 0.  1.
         14    1    4    4    0    0  0.94071082156E+01  0.25130284964E+02  0.11624366202E+02  0.29242961494E+02  0.00000000000E+00 0. -1.
         -5    1    5    5    0  502  0.68574503245E+02 -0.20772230324E+03  0.22261988907E+03  0.31214215154E+03  0.47000000000E+01 0.  1.
         13    1    6    6    0    0  0.25170119485E+02 -0.54612666658E+02  0.22830753207E+02  0.64322014633E+02  0.00000000000E+00 0. -1.
        -14    1    6    6    0    0  0.15348908951E+03 -0.89948029896E+02  0.17156122315E+03  0.24714935155E+03  0.00000000000E+00 0.  1.
</event>
<event>
12    1  0.8052519E-002  0.1734859E+03  0.7818608E-02  0.1174311E+00
         21   -1    0    0  503  502  0.00000000000E+00  0.00000000000E+00  0.68822704889E+03  0.68822704889E+03  0.00000000000E+00 0.  1.
         21   -1    0    0  501  503 -0.00000000000E+00 -0.00000000000E+00 -0.56803833346E+02  0.56803833346E+02  0.00000000000E+00 0.  1.
          6    2    1    2  501    0  0.14365872912E+02  0.21803464646E+00  0.13680562398E+03  0.22093697227E+03  0.17288996824E+03 0.  0.
         24    2    3    3    0    0 -0.40222422658E+02 -0.27713826584E+02  0.30484164503E+02  0.98110209587E+02  0.79438211658E+02 0.  0.
         -6    2    1    2    0  502 -0.14365872912E+02 -0.21803464646E+00  0.49461759156E+03  0.52409390996E+03  0.17268884949E+03 0.  0.
        -24    2    5    5    0    0 -0.10885315014E+02 -0.63636285192E+02  0.31060088054E+03  0.32936787493E+03  0.88556327655E+02 0.  0.
          5    1    3    3  501    0  0.54588295570E+02  0.27931861230E+02  0.10632145948E+03  0.12282676268E+03  0.47000000000E+01 0. -1.
        -11    1    4    4    0    0 -0.13579097608E+02 -0.45905680686E+02  0.42170591649E+02  0.63797195950E+02  0.00000000000E+00 0.  1.
         12    1    4    4    0    0 -0.26643325051E+02  0.18191854102E+02 -0.11686427147E+02  0.34313013637E+02  0.00000000000E+00 0. -1.
         -5    1    5    5    0  502 -0.34805578983E+01  0.63418250546E+02  0.18401671102E+03  0.19472603504E+03  0.47000000000E+01 0.  1.
         11    1    6    6    0    0 -0.21515596374E+02 -0.59789193599E+02  0.10010931607E+03  0.11857294684E+03  0.00000000000E+00 0. -1.
        -12    1    6    6    0    0  0.10630281360E+02 -0.38470915933E+01  0.21049156446E+03  0.21079492808E+03  0.00000000000E+00 0.  1.
</event>
<event>
12    1  0.8052519E-002  0.1797869E+03  0.7818608E-02  0.1168015E+00
         21   -1    0    0  501  502  0.00000000000E+00  0.00000000000E+00  0.14210343646E+03  0.14210343646E+03  0.00000000000E+00 0. -1.
         21   -1    0    0  502  503 -0.00000000000E+00 -0.00000000000E+00 -0.22922083193E+03  0.22922083193E+03  0.00000000000E+00 0. -1.
         -6    2    1    2    0  503  0.46912071748E+02  0.25576519456E+02 -0.59943270518E+02  0.18951656310E+03  0.17166371541E+03 0.  0.
        -24    2    3    3    0    0  0.77859107624E+02  0.34085773709E+02 -0.87736337622E+02  0.14680039501E+03  0.81417506881E+02 0.  0.
          6    2    1    2  501    0 -0.46912071748E+02 -0.25576519456E+02 -0.27174124952E+02  0.18180770528E+03  0.17164121827E+03 0.  0.
         24    2    5    5    0    0  0.88395543240E+01  0.14090627181E+02  0.33615439503E+02  0.90160624153E+02  0.81989370529E+02 0.  0.
          5    1    5    5  501    0 -0.55751626072E+02 -0.39667146638E+02 -0.60789564455E+02  0.91647081125E+02  0.47000000000E+01 0. -1.
        -13    1    6    6    0    0  0.33967585910E+02  0.14089037578E+02 -0.11491059843E+02  0.38527163518E+02  0.00000000000E+00 0.  1.
         14    1    6    6    0    0 -0.25128031586E+02  0.15896032902E-02  0.45106499346E+02  0.51633460635E+02  0.00000000000E+00 0. -1.
         -5    1    3    3    0  503 -0.30947035876E+02 -0.85092542528E+01  0.27793067104E+02  0.42716168093E+02  0.47000000000E+01 0.  1.
         13    1    4    4    0    0 -0.91198410831E+01  0.27418734220E+02 -0.32784124437E+02  0.43700770047E+02  0.00000000000E+00 0. -1.
        -14    1    4    4    0    0  0.86978948707E+02  0.66670394893E+01 -0.54952213185E+02  0.10309962496E+03  0.00000000000E+00 0.  1.
</event>
<event>
12    1  0.8052519E-002  0.1799266E+03  0.7818608E-02  0.1168491E+00
         21   -1    0    0  503  502  0.00000000000E+00  0.00000000000E+00  0.40223338828E+03  0.40223338828E+03  0.00000000000E+00 0. -1.
         21   -1    0    0  501  503 -0.00000000000E+00 -0.00000000000E+00 -0.13412232521E+03  0.13412232521E+03  0.00000000000E+00 0. -1.
          6    2    1    2  501    0  0.51673475573E+02 -0.78218600726E+01 -0.37869709689E+02  0.18139401534E+03  0.16952387536E+03 0.  0.
         24    2    3    3    0    0  0.62486856398E+02  0.24342638855E+02 -0.76420069268E+02  0.12982169312E+03  0.80724678553E+02 0.  0.
         -6    2    1    2    0  502 -0.51673475573E+02  0.78218600726E+01  0.30598077276E+03  0.35496169815E+03  0.17216923151E+03 0.  0.
        -24    2    5    5    0    0 -0.67389908320E+02 -0.36352117659E+02  0.28098248677E+03  0.30161986776E+03  0.78488919933E+02 0.  0.
          5    1    3    3  501    0 -0.10813380825E+02 -0.32164498928E+02  0.38550359580E+02  0.51572322227E+02  0.47000000000E+01 0. -1.
        -11    1    4    4    0    0 -0.16415046085E+02 -0.22108616115E+01  0.36510030314E+00  0.16567285393E+02  0.00000000000E+00 0.  1.
         12    1    4    4    0    0  0.78901902483E+02  0.26553500467E+02 -0.76785169572E+02  0.11325440772E+03  0.00000000000E+00 0. -1.
         -5    1    5    5    0  502  0.15716432747E+02  0.44173977732E+02  0.24998285991E+02  0.53341830391E+02  0.47000000000E+01 0.  1.
         13    1    6    6    0    0 -0.63180591803E+02  0.25145375987E+01  0.11647789948E+03  0.13253381134E+03  0.00000000000E+00 0. -1.
        -14    1    6    6    0    0 -0.42093165165E+01 -0.38866655258E+02  0.16450458729E+03  0.16908605642E+03  0.00000000000E+00 0.  1.
</event>
<event>
12    1  0.8052519E-002  0.1779249E+03  0.7818608E-02  0.1170001E+00
         21   -1    0    0  503  502  0.00000000000E+00  0.00000000000E+00  0.48040973431E+02  0.48040973431E+02  0.00000000000E+00 0. -1.
         21   -1    0    0  501  503 -0.00000000000E+00 -0.00000000000E+00 -0.95003430072E+03  0.95003430072E+03  0.00000000000E+00 0. -1.
          6    2    1    2  501    0  0.25001449319E+02  0.38955791163E+02 -0.17415160061E+03  0.24896999247E+03  0.17179828585E+03 0.  0.
         24    2    3    3    0    0  0.27023627473E+02  0.50582628974E+02 -0.19875270821E+03  0.22128286446E+03  0.78578548533E+02 0.  0.
         -6    2    1    2    0  502 -0.25001449319E+02 -0.38955791163E+02 -0.72784172669E+03  0.74910528169E+03  0.17106290601E+03 0.  0.
        -24    2    5    5    0    0 -0.55423346338E+02 -0.56752293459E+02 -0.68061222887E+03  0.68998740980E+03  0.80975610332E+02 0.  0.
          5    1    3    3  501    0 -0.20221781536E+01 -0.11626837811E+02  0.24601107601E+02  0.27687128005E+02  0.47000000000E+01 0. -1.
        -13    1    4    4    0    0 -0.13111923416E+02 -0.15139042427E+02 -0.47672287543E+02  0.51708414604E+02  0.00000000000E+00 0.  1.
         14    1    4    4    0    0  0.40135550889E+02  0.65721671401E+02 -0.15108042066E+03  0.16957444986E+03  0.00000000000E+00 0. -1.
         -5    1    5    5    0  502  0.30421897019E+02  0.17796502296E+02 -0.47229497821E+02  0.59117871888E+02  0.47000000000E+01 0.  1.
         11    1    6    6    0    0  0.16205816108E+02  0.64176672691E+01 -0.12832576707E+03  0.12950412126E+03  0.00000000000E+00 0. -1.
        -12    1    6    6    0    0 -0.71629162446E+02 -0.63169960728E+02 -0.55228646180E+03  0.56048328854E+03  0.00000000000E+00 0.  1.
</event>
<event>
12    1  0.8052519E-002  0.3949466E+03  0.7818608E-02  0.1045614E+00
         21   -1    0    0  501  502  0.00000000000E+00  0.00000000000E+00  0.32248127696E+03  0.32248127696E+03  0.00000000000E+00 0.  1.
         21   -1    0    0  502  503 -0.00000000000E+00 -0.00000000000E+00 -0.90548751932E+03  0.90548751932E+03  0.00000000000E+00 0. -1.
         -6    2    1    2    0  503 -0.25791921157E+03 -0.24492560701E+03 -0.71088242990E+03  0.81283608315E+03  0.16981694927E+03 0.  0.
        -24    2    3    3    0    0 -0.24393102719E+03 -0.26075827669E+03 -0.69677252495E+03  0.78699963314E+03  0.79870183103E+02 0.  0.
          6    2    1    2  501    0  0.25791921157E+03  0.24492560701E+03  0.12787618754E+03  0.41513271313E+03  0.17167404434E+03 0.  0.
         24    2    5    5    0    0  0.19440477322E+03  0.21220471113E+03  0.33875033975E+02  0.29696737228E+03  0.64946493331E+02 0.  0.
          5    1    5    5  501    0  0.63514438350E+02  0.32720895883E+02  0.94001153562E+02  0.11816534085E+03  0.47000000000E+01 0. -1.
        -13    1    6    6    0    0  0.10839191938E+03  0.77533950396E+02 -0.16198085958E+01  0.13327770043E+03  0.00000000000E+00 0.  1.
         14    1    6    6    0    0  0.86012853836E+02  0.13467076074E+03  0.35494842571E+02  0.16368967185E+03  0.00000000000E+00 0. -1.
         -5    1    3    3    0  503 -0.13988184384E+02  0.15832669675E+02 -0.14109904953E+02  0.25836450011E+02  0.47000000000E+01 0.  1.
         13    1    4    4    0    0 -0.16975358667E+03 -0.22857507762E+03 -0.52870676231E+03  0.60049453520E+03  0.00000000000E+00 0. -1.
        -14    1    4    4    0    0 -0.74177440518E+02 -0.32183199067E+02 -0.16806576265E+03  0.18650509794E+03  0.00000000000E+00 0.  1.
</event>
<event>
12    1  0.8052519E-002  0.2083662E+03  0.7818608E-02  0.1144386E+00
         21   -1    0    0  503  502  0.00000000000E+00  0.00000000000E+00  0.29334117368E+03  0.29334117368E+03  0.00000000000E+00 0. -1.
         21   -1    0    0  501  503 -0.00000000000E+00 -0.00000000000E+00 -0.25223737159E+03  0.25223737159E+03  0.00000000000E+00 0. -1.
          6    2    1    2  501    0 -0.16895341633E+02 -0.11295171191E+03 -0.15893360940E+03  0.26206173226E+03  0.17427827611E+03 0.  0.
         24    2    3    3    0    0  0.45136964652E+02 -0.79731489714E+02 -0.14601279304E+03  0.19036356156E+03  0.80771862741E+02 0.  0.
         -6    2    1    2    0  502  0.16895341633E+02  0.11295171191E+03  0.20003741149E+03  0.28351681301E+03  0.16529753620E+03 0.  0.
        -24    2    5    5    0    0  0.12203203181E+02 -0.71012272382E+01  0.87939363856E+02  0.11913072283E+03  0.79116697421E+02 0.  0.
          5    1    3    3  501    0 -0.62032306285E+02 -0.33220222196E+02 -0.12920816367E+02  0.71698170698E+02  0.47000000000E+01 0. -1.
        -13    1    4    4    0    0  0.27710470717E+02 -0.12375564718E+02 -0.19865058666E+01  0.30413335809E+02  0.00000000000E+00 0.  1.
         14    1    4    4    0    0  0.17426493935E+02 -0.67355924996E+02 -0.14402628717E+03  0.15995022575E+03  0.00000000000E+00 0. -1.
         -5    1    5    5    0  502  0.46921384513E+01  0.12005293915E+03  0.11209804763E+03  0.16438609018E+03  0.47000000000E+01 0.  1.
         11    1    6    6    0    0  0.21137452879E+02  0.33045218534E+02  0.41952292625E+02  0.57434947886E+02  0.00000000000E+00 0. -1.
        -12    1    6    6    0    0 -0.89342496973E+01 -0.40146445772E+02  0.45987071231E+02  0.61695774946E+02  0.00000000000E+00 0.  1.
</event>
<event>
12    1  0.8052519E-002  0.1746569E+03  0.7818608E-02  0.1173399E+00
         21   -1    0    0  503  502  0.00000000000E+00  0.00000000000E+00  0.57696753286E+03  0.57696753286E+03  0.00000000000E+00 0.  1.
         21   -1    0    0  501  503 -0.00000000000E+00 -0.00000000000E+00 -0.55822091714E+02  0.55822091714E+02  0.00000000000E+00 0.  1.
          6    2    1    2  501    0 -0.36875967979E+01  0.24863459490E+02  0.18232900121E+03  0.25160515451E+03  0.17155028156E+03 0.  0.
         24    2    3    3    0    0 -0.40641421729E+02  0.24642554953E+02  0.19202396263E+03  0.21311208692E+03  0.79275334690E+02 0.  0.
         -6    2    1    2    0  502  0.36875967979E+01 -0.24863459490E+02  0.33881643993E+03  0.38118447006E+03  0.17283874062E+03 0.  0.
        -24    2    5    5    0    0 -0.43869804702E+02 -0.57961481197E+02  0.27164555802E+03  0.29235202748E+03  0.79964402783E+02 0.  0.
          5    1    3    3  501    0  0.36953824931E+02  0.22090453652E+00 -0.96949614182E+01  0.38493067594E+02  0.47000000000E+01 0. -1.
        -13    1    4    4    0    0 -0.19456990907E+02 -0.27728683379E+02  0.51330955933E+02  0.61500580600E+02  0.00000000000E+00 0.  1.
         14    1    4    4    0    0 -0.21184430823E+02  0.52371238332E+02  0.14069300670E+03  0.15161150632E+03  0.00000000000E+00 0. -1.
         -5    1    5    5    0  502  0.47557401500E+02  0.33098021707E+02  0.67170881911E+02  0.88832442582E+02  0.47000000000E+01 0.  1.
         11    1    6    6    0    0 -0.34886762937E+01 -0.64334419692E+02  0.19668201399E+03  0.20696594659E+03  0.00000000000E+00 0. -1.
        -12    1    6    6    0    0 -0.40381128409E+02  0.63729384958E+01  0.74963544023E+02  0.85386080886E+02  0.00000000000E+00 0.  1.
</event>
<event>
12    1  0.8052519E-002  0.2586493E+03  0.7818608E-02  0.1108097E+00
         21   -1    0    0  503  502  0.00000000000E+00  0.00000000000E+00  0.41430912711E+03  0.41430912711E+03  0.00000000000E+00 0.  1.
         21   -1    0    0  501  503 -0.00000000000E+00 -0.00000000000E+00 -0.28844455725E+03  0.28844455725E+03  0.00000000000E+00 0. -1.
          6    2    1    2  501    0 -0.15419482560E+03  0.11387128360E+03  0.29652418228E+03  0.39287599696E+03  0.17228535875E+03 0.  0.
         24    2    3    3    0    0 -0.46272964436E+02  0.62100683054E+02  0.22982043704E+03  0.25576727066E+03  0.81251346978E+02 0.  0.
         -6    2    1    2    0  502  0.15419482560E+03 -0.11387128360E+03 -0.17065961242E+03  0.30987768739E+03  0.17365703084E+03 0.  0.
        -24    2    5    5    0    0  0.15022067778E+03 -0.95786067847E+02 -0.19695503273E+03  0.27737525658E+03  0.80028277626E+02 0.  0.
          5    1    3    3  501    0 -0.10792186117E+03  0.51770600545E+02  0.66703745238E+02  0.13710872630E+03  0.47000000000E+01 0. -1.
        -13    1    4    4    0    0 -0.37059401296E+02  0.71708146480E+02  0.22856207625E+03  0.24239653504E+03  0.00000000000E+00 0.  1.
         14    1    4    4    0    0 -0.92135631403E+01 -0.96074634269E+01  0.12583607867E+01  0.13370735623E+02  0.00000000000E+00 0. -1.
         -5    1    5    5    0  502  0.39741478236E+01 -0.18085215752E+02  0.26295420306E+02  0.32502430813E+02  0.47000000000E+01 0.  1.
         13    1    6    6    0    0 -0.85084558196E+01 -0.13630362497E+02 -0.11125711453E+02  0.19543849609E+02  0.00000000000E+00 0. -1.
        -14    1    6    6    0    0  0.15872913360E+03 -0.82155705350E+02 -0.18582932127E+03  0.25783140697E+03  0.00000000000E+00 0.  1.
</event>
<event>
12    1  0.8052519E-002  0.2178006E+03  0.7818608E-02  0.1135594E+00
         21   -1    0    0  501  502  0.00000000000E+00  0.00000000000E+00  0.44085107947E+02  0.44085107947E+02  0.00000000000E+00 0.  1.
         21   -1    0    0  502  503 -0.00000000000E+00 -0.00000000000E+00 -0.11956252361E+04  0.11956252361E+04  0.00000000000E+00 0.  1.
         -6    2    1    2    0  503  0.10719834788E+03  0.79759783342E+02 -0.77348073950E+03  0.80356055639E+03  0.17200001328E+03 0.  0.
        -24    2    3    3    0    0  0.69420247184E+02  0.82030854029E+02 -0.74173645408E+03  0.75394067820E+03  0.81886184450E+02 0.  0.
          6    2    1    2  501    0 -0.10719834788E+03 -0.79759783342E+02 -0.37805938861E+03  0.43614978762E+03  0.17159436792E+03 0.  0.
         24    2    5    5    0    0 -0.12356800039E+03 -0.98275232419E+02 -0.36918084912E+03  0.40947197210E+03  0.80285269819E+02 0.  0.
          5    1    5    5  501    0  0.16369652510E+02  0.18515449077E+02 -0.88785394925E+01  0.26677815528E+02  0.47000000000E+01 0. -1.
        -11    1    6    6    0    0 -0.34850992032E+02 -0.72238366227E+02 -0.12660155812E+03  0.14986970247E+03  0.00000000000E+00 0.  1.
         12    1    6    6    0    0 -0.88717008355E+02 -0.26036866193E+02 -0.24257929100E+03  0.25960226963E+03  0.00000000000E+00 0. -1.
         -5    1    3    3    0  503  0.37778100693E+02 -0.22710706873E+01 -0.31744285429E+02  0.49619878188E+02  0.47000000000E+01 0.  1.
         11    1    4    4    0    0  0.71319164289E+02  0.28018742911E+02 -0.52526084037E+03  0.53082051917E+03  0.00000000000E+00 0. -1.
        -12    1    4    4    0    0 -0.18989171052E+01  0.54012111118E+02 -0.21647561371E+03  0.22312015903E+03  0.00000000000E+00 0.  1.
</event>
<event>
12    1  0.8052519E-002  0.2103497E+03  0.7818608E-02  0.1141405E+00
         21   -1    0    0  501  502  0.00000000000E+00  0.00000000000E+00  0.16810704261E+04  0.16810704261E+04  0.00000000000E+00 0. -1.
         21   -1    0    0  502  503 -0.00000000000E+00 -0.00000000000E+00 -0.50019285307E+02  0.50019285307E+02  0.00000000000E+00 0.  1.
         -6    2    1    2    0  503  0.59388003207E+02 -0.10483834416E+03  0.21823540653E+03  0.30270065273E+03  0.17170608367E+03 0.  0.
        -24    2    3    3    0    0  0.39020731657E+02 -0.95774173983E+02  0.63240300086E+02  0.14604000689E+03  0.81443466022E+02 0.  0.
          6    2    1    2  501    0 -0.59388003207E+02  0.10483834416E+03  0.14128157343E+04  0.14283890587E+04  0.17242096928E+03 0.  0.
         24    2    5    5    0    0 -0.10183434448E+03  0.65314200787E+02  0.11597730502E+04  0.11687421066E+04  0.79046853801E+02 0.  0.
          5    1    5    5  501    0  0.42446341272E+02  0.39524143373E+02  0.25304268409E+03  0.25964695216E+03  0.47000000000E+01 0. -1.
        -13    1    6    6    0    0 -0.30914324355E+02  0.69772894105E+01  0.97813741862E+02  0.10281977492E+03  0.00000000000E+00 0.  1.
         14    1    6    6    0    0 -0.70920020125E+02  0.58336911377E+02  0.10619593084E+04  0.10659223316E+04  0.00000000000E+00 0. -1.
         -5    1    3    3    0  503  0.20367271551E+02 -0.90641701777E+01  0.15499510645E+03  0.15666064584E+03  0.47000000000E+01 0.  1.
         11    1    4    4    0    0 -0.24539461175E+02 -0.37874296323E+02  0.28067169279E+02  0.53145211149E+02  0.00000000000E+00 0. -1.
        -12    1    4    4    0    0  0.63560192832E+02 -0.57899877659E+02  0.35173130807E+02  0.92894795745E+02  0.00000000000E+00 0.  1.
</event>
<event>
12    1  0.8052519E-002  0.2027681E+03  0.7818608E-02  0.1147527E+00
         21   -1    0    0  501  502  0.00000000000E+00  0.00000000000E+00  0.26490170850E+03  0.26490170850E+03  0.00000000000E+00 0.  1.
         21   -1    0    0  502  503 -0.00000000000E+00 -0.00000000000E+00 -0.17147238262E+03  0.17147238262E+03  0.00000000000E+00 0. -1.
         -6    2    1    2    0  503 -0.76737255604E+02 -0.81878262230E+02  0.11463940119E+03  0.23249964765E+03  0.16828914887E+03 0.  0.
        -24    2    3    3    0    0 -0.75908147503E+02  0.72169416268E+01  0.46992175303E+02  0.12053143813E+03  0.80656257881E+02 0.  0.
          6    2    1    2  501    0  0.76737255604E+02  0.81878262230E+02 -0.21210075313E+02  0.20387444348E+03  0.16888536108E+03 0.  0.
         24    2    5    5    0    0  0.70474949875E+02 -0.12326296264E+02 -0.19967307242E+02  0.10933688594E+03  0.80232195087E+02 0.  0.
          5    1    5    5  501    0  0.62623057288E+01  0.94204558494E+02 -0.12427680714E+01  0.94537557545E+02  0.47000000000E+01 0. -1.
        -11    1    6    6    0    0  0.20391352063E+02 -0.10116260362E+02  0.30595263254E+02  0.38134185402E+02  0.00000000000E+00 0.  1.
         12    1    6    6    0    0  0.50083597812E+02 -0.22100359025E+01 -0.50562570496E+02  0.71202700536E+02  0.00000000000E+00 0. -1.
         -5    1    3    3    0  503 -0.82910810101E+00 -0.89095203857E+02  0.67647225889E+02  0.11196820951E+03  0.47000000000E+01 0.  1.
         11    1    4    4    0    0 -0.66572726067E+02 -0.29662576410E+02  0.28853260890E+02  0.78385629801E+02  0.00000000000E+00 0. -1.
        -12    1    4    4    0    0 -0.93354214360E+01  0.36879518037E+02  0.18138914414E+02  0.42145808334E+02  0.00000000000E+00 0.  1.
</event>
<event>
12    1  0.8052519E-002  0.2014780E+03  0.7818608E-02  0.1148614E+00
         21   -1    0    0  503  502  0.00000000000E+00  0.00000000000E+00  0.47636392801E+03  0.47636392801E+03  0.00000000000E+00 0.  1.
         21   -1    0    0  501  503 -0.00000000000E+00 -0.00000000000E+00 -0.84987251499E+02  0.84987251499E+02  0.00000000000E+00 0.  1.
          6    2    1    2  501    0  0.87446947572E+02 -0.59567980891E+02  0.19823128883E+03  0.28264647412E+03  0.17145866112E+03 0.  0.
         24    2    3    3    0    0  0.10788768970E+03 -0.64177660690E+02  0.21039524298E+03  0.25796601895E+03  0.80757556575E+02 0.  0.
         -6    2    1    2    0  502 -0.87446947572E+02  0.59567980891E+02  0.19314538769E+03  0.27870470539E+03  0.17080942315E+03 0.  0.
        -24    2    5    5    0    0  0.13626926452E+02  0.43292270173E+02  0.58912332174E+02  0.10982181709E+03  0.80809992238E+02 0.  0.
          5    1    3    3  501    0 -0.20440742127E+02  0.46096797988E+01 -0.12163954155E+02  0.24680455167E+02  0.47000000000E+01 0. -1.
        -13    1    4    4    0    0  0.72013793830E+02 -0.67681345581E+02  0.19531438922E+03  0.21889372234E+03  0.00000000000E+00 0.  1.
         14    1    4    4    0    0  0.35873895869E+02  0.35036848909E+01  0.15080853762E+02  0.39072296616E+02  0.00000000000E+00 0. -1.
         -5    1    5    5    0  502 -0.10107387402E+03  0.16275710718E+02  0.13423305551E+03  0.16888288830E+03  0.47000000000E+01 0.  1.
         11    1    6    6    0    0  0.10231981239E+02  0.65070198695E+02  0.27342828404E+02  0.71319383504E+02  0.00000000000E+00 0. -1.
        -12    1    6    6    0    0  0.33949452136E+01 -0.21777928522E+02  0.31569503770E+02  0.38502433586E+02  0.00000000000E+00 0.  1.
</event>
<event>
12    1  0.8052519E-002  0.1750401E+03  0.7818608E-02  0.1173868E+00
         21   -1    0    0  503  502  0.00000000000E+00  0.00000000000E+00  0.40080789583E+02  0.40080789583E+02  0.00000000000E+00 0.  1.
         21   -1    0    0  501  503 -0.00000000000E+00 -0.00000000000E+00 -0.23725802915E+04  0.23725802915E+04  0.00000000000E+00 0.  1.
          6    2    1    2  501    0 -0.23611893940E+01 -0.26727686183E+02 -0.21704440273E+04  0.21774908313E+04  0.17297138591E+03 0.  0.
         24    2    3    3    0    0 -0.11345561838E+02 -0.76018083385E+02 -0.18397504986E+04  0.18429903647E+04  0.77615183214E+02 0.  0.
         -6    2    1    2    0  502  0.23611893940E+01  0.26727686183E+02 -0.16205547470E+03  0.23517024986E+03  0.16829475665E+03 0.  0.
        -24    2    5    5    0    0  0.47385693683E+02  0.58669501583E+02 -0.13028533149E+03  0.17130384588E+03  0.81750997736E+02 0.  0.
          5    1    3    3  501    0  0.89843724437E+01  0.49290397202E+02 -0.33069352869E+03  0.33450046655E+03  0.47000000000E+01 0. -1.
        -11    1    4    4    0    0  0.13897589480E+02 -0.33381673862E+02 -0.26442798136E+03  0.26688880918E+03  0.00000000000E+00 0.  1.
         12    1    4    4    0    0 -0.25243151318E+02 -0.42636409523E+02 -0.15753225172E+04  0.15761015555E+04  0.00000000000E+00 0. -1.
         -5    1    5    5    0  502 -0.45024504289E+02 -0.31941815399E+02 -0.31770143208E+02  0.63866403977E+02  0.47000000000E+01 0.  1.
         11    1    6    6    0    0 -0.18291887829E+02  0.34194712194E+02 -0.64014053315E+02  0.74844308563E+02  0.00000000000E+00 0. -1.
        -12    1    6    6    0    0  0.65677581513E+02  0.24474789389E+02 -0.66271278175E+02  0.96459537320E+02  0.00000000000E+00 0.  1.
</event>
<event>
12    1  0.8052519E-002  0.2129185E+03  0.7818608E-02  0.1139680E+00
         21   -1    0    0  501  502  0.00000000000E+00  0.00000000000E+00  0.83937294255E+03  0.83937294255E+03  0.00000000000E+00 0. -1.
         21   -1    0    0  502  503 -0.00000000000E+00 -0.00000000000E+00 -0.54306751974E+02  0.54306751974E+02  0.00000000000E+00 0.  1.
         -6    2    1    2    0  503 -0.66610612876E+01 -0.12518340068E+03  0.33572696690E+03  0.39644734477E+03  0.16953656634E+03 0.  0.
        -24    2    3    3    0    0 -0.25922889343E+02 -0.70839286080E+02  0.31738620047E+03  0.33576147718E+03  0.79445381669E+02 0.  0.
          6    2    1    2  501    0  0.66610612876E+01  0.12518340068E+03  0.44933922367E+03  0.49723234975E+03  0.17210176689E+03 0.  0.
         24    2    5    5    0    0  0.45918199538E+02  0.14021517052E+03  0.38717241975E+03  0.42204007277E+03  0.80290505754E+02 0.  0.
          5    1    5    5  501    0 -0.39257138250E+02 -0.15031769844E+02  0.62166803921E+02  0.75192276984E+02  0.47000000000E+01 0. -1.
        -11    1    6    6    0    0 -0.49179879848E+01  0.80623206656E+02  0.12858904518E+03  0.15185331935E+03  0.00000000000E+00 0.  1.
         12    1    6    6    0    0  0.50836187523E+02  0.59591963865E+02  0.25858337456E+03  0.27018675341E+03  0.00000000000E+00 0. -1.
         -5    1    3    3    0  503  0.19261828056E+02 -0.54344114597E+02  0.18340766435E+02  0.60685867587E+02  0.47000000000E+01 0.  1.
         11    1    4    4    0    0 -0.28266559149E+02  0.89865910207E+01  0.89581579495E+02  0.94364275916E+02  0.00000000000E+00 0. -1.
        -12    1    4    4    0    0  0.23436698061E+01 -0.79825877101E+02  0.22780462097E+03  0.24139720127E+03  0.00000000000E+00 0.  1.
</event>
<event>
12    1  0.8052519E-002  0.2055457E+03  0.7818608E-02  0.1145165E+00
         21   -1    0    0  501  502  0.00000000000E+00  0.00000000000E+00  0.10704817732E+03  0.10704817732E+03  0.00000000000E+00 0. -1.
         21   -1    0    0  502  503 -0.00000000000E+00 -0.00000000000E+00 -0.43657676064E+03  0.43657676064E+03  0.00000000000E+00 0. -1.
         -6    2    1    2    0  503  0.89755101849E+02 -0.72876200878E+02 -0.24922132026E+03  0.32304847787E+03  0.16994744370E+03 0.  0.
        -24    2    3    3    0    0  0.90729427289E+02 -0.10168341450E+03 -0.24789245765E+03  0.29381389659E+03  0.79401445271E+02 0.  0.
          6    2    1    2  501    0 -0.89755101849E+02  0.72876200878E+02 -0.80307263061E+02  0.22057646009E+03  0.16981695817E+03 0.  0.
         24    2    5    5    0    0 -0.60348794608E+02  0.10208189799E+03 -0.15744067807E+02  0.14371164479E+03  0.79639627511E+02 0.  0.
          5    1    5    5  501    0 -0.29406307241E+02 -0.29205697111E+02 -0.64563195254E+02  0.76864815297E+02  0.47000000000E+01 0. -1.
        -11    1    6    6    0    0  0.10292938993E+02  0.10100196526E+02  0.17867892584E+02  0.22961274973E+02  0.00000000000E+00 0.  1.
         12    1    6    6    0    0 -0.70641733601E+02  0.91981701463E+02 -0.33611960392E+02  0.12075036982E+03  0.00000000000E+00 0. -1.
         -5    1    3    3    0  503 -0.97432543974E+00  0.28807213620E+02 -0.13288626057E+01  0.29234581277E+02  0.47000000000E+01 0.  1.
         13    1    4    4    0    0  0.80610285448E+02 -0.39835763329E+02 -0.18128236006E+03  0.20235661647E+03  0.00000000000E+00 0. -1.
        -14    1    4    4    0    0  0.10119141841E+02 -0.61847651169E+02 -0.66610097593E+02  0.91457280126E+02  0.00000000000E+00 0.  1.
</event>
<event>
12    1  0.8052519E-002  0.1818866E+03  0.7818608E-02  0.1166293E+00
         21   -1    0    0  501  502  0.00000000000E+00  0.00000000000E+00  0.51652180725E+03  0.51652180725E+03  0.00000000000E+00 0.  1.
         21   -1    0    0  502  503 -0.00000000000E+00 -0.00000000000E+00 -0.92971737322E+02  0.92971737322E+02  0.00000000000E+00 0.  1.
         -6    2    1    2    0  503  0.44266835004E+02  0.37378187316E+02  0.39994704552E+02  0.18499684066E+03  0.17107768146E+03 0.  0.
        -24    2    3    3    0    0  0.28721014717E+02 -0.13873311457E+02 -0.34684130811E+02  0.92978325638E+02  0.80153693934E+02 0.  0.
          6    2    1    2  501    0 -0.44266835004E+02 -0.37378187316E+02  0.38355536537E+03  0.42449670391E+03  0.17241244664E+03 0.  0.
         24    2    5    5    0    0  0.22592233400E+02 -0.31666321772E+02  0.31886300900E+03  0.33116958348E+03  0.80538869907E+02 0.  0.
          5    1    5    5  501    0 -0.66859068405E+02 -0.57118655436E+01  0.64692356371E+02  0.93327120435E+02  0.47000000000E+01 0. -1.
        -13    1    6    6    0    0 -0.27443364496E+02 -0.23310135397E+02  0.94116930690E+02  0.10076952570E+03  0.00000000000E+00 0.  1.
         14    1    6    6    0    0  0.50035597896E+02 -0.83561863760E+01  0.22474607831E+03  0.23040005778E+03  0.00000000000E+00 0. -1.
         -5    1    3    3    0  503  0.15545820287E+02  0.51251498773E+02  0.74678835363E+02  0.92018515018E+02  0.47000000000E+01 0.  1.
         13    1    4    4    0    0  0.32990764342E+02 -0.41769710090E+02 -0.36750493301E+02  0.64681511816E+02  0.00000000000E+00 0. -1.
        -14    1    4    4    0    0 -0.42697496248E+01  0.27896398633E+02  0.20663624901E+01  0.28296813822E+02  0.00000000000E+00 0.  1.
</event>
<event>
12    1  0.8052519E-002  0.2261910E+03  0.7818608E-02  0.1129467E+00
         21   -1    0    0  503  502  0.00000000000E+00  0.00000000000E+00  0.16859799244E+03  0.16859799244E+03  0.00000000000E+00 0.  1.
         21   -1    0    0  501  503 -0.00000000000E+00 -0.00000000000E+00 -0.30657843482E+03  0.30657843482E+03  0.00000000000E+00 0. -1.
          6    2    1    2  501    0  0.70669445983E+02 -0.12736336770E+03 -0.96207557422E+02  0.24580123051E+03  0.17305130103E+03 0.  0.
         24    2    3    3    0    0  0.44956450351E+02 -0.85111057787E+01 -0.14030697435E+02  0.98960689021E+02  0.86618913357E+02 0.  0.
         -6    2    1    2    0  502 -0.70669445983E+02  0.12736336770E+03 -0.41772884953E+02  0.22937519674E+03  0.17219874836E+03 0.  0.
        -24    2    5    5    0    0  0.23534451736E+02  0.50423559350E+02 -0.42605157912E+02  0.10765054381E+03  0.81713122233E+02 0.  0.
          5    1    3    3  501    0  0.25712995632E+02 -0.11885226192E+03 -0.82176859987E+02  0.14684054149E+03  0.47000000000E+01 0. -1.
        -13    1    4    4    0    0  0.26862562447E+02  0.32210718549E+02 -0.30063248427E+02  0.51603551783E+02  0.00000000000E+00 0.  1.
         14    1    4    4    0    0  0.18093887903E+02 -0.40721824327E+02  0.16032550992E+02  0.47357137237E+02  0.00000000000E+00 0. -1.
         -5    1    5    5    0  502 -0.94203897719E+02  0.76939808352E+02  0.83227295893E+00  0.12172465294E+03  0.47000000000E+01 0.  1.
         13    1    6    6    0    0  0.17622924638E+02  0.72979992196E+02 -0.36845414234E+02  0.83631520875E+02  0.00000000000E+00 0. -1.
        -14    1    6    6    0    0  0.59115270978E+01 -0.22556432846E+02 -0.57597436780E+01  0.24019022932E+02  0.00000000000E+00 0.  1.
</event>
<event>
12    1  0.8052519E-002  0.1787418E+03  0.7818608E-02  0.1169660E+00
         21   -1    0    0  503  502  0.00000000000E+00  0.00000000000E+00  0.38619970344E+02  0.38619970344E+02  0.00000000000E+00 0. -1.
         21   -1    0    0  501  503 -0.00000000000E+00 -0.00000000000E+00 -0.93894447575E+03  0.93894447575E+03  0.00000000000E+00 0. -1.
          6    2    1    2  501    0  0.29357918988E+02  0.23188726042E+02 -0.63030581617E+03  0.65515956879E+03  0.17478282024E+03 0.  0.
         24    2    3    3    0    0 -0.48173919505E+02 -0.15057669677E+01 -0.25904747554E+03  0.27505977997E+03  0.78925877392E+02 0.  0.
         -6    2    1    2    0  502 -0.29357918988E+02 -0.23188726042E+02 -0.27001868924E+03  0.32240487731E+03  0.17214879597E+03 0.  0.
        -24    2    5    5    0    0 -0.81931106938E+02 -0.36362081085E+02 -0.19500924414E+03  0.22974429115E+03  0.81969059953E+02 0.  0.
          5    1    3    3  501    0  0.77531838493E+02  0.24694493010E+02 -0.37125834063E+03  0.38009978881E+03  0.47000000000E+01 0. -1.
        -13    1    4    4    0    0 -0.19595713689E+02  0.29547236305E+02 -0.19606958443E+03  0.19924937417E+03  0.00000000000E+00 0.  1.
         14    1    4    4    0    0 -0.28578205817E+02 -0.31053003272E+02 -0.62977891108E+02  0.75810405805E+02  0.00000000000E+00 0. -1.
         -5    1    5    5    0  502  0.52573187950E+02  0.13173355043E+02 -0.75009445099E+02  0.92660586164E+02  0.47000000000E+01 0.  1.
         11    1    6    6    0    0 -0.32771908009E+02  0.18616975916E+02 -0.27312788547E+02  0.46546516143E+02  0.00000000000E+00 0. -1.
        -12    1    6    6    0    0 -0.49159198929E+02 -0.54979057001E+02 -0.16769645559E+03  0.18319777500E+03  0.00000000000E+00 0.  1.
</event>
<event>
12    1  0.8052519E-002  0.1830067E+03  0.7818608E-02  0.1164983E+00
         21   -1    0    0  503  502  0.00000000000E+00  0.00000000000E+00  0.16484177556E+03  0.16484177556E+03  0.00000000000E+00 0. -1.
         21   -1    0    0  501  503 -0.00000000000E+00 -0.00000000000E+00 -0.30296218002E+03  0.30296218002E+03  0.00000000000E+00 0. -1.
          6    2    1    2  501    0 -0.35275023242E+02 -0.50433830986E+02 -0.20351672640E+03  0.27369786471E+03  0.17234722118E+03 0.  0.
         24    2    3    3    0    0  0.18123674125E+02  0.18260191650E+02 -0.49204387056E+02  0.96484214840E+02  0.78906462631E+02 0.  0.
         -6    2    1    2    0  502  0.35275023242E+02  0.50433830986E+02  0.65396321943E+02  0.19410609087E+03  0.17208311078E+03 0.  0.
        -24    2    5    5    0    0 -0.43075276769E+02  0.34398328281E+02  0.13511758676E+02  0.98659745921E+02  0.80699773144E+02 0.  0.
          5    1    3    3  501    0 -0.53398697367E+02 -0.68694022635E+02 -0.15431233935E+03  0.17721364987E+03  0.47000000000E+01 0. -1.
        -11    1    4    4    0    0  0.31324059487E+02  0.29323989010E+02 -0.61736978003E+02  0.75183425615E+02  0.00000000000E+00 0.  1.
         12    1    4    4    0    0 -0.13200385363E+02 -0.11063797360E+02  0.12532590947E+02  0.21300789225E+02  0.00000000000E+00 0. -1.
         -5    1    5    5    0  502  0.78350300011E+02  0.16035502705E+02  0.51884563267E+02  0.95446344950E+02  0.47000000000E+01 0.  1.
         13    1    6    6    0    0 -0.16955127706E+02  0.14524156448E+02  0.46836928507E+02  0.51885695023E+02  0.00000000000E+00 0. -1.
        -14    1    6    6    0    0 -0.26120149063E+02  0.19874171833E+02 -0.33325169831E+02  0.46774050898E+02  0.00000000000E+00 0.  1.
</event>
<event>
12    1  0.8052519E-002  0.4093770E+03  0.7818608E-02  0.1040657E+00
         21   -1    0    0  501  502  0.00000000000E+00  0.00000000000E+00  0.19369287338E+03  0.19369287338E+03  0.00000000000E+00 0.  1.
         21   -1    0    0  502  503 -0.00000000000E+00 -0.00000000000E+00 -0.14220029943E+04  0.14220029943E+04  0.00000000000E+00 0. -1.
         -6    2    1    2    0  503 -0.63017178014E+01  0.37162027196E+03 -0.11209408111E+04  0.11933556846E+04  0.17160463255E+03 0.  0.
        -24    2    3    3    0    0 -0.24071577841E+02  0.10989744012E+03 -0.51362681982E+03  0.53179164191E+03  0.79579847739E+02 0.  0.
          6    2    1    2  501    0  0.63017178014E+01 -0.37162027196E+03 -0.10736930984E+03  0.42234018306E+03  0.16941582969E+03 0.  0.
         24    2    5    5    0    0  0.65785093254E+02 -0.23072993264E+03 -0.87288252947E+02  0.26802330610E+03  0.81567598944E+02 0.  0.
          5    1    5    5  501    0 -0.59483375452E+02 -0.14089033932E+03 -0.20081056896E+02  0.15431687696E+03  0.47000000000E+01 0. -1.
        -11    1    6    6    0    0  0.56281005716E+02 -0.23511471003E+03 -0.88586488063E+02  0.25747629861E+03  0.00000000000E+00 0.  1.
         12    1    6    6    0    0  0.95040875374E+01  0.43847773854E+01  0.12982351164E+01  0.10547007493E+02  0.00000000000E+00 0. -1.
         -5    1    3    3    0  503  0.17769860040E+02  0.26172283184E+03 -0.60731399124E+03  0.66156404270E+03  0.47000000000E+01 0.  1.
         13    1    4    4    0    0 -0.29854619884E+02  0.11775633075E+03 -0.50257535627E+03  0.51704916641E+03  0.00000000000E+00 0. -1.
        -14    1    4    4    0    0  0.57830420429E+01 -0.78588906323E+01 -0.11051463552E+02  0.14742475501E+02  0.00000000000E+00 0.  1.
</event>
<event>
12    1  0.8052519E-002  0.1904648E+03  0.7818608E-02  0.1159561E+00
         21   -1    0    0  501  502  0.00000000000E+00  0.00000000000E+00  0.18327168118E+03  0.18327168118E+03  0.00000000000E+00 0.  1.
         21   -1    0    0  502  503 -0.00000000000E+00 -0.00000000000E+00 -0.24257950594E+03  0.24257950594E+03  0.00000000000E+00 0.  1.
         -6    2    1    2    0  503  0.23497428574E+02 -0.68974333089E+02 -0.12730653938E+03  0.22361201683E+03  0.16877734245E+03 0.  0.
        -24    2    3    3    0    0  0.23551839610E+02 -0.35309198614E+02  0.26883939820E+01  0.89246407613E+02  0.78461870701E+02 0.  0.
          6    2    1    2  501    0 -0.23497428574E+02  0.68974333089E+02  0.67998714613E+02  0.20223917029E+03  0.17597519438E+03 0.  0.
         24    2    5    5    0    0 -0.17607923967E+02  0.12470538222E+02  0.10546242542E+03  0.13402638024E+03  0.79844812708E+02 0.  0.
          5    1    5    5  501    0 -0.58895046065E+01  0.56503794867E+02 -0.37463710805E+02  0.68212790048E+02  0.47000000000E+01 0. -1.
        -13    1    6    6    0    0  0.15277204901E+02 -0.17161532071E+02  0.39917200874E+01  0.23320484598E+02  0.00000000000E+00 0.  1.
         14    1    6    6    0    0 -0.32885128868E+02  0.29632070293E+02  0.10147070533E+03  0.11070589565E+03  0.00000000000E+00 0. -1.
         -5    1    3    3    0  503 -0.54411036181E-01 -0.33665134475E+02 -0.12999493336E+03  0.13436560921E+03  0.47000000000E+01 0.  1.
         11    1    4    4    0    0  0.35449848801E+02 -0.50333484879E+02 -0.14781676285E+02  0.63313896057E+02  0.00000000000E+00 0. -1.
        -12    1    4    4    0    0 -0.11898009191E+02  0.15024286266E+02  0.17470070267E+02  0.25932511557E+02  0.00000000000E+00 0.  1.
</event>
<event>
12    1  0.8052519E-002  0.1769426E+03  0.7818608E-02  0.1171865E+00
         21   -1    0    0  501  502  0.00000000000E+00  0.00000000000E+00  0.72038582469E+03  0.72038582469E+03  0.00000000000E+00 0. -1.
         21   -1    0    0  502  503 -0.00000000000E+00 -0.00000000000E+00 -0.44666726232E+02  0.44666726232E+02  0.00000000000E+00 0. -1.
         -6    2    1    2    0  503 -0.14895724878E+02 -0.37537457494E+02  0.24815086919E+03  0.30231800438E+03  0.16788799409E+03 0.  0.
        -24    2    3    3    0    0  0.18737849307E+01 -0.43520777074E+02  0.49416997571E+02  0.10273278875E+03  0.78831574432E+02 0.  0.
          6    2    1    2  501    0  0.14895724878E+02  0.37537457494E+02  0.42756822927E+03  0.46273454654E+03  0.17227224543E+03 0.  0.
         24    2    5    5    0    0  0.50400783478E+02 -0.28443510446E+02  0.24483664803E+03  0.26518197607E+03  0.83828539008E+02 0.  0.
          5    1    5    5  501    0 -0.35505058600E+02  0.65980967940E+02  0.18273158124E+03  0.19755257047E+03  0.47000000000E+01 0. -1.
        -13    1    6    6    0    0 -0.18764325835E+02 -0.26168840223E+02  0.66406419789E+02  0.73801901817E+02  0.00000000000E+00 0.  1.
         14    1    6    6    0    0  0.69165109313E+02 -0.22746702232E+01  0.17843022824E+03  0.19138007425E+03  0.00000000000E+00 0. -1.
         -5    1    3    3    0  503 -0.16769509809E+02  0.59833195801E+01  0.19873387162E+03  0.19958521564E+03  0.47000000000E+01 0.  1.
         11    1    4    4    0    0  0.36776585689E+02 -0.16603298260E+02  0.41624983792E+02  0.57972631852E+02  0.00000000000E+00 0. -1.
        -12    1    4    4    0    0 -0.34902800759E+02 -0.26917478814E+02  0.77920137783E+01  0.44760156894E+02  0.00000000000E+00 0.  1.
</event>
<event>
12    1  0.8052519E-002  0.1807942E+03  0.7818608E-02  0.1167624E+00
         21   -1    0    0  501  502  0.00000000000E+00  0.00000000000E+00  0.24106450727E+03  0.24106450727E+03  0.00000000000E+00 0.  1.
         21   -1    0    0  502  503 -0.00000000000E+00 -0.00000000000E+00 -0.19534874640E+03  0.19534874640E+03  0.00000000000E+00 0.  1.
         -6    2    1    2    0  503 -0.11673102474E+02 -0.45946702420E+02 -0.99536012851E+02  0.20638305832E+03  0.17446830119E+03 0.  0.
        -24    2    3    3    0    0 -0.61971546298E+02  0.13868930528E+02 -0.58185274332E+02  0.11784031738E+03  0.80423842651E+02 0.  0.
          6    2    1    2  501    0  0.11673102474E+02  0.45946702420E+02  0.14525177372E+03  0.23003019535E+03  0.17195479703E+03 0.  0.
         24    2    5    5    0    0 -0.24430265702E+02  0.15640738112E+02  0.78324970868E+01  0.84675277112E+02  0.79164916298E+02 0.  0.
          5    1    5    5  501    0  0.36103368176E+02  0.30305964307E+02  0.13741927663E+03  0.14535491824E+03  0.47000000000E+01 0. -1.
        -11    1    6    6    0    0  0.23642496260E+02 -0.11911954478E+02  0.12088590486E+02  0.29103201007E+02  0.00000000000E+00 0.  1.
         12    1    6    6    0    0 -0.48072761962E+02  0.27552692591E+02 -0.42560933993E+01  0.55572076106E+02  0.00000000000E+00 0. -1.
         -5    1    3    3    0  503  0.50298443824E+02 -0.59815632948E+02 -0.41350738519E+02  0.88542740935E+02  0.47000000000E+01 0.  1.
         13    1    4    4    0    0  0.18098119189E+02  0.12959338648E+02 -0.10166843962E+02  0.24471434214E+02  0.00000000000E+00 0. -1.
        -14    1    4    4    0    0 -0.80069665487E+02  0.90959188022E+00 -0.48018430369E+02  0.93368883166E+02  0.00000000000E+00 0.  1.
</event>
<event>
12    1  0.8052519E-002  0.2129533E+03  0.7818608E-02  0.1139262E+00
         21   -1    0    0  501  502  0.00000000000E+00  0.00000000000E+00  0.15220880570E+04  0.15220880570E+04  0.00000000000E+00 0.  1.
         21   -1    0    0  502  503 -0.00000000000E+00 -0.00000000000E+00 -0.44532031810E+02  0.44532031810E+02  0.00000000000E+00 0.  1.
         -6    2    1    2    0  503 -0.13875336377E+02  0.12515911229E+03  0.28808247625E+03  0.35824658656E+03  0.17173169569E+03 0.  0.
        -24    2    3    3    0    0 -0.29816550639E+02  0.10739599341E+03  0.10026078701E+03  0.16885617588E+03  0.77699785252E+02 0.  0.
          6    2    1    2  501    0  0.13875336377E+02 -0.12515911229E+03  0.11894735489E+04  0.12083735022E+04  0.17164460079E+03 0.  0.
         24    2    5    5    0    0  0.60855817366E+02 -0.35492596272E+02  0.45753778313E+03  0.46945584449E+03  0.78005205194E+02 0.  0.
          5    1    5    5  501    0 -0.46980480989E+02 -0.89666516018E+02  0.73193576576E+03  0.73891765772E+03  0.47000000000E+01 0. -1.
        -13    1    6    6    0    0  0.31970319591E+02 -0.67016139785E+01  0.38382890435E+03  0.38521635581E+03  0.00000000000E+00 0.  1.
         14    1    6    6    0    0  0.28885497775E+02 -0.28790982294E+02  0.73708878783E+02  0.84239488689E+02  0.00000000000E+00 0. -1.
         -5    1    3    3    0  503  0.15941214262E+02  0.17763118879E+02  0.18782168925E+03  0.18939041068E+03  0.47000000000E+01 0.  1.
         13    1    4    4    0    0 -0.55974764289E+02  0.64378093656E+02  0.67566310610E+02  0.10882517866E+03  0.00000000000E+00 0. -1.
        -14    1    4    4    0    0  0.26158213650E+02  0.43017899755E+02  0.32694476395E+02  0.60030997221E+02  0.00000000000E+00 0.  1.
</event>
<event>
12    1  0.8052519E-002  0.2256702E+03  0.7818608E-02  0.1129876E+00
         21   -1    0    0  503  502  0.00000000000E+00  0.00000000000E+00  0.18449357592E+03  0.18449357592E+03  0.00000000000E+00 0.  1.
         21   -1    0    0  501  503 -0.00000000000E+00 -0.00000000000E+00 -0.31607675587E+03  0.31607675587E+03  0.00000000000E+00 0.  1.
          6    2    1    2  501    0  0.93107597891E+02 -0.11030984686E+03 -0.15610572138E+03  0.27440123716E+03  0.17346398938E+03 0.  0.
         24    2    3    3    0    0 -0.40271506863E+01 -0.32468253351E+01 -0.45611892464E+02  0.92388528304E+02  0.80177525595E+02 0.  0.
         -6    2    1    2    0  502 -0.93107597891E+02  0.11030984686E+03  0.24522541417E+02  0.22616909463E+03  0.17237696258E+03 0.  0.
        -24    2    5    5    0    0 -0.30968152612E+02  0.87472878938E+02 -0.45242889157E+02  0.12987712681E+03  0.78807474415E+02 0.  0.
          5    1    3    3  501    0  0.97134748577E+02 -0.10706302152E+03 -0.11049382891E+03  0.18201270886E+03  0.47000000000E+01 0. -1.
        -13    1    4    4    0    0  0.17082312899E+02 -0.28756182339E+02 -0.48758958239E+02  0.59128330310E+02  0.00000000000E+00 0.  1.
         14    1    4    4    0    0 -0.21109463585E+02  0.25509357004E+02  0.31470657744E+01  0.33260197994E+02  0.00000000000E+00 0. -1.
         -5    1    5    5    0  502 -0.62139445278E+02  0.22836967917E+02  0.69765430573E+02  0.96291967818E+02  0.47000000000E+01 0.  1.
         11    1    6    6    0    0  0.13883153205E+02  0.39743901484E+02 -0.48596305792E+02  0.64295572046E+02  0.00000000000E+00 0. -1.
        -12    1    6    6    0    0 -0.44851305818E+02  0.47728977454E+02  0.33534166350E+01  0.65581554766E+02  0.00000000000E+00 0.  1.
</event>
<event>
12    1  0.8052519E-002  0.1952713E+03  0.7818608E-02  0.1154776E+00
         21   -1    0    0  501  502  0.00000000000E+00  0.00000000000E+00  0.52554974915E+02  0.52554974915E+02  0.00000000000E+00 0.  1.
         21   -1    0    0  502  503 -0.00000000000E+00 -0.00000000000E+00 -0.84480261325E+03  0.84480261325E+03  0.00000000000E+00 0.  1.
         -6    2    1    2    0  503  0.86550569286E+02  0.34754106632E+02 -0.57984032342E+03  0.61183795782E+03  0.17155767836E+03 0.  0.
        -24    2    3    3    0    0 -0.18036830138E+02 -0.14828729915E+02 -0.25866189447E+03  0.27040765012E+03  0.75293446730E+02 0.  0.
          6    2    1    2  501    0 -0.86550569286E+02 -0.34754106632E+02 -0.21240731491E+03  0.28551963034E+03  0.16645042177E+03 0.  0.
         24    2    5    5    0    0 -0.36810167784E+01 -0.50636382550E+02 -0.68104378241E+02  0.11829212975E+03  0.82323924237E+02 0.  0.
          5    1    5    5  501    0 -0.82869552508E+02  0.15882275918E+02 -0.14430293667E+03  0.16722750059E+03  0.47000000000E+01 0. -1.
        -13    1    6    6    0    0 -0.39478250474E+02 -0.11871264795E+02 -0.43958695083E+02  0.60264633590E+02  0.00000000000E+00 0.  1.
         14    1    6    6    0    0  0.35797233696E+02 -0.38765117756E+02 -0.24145683157E+02  0.58027496155E+02  0.00000000000E+00 0. -1.
         -5    1    3    3    0  503  0.10458739942E+03  0.49582836547E+02 -0.32117842894E+03  0.34143030770E+03  0.47000000000E+01 0.  1.
         13    1    4    4    0    0  0.76280080827E+01 -0.11002550937E+02 -0.33771517402E+01  0.13807526509E+02  0.00000000000E+00 0. -1.
        -14    1    4    4    0    0 -0.25664838221E+02 -0.38261789781E+01 -0.25528474273E+03  0.25660012361E+03  0.00000000000E+00 0.  1.
</event>
<event>
12    1  0.8052519E-002  0.3039681E+03  0.7818608E-02  0.1083298E+00
         21   -1    0    0  501  502  0.00000000000E+00  0.00000000000E+00  0.11272371868E+04  0.11272371868E+04  0.00000000000E+00 0. -1.
         21   -1    0    0  502  503 -0.00000000000E+00 -0.00000000000E+00 -0.14353195191E+03  0.14353195191E+03  0.00000000000E+00 0.  1.
         -6    2    1    2    0  503 -0.21444578181E+03 -0.12714397318E+03  0.75633526417E+02  0.31323640708E+03  0.17390811696E+03 0.  0.
        -24    2    3    3    0    0 -0.75563832433E+02 -0.53836802282E+02  0.94093162191E+02  0.15504353327E+03  0.81096732284E+02 0.  0.
          6    2    1    2  501    0  0.21444578181E+03  0.12714397318E+03  0.90807170851E+03  0.95753273167E+03  0.17355725619E+03 0.  0.
         24    2    5    5    0    0  0.16675021470E+03  0.12982360604E+03  0.52796570712E+03  0.57440780446E+03  0.80850078228E+02 0.  0.
          5    1    5    5  501    0  0.47695567112E+02 -0.26796328596E+01  0.38010600139E+03  0.38312492721E+03  0.47000000000E+01 0. -1.
        -11    1    6    6    0    0  0.92021848605E+02  0.11561847599E+03  0.38656256825E+03  0.41384329375E+03  0.00000000000E+00 0.  1.
         12    1    6    6    0    0  0.74728366095E+02  0.14205130053E+02  0.14140313887E+03  0.16056451071E+03  0.00000000000E+00 0. -1.
         -5    1    3    3    0  503 -0.13888194938E+03 -0.73307170900E+02 -0.18459635773E+02  0.15819287380E+03  0.47000000000E+01 0.  1.
         13    1    4    4    0    0  0.15356199966E+02 -0.36861760301E+01  0.27431551970E+02  0.31652658886E+02  0.00000000000E+00 0. -1.
        -14    1    4    4    0    0 -0.90920032399E+02 -0.50150626252E+02  0.66661610221E+02  0.12339087439E+03  0.00000000000E+00 0.  1.
</event>
<event>
12    1  0.8052519E-002  0.2104998E+03  0.7818608E-02  0.1141436E+00
         21   -1    0    0  503  502  0.00000000000E+00  0.00000000000E+00  0.79099434467E+02  0.79099434467E+02  0.00000000000E+00 0. -1.
         21   -1    0    0  501  503 -0.00000000000E+00 -0.00000000000E+00 -0.57830105550E+03  0.57830105550E+03  0.00000000000E+00 0. -1.
          6    2    1    2  501    0  0.11789110735E+03  0.27607851071E+02 -0.31247722171E+03  0.37601789139E+03  0.17054891944E+03 0.  0.
         24    2    3    3    0    0  0.14749774737E+03  0.19879565386E+02 -0.21380929958E+03  0.27260740647E+03  0.80309394684E+02 0.  0.
         -6    2    1    2    0  502 -0.11789110735E+03 -0.27607851071E+02 -0.18672439932E+03  0.28138259858E+03  0.17219076297E+03 0.  0.
        -24    2    5    5    0    0 -0.10830918955E+03  0.71220153185E+01 -0.20173350017E+03  0.24207178739E+03  0.78235168036E+02 0.  0.
          5    1    3    3  501    0 -0.29606640025E+02  0.77282856857E+01 -0.98667922130E+02  0.10341048492E+03  0.47000000000E+01 0. -1.
        -11    1    4    4    0    0  0.53159489420E+02 -0.27410928766E+02 -0.10623498639E+03  0.12191457118E+03  0.00000000000E+00 0.  1.
         12    1    4    4    0    0  0.94338257951E+02  0.47290494152E+02 -0.10757431319E+03  0.15069283529E+03  0.00000000000E+00 0. -1.
         -5    1    5    5    0  502 -0.95819177946E+01 -0.34729866390E+02  0.15009100848E+02  0.39310811189E+02  0.47000000000E+01 0.  1.
         13    1    6    6    0    0 -0.57181751122E+02 -0.34073727072E+02 -0.83015479435E+02  0.10640649117E+03  0.00000000000E+00 0. -1.
        -14    1    6    6    0    0 -0.51127438429E+02  0.41195742390E+02 -0.11871802073E+03  0.13566529622E+03  0.00000000000E+00 0.  1.
</event>
<event>
12    1  0.8052519E-002  0.1896326E+03  0.7818608E-02  0.1159375E+00
         21   -1    0    0  501  502  0.00000000000E+00  0.00000000000E+00  0.27743589127E+03  0.27743589127E+03  0.00000000000E+00 0. -1.
         21   -1    0    0  502  503 -0.00000000000E+00 -0.00000000000E+00 -0.13874505389E+03  0.13874505389E+03  0.00000000000E+00 0. -1.
         -6    2    1    2    0  503  0.29358885972E+01  0.76183691074E+02  0.11541621649E+02  0.18998351254E+03  0.17363165546E+03 0.  0.
        -24    2    3    3    0    0 -0.16366325549E+02 -0.22109735285E+02 -0.17395922112E+02  0.85610888852E+02  0.79182758082E+02 0.  0.
          6    2    1    2  501    0 -0.29358885972E+01 -0.76183691074E+02  0.12714921573E+03  0.22619743261E+03  0.17083846532E+03 0.  0.
         24    2    5    5    0    0  0.25527337065E+02 -0.53082028716E+02  0.83159333592E+01  0.10174952778E+03  0.82549772529E+02 0.  0.
          5    1    5    5  501    0 -0.28463225663E+02 -0.23101662359E+02  0.11883328237E+03  0.12444790484E+03  0.47000000000E+01 0. -1.
        -13    1    6    6    0    0  0.25979091848E+02 -0.74497314967E+02  0.35507581535E+00  0.78897967207E+02  0.00000000000E+00 0.  1.
         14    1    6    6    0    0 -0.45175478228E+00  0.21415286251E+02  0.79608575439E+01  0.22851560569E+02  0.00000000000E+00 0. -1.
         -5    1    3    3    0  503  0.19302214146E+02  0.98293426359E+02  0.28937543761E+02  0.10437262369E+03  0.47000000000E+01 0.  1.
         11    1    4    4    0    0  0.91598948049E+01  0.17569372196E+02 -0.30746395782E+02  0.36577689454E+02  0.00000000000E+00 0. -1.
        -12    1    4    4    0    0 -0.25526220354E+02 -0.39679107481E+02  0.13350473669E+02  0.49033199398E+02  0.00000000000E+00 0.  1.
</event>
<event>
12    1  0.8052519E-002  0.2223355E+03  0.7818608E-02  0.1132817E+00
         21   -1    0    0  503  502  0.00000000000E+00  0.00000000000E+00  0.37999124720E+02  0.37999124720E+02  0.00000000000E+00 0.  1.
         21   -1    0    0  501  503 -0.00000000000E+00 -0.00000000000E+00 -0.14545468368E+04  0.14545468368E+04  0.00000000000E+00 0.  1.
          6    2    1    2  501    0  0.18295041439E+02 -0.13291817980E+03 -0.96168567691E+03  0.98625300703E+03  0.17278223762E+03 0.  0.
         24    2    3    3    0    0  0.64012876254E+02 -0.13467351994E+03 -0.81950714326E+03  0.83682065755E+03  0.80263626591E+02 0.  0.
         -6    2    1    2    0  502 -0.18295041439E+02  0.13291817980E+03 -0.45486203516E+03  0.50629295448E+03  0.17728827842E+03 0.  0.
        -24    2    5    5    0    0 -0.60750901185E+02  0.10506042605E+03 -0.42062707515E+03  0.44487083341E+03  0.79085756928E+02 0.  0.
          5    1    3    3  501    0 -0.45717834815E+02  0.17553401427E+01 -0.14217853366E+03  0.14943234948E+03  0.47000000000E+01 0. -1.
        -13    1    4    4    0    0 -0.14204322080E+02 -0.57457680364E+02 -0.26573348017E+03  0.27224516576E+03  0.00000000000E+00 0.  1.
         14    1    4    4    0    0  0.78217198333E+02 -0.77215839576E+02 -0.55377366309E+03  0.56457549179E+03  0.00000000000E+00 0. -1.
         -5    1    5    5    0  502  0.42455859746E+02  0.27857753744E+02 -0.34234960009E+02  0.61422121075E+02  0.47000000000E+01 0.  1.
         13    1    6    6    0    0  0.36874615661E+01 -0.95650014403E+01 -0.63129562670E+02  0.63956456345E+02  0.00000000000E+00 0. -1.
        -14    1    6    6    0    0 -0.64438362751E+02  0.11462542749E+03 -0.35749751248E+03  0.38091437706E+03  0.00000000000E+00 0.  1.
</event>
<event>
12    1  0.8052519E-002  0.2109512E+03  0.7818608E-02  0.1140886E+00
         21   -1    0    0  503  502  0.00000000000E+00  0.00000000000E+00  0.13630319247E+04  0.13630319247E+04  0.00000000000E+00 0.  1.
         21   -1    0    0  501  503 -0.00000000000E+00 -0.00000000000E+00 -0.74676196675E+02  0.74676196675E+02  0.00000000000E+00 0. -1.
          6    2    1    2  501    0 -0.12090358101E+03 -0.16328165152E+02  0.10477420382E+03  0.23553773442E+03  0.17209330513E+03 0.  0.
         24    2    3    3    0    0 -0.14528642179E+03 -0.20340268963E+02  0.12090966251E+03  0.20565357592E+03  0.78437082450E+02 0.  0.
         -6    2    1    2    0  502  0.12090358101E+03  0.16328165152E+02  0.11835815242E+04  0.12021703869E+04  0.17165118689E+03 0.  0.
        -24    2    5    5    0    0  0.11800800831E+03  0.68766055707E+02  0.89057802890E+03  0.90446036871E+03  0.79149684497E+02 0.  0.
          5    1    3    3  501    0  0.24382840782E+02  0.40121038110E+01 -0.16135458692E+02  0.29884158493E+02  0.47000000000E+01 0. -1.
        -13    1    4    4    0    0 -0.78172593746E+02 -0.34350266904E+02  0.10488171137E+03  0.13524447726E+03  0.00000000000E+00 0.  1.
         14    1    4    4    0    0 -0.67113828044E+02  0.14009997941E+02  0.16027951146E+02  0.70409098666E+02  0.00000000000E+00 0. -1.
         -5    1    5    5    0  502  0.28955726993E+01 -0.52437890556E+02  0.29300349526E+03  0.29771001821E+03  0.47000000000E+01 0.  1.
         11    1    6    6    0    0  0.43564147177E+02 -0.19368031592E+01  0.13322834656E+03  0.14018337438E+03  0.00000000000E+00 0. -1.
        -12    1    6    6    0    0  0.74443861132E+02  0.70702858867E+02  0.75734968234E+03  0.76427699433E+03  0.00000000000E+00 0.  1.
</event>
<event>
12    1  0.8052519E-002  0.1928890E+03  0.7818608E-02  0.1158317E+00
         21   -1    0    0  503  502  0.00000000000E+00  0.00000000000E+00  0.93821942625E+03  0.93821942625E+03  0.00000000000E+00 0.  1.
         21   -1    0    0  501  503 -0.00000000000E+00 -0.00000000000E+00 -0.45049597977E+02  0.45049597977E+02  0.00000000000E+00 0.  1.
          6    2    1    2  501    0  0.42322443799E+02  0.41067298607E+02  0.63732798849E+03  0.66286111428E+03  0.17239541657E+03 0.  0.
         24    2    3    3    0    0  0.61093764176E+02  0.22287634988E+02  0.62464199889E+03  0.63306073565E+03  0.79743849651E+02 0.  0.
         -6    2    1    2    0  502 -0.42322443799E+02 -0.41067298607E+02  0.25584183978E+03  0.32040790994E+03  0.18365312278E+03 0.  0.
        -24    2    5    5    0    0 -0.57902045144E+02 -0.82841320141E+02  0.11608093043E+03  0.17363258969E+03  0.80362694314E+02 0.  0.
          5    1    3    3  501    0 -0.18771320377E+02  0.18779663620E+02  0.12685989602E+02  0.29800378631E+02  0.47000000000E+01 0. -1.
        -13    1    4    4    0    0  0.70155495907E+02  0.27065648738E+02  0.33919537740E+03  0.34743034841E+03  0.00000000000E+00 0.  1.
         14    1    4    4    0    0 -0.90617317311E+01 -0.47780137505E+01  0.28544662149E+03  0.28563038725E+03  0.00000000000E+00 0. -1.
         -5    1    5    5    0  502  0.15579601345E+02  0.41774021534E+02  0.13976090935E+03  0.14677532025E+03  0.47000000000E+01 0.  1.
         11    1    6    6    0    0 -0.55800060918E+01  0.25883390446E+00  0.60573503043E+02  0.60830524689E+02  0.00000000000E+00 0. -1.
        -12    1    6    6    0    0 -0.52322039052E+02 -0.83100154046E+02  0.55507427391E+02  0.11280206500E+03  0.00000000000E+00 0.  1.
</event>
<event>
12    1  0.8052519E-002  0.2464486E+03  0.7818608E-02  0.1115605E+00
         21   -1    0    0  503  502  0.00000000000E+00  0.00000000000E+00  0.55642541786E+03  0.55642541786E+03  0.00000000000E+00 0.  1.
         21   -1    0    0  501  503 -0.00000000000E+00 -0.00000000000E+00 -0.14645308363E+03  0.14645308363E+03  0.00000000000E+00 0.  1.
          6    2    1    2  501    0  0.37176204587E+02 -0.17226644843E+03  0.27338882062E+02  0.24774637946E+03  0.17196817909E+03 0.  0.
         24    2    3    3    0    0  0.31653223744E+02 -0.11752068847E+03 -0.48963317256E+02  0.15355658610E+03  0.79807141958E+02 0.  0.
         -6    2    1    2    0  502 -0.37176204587E+02  0.17226644843E+03  0.38263345217E+03  0.45513212203E+03  0.17227620365E+03 0.  0.
        -24    2    5    5    0    0 -0.47094254674E+02  0.14670028359E+03  0.17860868051E+03  0.24921904826E+03  0.80437747553E+02 0.  0.
          5    1    3    3  501    0  0.55229808431E+01 -0.54745759962E+02  0.76302199318E+02  0.94189793353E+02  0.47000000000E+01 0. -1.
        -11    1    4    4    0    0  0.42222108661E+02 -0.11406052269E+03 -0.61922039359E+02  0.13648021195E+03  0.00000000000E+00 0.  1.
         12    1    4    4    0    0 -0.10568884917E+02 -0.34601657783E+01  0.12958722103E+02  0.17076374151E+02  0.00000000000E+00 0. -1.
         -5    1    5    5    0  502  0.99180500867E+01  0.25566164840E+02  0.20402477165E+03  0.20591307377E+03  0.47000000000E+01 0.  1.
         11    1    6    6    0    0 -0.17128672002E+02  0.77035869803E+01  0.63673061325E+02  0.66385204642E+02  0.00000000000E+00 0. -1.
        -12    1    6    6    0    0 -0.29965582672E+02  0.13899669661E+03  0.11493561919E+03  0.18283384362E+03  0.00000000000E+00 0.  1.
</event>
<event>
12    1  0.8052519E-002  0.1735523E+03  0.7818608E-02  0.1174399E+00
         21   -1    0    0  503  502  0.00000000000E+00  0.00000000000E+00  0.53613505640E+03  0.53613505640E+03  0.00000000000E+00 0. -1.
         21   -1    0    0  501  503 -0.00000000000E+00 -0.00000000000E+00 -0.14092554068E+03  0.14092554068E+03  0.00000000000E+00 0. -1.
          6    2    1    2  501    0 -0.67051301620E+01 -0.11603153908E+02 -0.65501711979E+02  0.18474440611E+03  0.17222203507E+03 0.  0.
         24    2    3    3    0    0 -0.26594207782E+02  0.54671905664E+02 -0.27006724323E+02  0.10542282642E+03  0.81782272007E+02 0.  0.
         -6    2    1    2    0  502  0.67051301620E+01  0.11603153908E+02  0.46071122770E+03  0.49231619097E+03  0.17303411401E+03 0.  0.
        -24    2    5    5    0    0 -0.44724790693E+02  0.32047137567E+02  0.21634360513E+03  0.24171567583E+03  0.92706992905E+02 0.  0.
          5    1    3    3  501    0  0.19889077620E+02 -0.66275059572E+02 -0.38494987656E+02  0.79321579690E+02  0.47000000000E+01 0. -1.
        -11    1    4    4    0    0 -0.47767510987E+02  0.52721544105E+01 -0.15095435230E+02  0.50372640220E+02  0.00000000000E+00 0.  1.
         12    1    4    4    0    0  0.21173303204E+02  0.49399751253E+02 -0.11911289093E+02  0.55050186197E+02  0.00000000000E+00 0. -1.
         -5    1    5    5    0  502  0.51429920855E+02 -0.20443983659E+02  0.24436762257E+03  0.25060051514E+03  0.47000000000E+01 0.  1.
         11    1    6    6    0    0  0.10915400211E+02  0.64112101409E+01  0.15325538842E+03  0.15377731841E+03  0.00000000000E+00 0. -1.
        -12    1    6    6    0    0 -0.55640190904E+02  0.25635927426E+02  0.63088216715E+02  0.87938357428E+02  0.00000000000E+00 0.  1.
</event>
<event>
12    1  0.8052519E-002  0.1721794E+03  0.7818608E-02  0.1175679E+00
         21   -1    0    0  503  502  0.00000000000E+00  0.00000000000E+00  0.13166630326E+03  0.13166630326E+03  0.00000000000E+00 0. -1.
         21   -1    0    0  501  503 -0.00000000000E+00 -0.00000000000E+00 -0.29817589894E+03  0.29817589894E+03  0.00000000000E+00 0. -1.
          6    2    1    2  501    0  0.64580205962E+01  0.71815711251E+01 -0.18998530889E+03  0.25639842873E+03  0.17190827690E+03 0.  0.
         24    2    3    3    0    0  0.94925593943E+01  0.71850419584E+02 -0.10059257982E+03  0.14592481922E+03  0.76958393122E+02 0.  0.
         -6    2    1    2    0  502 -0.64580205962E+01 -0.71815711251E+01  0.23475713208E+02  0.17344377347E+03  0.17157608356E+03 0.  0.
        -24    2    5    5    0    0  0.28598058689E+00  0.36262504461E+02  0.76634269338E+02  0.10430050666E+03  0.60751406880E+02 0.  0.
          5    1    3    3  501    0 -0.30345387980E+01 -0.64668848459E+02 -0.89392729079E+02  0.11047360951E+03  0.47000000000E+01 0. -1.
        -13    1    4    4    0    0 -0.87762411101E+01 -0.12538386581E+02 -0.32635260428E+02  0.36045717766E+02  0.00000000000E+00 0.  1.
         14    1    4    4    0    0  0.18268800504E+02  0.84388806165E+02 -0.67957319388E+02  0.10987910145E+03  0.00000000000E+00 0. -1.
         -5    1    5    5    0  502 -0.67440011831E+01 -0.43444075586E+02 -0.53158556130E+02  0.69143266811E+02  0.47000000000E+01 0.  1.
         13    1    6    6    0    0 -0.18001937610E+02  0.14743539682E+02  0.69395811052E+00  0.23279246077E+02  0.00000000000E+00 0. -1.
        -14    1    6    6    0    0  0.18287918197E+02  0.21518964779E+02  0.75940311228E+02  0.81021260583E+02  0.00000000000E+00 0.  1.
</event>
<event>
12    1  0.8052519E-002  0.2296804E+03  0.7818608E-02  0.1127155E+00
         21   -1    0    0  503  502  0.00000000000E+00  0.00000000000E+00  0.85688626119E+02  0.85688626119E+02  0.00000000000E+00 0. -1.
         21   -1    0    0  501  503 -0.00000000000E+00 -0.00000000000E+00 -0.67486001193E+03  0.67486001193E+03  0.00000000000E+00 0.  1.
          6    2    1    2  501    0 -0.12640942579E+03  0.82932428745E+02 -0.41228196084E+03  0.47194226558E+03  0.17290447112E+03 0.  0.
         24    2    3    3    0    0 -0.13442388755E+03  0.12028012932E+02 -0.30021414896E+03  0.33900260919E+03  0.81115837946E+02 0.  0.
         -6    2    1    2    0  502  0.12640942579E+03 -0.82932428745E+02 -0.17688942497E+03  0.28860637248E+03  0.17072386740E+03 0.  0.
        -24    2    5    5    0    0  0.51357891574E+01 -0.69042678871E+02 -0.79974905285E+02  0.13267454693E+03  0.80082970043E+02 0.  0.
          5    1    3    3  501    0  0.80144617573E+01  0.70904415813E+02 -0.11206781188E+03  0.13293965638E+03  0.47000000000E+01 0. -1.
        -13    1    4    4    0    0 -0.90338145245E+02  0.41079690008E+02 -0.15070876431E+03  0.18044847757E+03  0.00000000000E+00 0.  1.
         14    1    4    4    0    0 -0.44085742301E+02 -0.29051677076E+02 -0.14950538465E+03  0.15855413163E+03  0.00000000000E+00 0. -1.
         -5    1    5    5    0  502  0.12127363663E+03 -0.13889749874E+02 -0.96914519686E+02  0.15593182555E+03  0.47000000000E+01 0.  1.
         13    1    6    6    0    0  0.10613591661E+02 -0.57637903780E+02 -0.74782454512E+01  0.59082149885E+02  0.00000000000E+00 0. -1.
        -14    1    6    6    0    0 -0.54778025033E+01 -0.11404775091E+02 -0.72496659834E+02  0.73592397041E+02  0.00000000000E+00 0.  1.
</event>
<event>
12    1  0.8052519E-002  0.2068016E+03  0.7818608E-02  0.1144858E+00
         21   -1    0    0  501  502  0.00000000000E+00  0.00000000000E+00  0.76053072483E+02  0.76053072483E+02  0.00000000000E+00 0. -1.
         21   -1    0    0  502  503 -0.00000000000E+00 -0.00000000000E+00 -0.96811034880E+03  0.96811034880E+03  0.00000000000E+00 0. -1.
         -6    2    1    2    0  503  0.86569454859E+02  0.65011019899E+02 -0.79029145938E+03  0.81690115807E+03  0.17619934180E+03 0.  0.
        -24    2    3    3    0    0  0.52764383989E+02  0.11181085600E+03 -0.60638713176E+03  0.62409063140E+03  0.80610265452E+02 0.  0.
          6    2    1    2  501    0 -0.86569454859E+02 -0.65011019899E+02 -0.10176581693E+03  0.22726226322E+03  0.17196264584E+03 0.  0.
         24    2    5    5    0    0  0.20867862288E+01 -0.42388397584E+02 -0.98703974410E+02  0.13559341898E+03  0.82716200229E+02 0.  0.
          5    1    5    5  501    0 -0.88656241087E+02 -0.22622622316E+02 -0.30618425244E+01  0.91668844238E+02  0.47000000000E+01 0. -1.
        -13    1    6    6    0    0  0.26638696026E+02 -0.21617806854E+02 -0.27765274289E+01  0.34418872784E+02  0.00000000000E+00 0.  1.
         14    1    6    6    0    0 -0.24551909798E+02 -0.20770590730E+02 -0.95927446981E+02  0.10117454620E+03  0.00000000000E+00 0. -1.
         -5    1    3    3    0  503  0.33805070869E+02 -0.46799836100E+02 -0.18390432762E+03  0.19281052666E+03  0.47000000000E+01 0.  1.
         13    1    4    4    0    0  0.74500113594E+02  0.84699904158E+02 -0.46985926382E+03  0.48321017010E+03  0.00000000000E+00 0. -1.
        -14    1    4    4    0    0 -0.21735729605E+02  0.27110951842E+02 -0.13652786795E+03  0.14088046130E+03  0.00000000000E+00 0.  1.
</event>
<event>
12    1  0.8052519E-002  0.2443594E+03  0.7818608E-02  0.1117004E+00
         21   -1    0    0  503  502  0.00000000000E+00  0.00000000000E+00  0.13758148489E+03  0.13758148489E+03  0.00000000000E+00 0.  1.
         21   -1    0    0  501  503 -0.00000000000E+00 -0.00000000000E+00 -0.75114335616E+03  0.75114335616E+03  0.00000000000E+00 0. -1.
          6    2    1    2  501    0 -0.29582863374E+02  0.16976933179E+03 -0.59609908618E+03  0.64424034358E+03  0.17324759141E+03 0.  0.
         24    2    3    3    0    0 -0.16092172153E+02  0.70135160763E+02 -0.13765621791E+03  0.17487809515E+03  0.80344352962E+02 0.  0.
         -6    2    1    2    0  502  0.29582863374E+02 -0.16976933179E+03 -0.17462785097E+02  0.24448449747E+03  0.17254260001E+03 0.  0.
        -24    2    5    5    0    0 -0.39310783667E+02 -0.10425145767E+03  0.24378620851E+02  0.14050507796E+03  0.82058854717E+02 0.  0.
          5    1    3    3  501    0 -0.13490691221E+02  0.99634171025E+02 -0.45844286827E+03  0.46936224843E+03  0.47000000000E+01 0. -1.
        -13    1    4    4    0    0 -0.40019114538E+02  0.62657794117E+02 -0.67649791064E+02  0.10051876901E+03  0.00000000000E+00 0.  1.
         14    1    4    4    0    0  0.23926942385E+02  0.74773666460E+01 -0.70006426846E+02  0.74359326137E+02  0.00000000000E+00 0. -1.
         -5    1    5    5    0  502  0.68893647041E+02 -0.65517874116E+02 -0.41841405949E+02  0.10397941952E+03  0.47000000000E+01 0.  1.
         11    1    6    6    0    0  0.34406885030E+01 -0.37396434305E+02 -0.26747636866E+02  0.46106048563E+02  0.00000000000E+00 0. -1.
        -12    1    6    6    0    0 -0.42751472170E+02 -0.66855023367E+02  0.51126257718E+02  0.94399029393E+02  0.00000000000E+00 0.  1.
</event>
<event>
12    1  0.8052519E-002  0.2412469E+03  0.7818608E-02  0.1118993E+00
         21   -1    0    0  501  502  0.00000000000E+00  0.00000000000E+00  0.11931623412E+04  0.11931623412E+04  0.00000000000E+00 0.  1.
         21   -1    0    0  502  503 -0.00000000000E+00 -0.00000000000E+00 -0.80349303985E+02  0.80349303985E+02  0.00000000000E+00 0.  1.
         -6    2    1    2    0  503 -0.11483566572E+03 -0.12367483756E+03  0.95564748766E+03  0.98558615893E+03  0.17214894839E+03 0.  0.
        -24    2    3    3    0    0 -0.14573096424E+02 -0.52436318432E+01  0.25995097429E+03  0.27277884835E+03  0.81202957224E+02 0.  0.
          6    2    1    2  501    0  0.11483566572E+03  0.12367483756E+03  0.15716554953E+03  0.28792548623E+03  0.17238729680E+03 0.  0.
         24    2    5    5    0    0  0.75780890469E+02  0.14316512871E+03  0.77838786916E+02  0.19726142397E+03  0.81327702528E+02 0.  0.
          5    1    5    5  501    0  0.39054775246E+02 -0.19490291156E+02  0.79326762613E+02  0.90664062261E+02  0.47000000000E+01 0. -1.
        -11    1    6    6    0    0 -0.70160042527E+00  0.53910462536E+01 -0.13898423096E+02  0.14923866370E+02  0.00000000000E+00 0.  1.
         12    1    6    6    0    0  0.76482490894E+02  0.13777408246E+03  0.91737210012E+02  0.18233755760E+03  0.00000000000E+00 0. -1.
         -5    1    3    3    0  503 -0.10026256929E+03 -0.11843120572E+03  0.69569651337E+03  0.71280731057E+03  0.47000000000E+01 0.  1.
         11    1    4    4    0    0 -0.32106173975E+02 -0.13370497398E+02  0.44575160501E+02  0.56537788617E+02  0.00000000000E+00 0. -1.
        -12    1    4    4    0    0  0.17533077550E+02  0.81268655546E+01  0.21537581378E+03  0.21624105974E+03  0.00000000000E+00 0.  1.
</event>
<event>
12    1  0.8052519E-002  0.2065432E+03  0.7818608E-02  0.1144395E+00
         21   -1    0    0  501  502  0.00000000000E+00  0.00000000000E+00  0.33927890401E+02  0.33927890401E+02  0.00000000000E+00 0.  1.
         21   -1    0    0  502  503 -0.00000000000E+00 -0.00000000000E+00 -0.23983133772E+04  0.23983133772E+04  0.00000000000E+00 0. -1.
         -6    2    1    2    0  503 -0.77529516330E+02 -0.84517848167E+02 -0.34317518786E+03  0.40053625730E+03  0.17177308081E+03 0.  0.
        -24    2    3    3    0    0 -0.27352903244E+01 -0.72938046429E+02 -0.11056825492E+03  0.15588069676E+03  0.82134111040E+02 0.  0.
          6    2    1    2  501    0  0.77529516330E+02  0.84517848167E+02 -0.20212102989E+04  0.20317050103E+04  0.17140619525E+03 0.  0.
         24    2    5    5    0    0  0.96864110346E+02  0.42296396219E+02 -0.18295701778E+04  0.18344627644E+04  0.82188548637E+02 0.  0.
          5    1    5    5  501    0 -0.19334594016E+02  0.42221451948E+02 -0.19164012114E+03  0.19724224589E+03  0.47000000000E+01 0. -1.
        -13    1    6    6    0    0 -0.14502657533E+02  0.71174817364E+01 -0.30378159055E+03  0.30421084855E+03  0.00000000000E+00 0.  1.
         14    1    6    6    0    0  0.11136676788E+03  0.35178914482E+02 -0.15257885872E+04  0.15302519159E+04  0.00000000000E+00 0. -1.
         -5    1    3    3    0  503 -0.74794226006E+02 -0.11579801738E+02 -0.23260693294E+03  0.24465556054E+03  0.47000000000E+01 0.  1.
         13    1    4    4    0    0  0.46903698700E+01 -0.67729880411E+02 -0.12299926021E+03  0.14049254173E+03  0.00000000000E+00 0. -1.
        -14    1    4    4    0    0 -0.74256601945E+01 -0.52081660177E+01  0.12431005292E+02  0.15388155028E+02  0.00000000000E+00 0.  1.
</event>
<event>
12    1  0.8052519E-002  0.1954669E+03  0.7818608E-02  0.1155647E+00
         21   -1    0    0  503  502  0.00000000000E+00  0.00000000000E+00  0.28704138846E+03  0.28704138846E+03  0.00000000000E+00 0. -1.
         21   -1    0    0  501  503 -0.00000000000E+00 -0.00000000000E+00 -0.47095960188E+03  0.47095960188E+03  0.00000000000E+00 0. -1.
          6    2    1    2  501    0  0.55713108810E+02  0.57704517389E+02 -0.41642292783E+03  0.46001669168E+03  0.17825133935E+03 0.  0.
         24    2    3    3    0    0  0.44675516546E+02  0.33086659485E+02 -0.89764012996E+02  0.13221186558E+03  0.79572423346E+02 0.  0.
         -6    2    1    2    0  502 -0.55713108810E+02 -0.57704517389E+02  0.23250471441E+03  0.29798429866E+03  0.16823328506E+03 0.  0.
        -24    2    5    5    0    0 -0.95018952948E+02 -0.22847476982E+02  0.12078933183E+03  0.17444329593E+03  0.79308210092E+02 0.  0.
          5    1    3    3  501    0  0.11037592265E+02  0.24617857904E+02 -0.32665891484E+03  0.32780482610E+03  0.47000000000E+01 0. -1.
        -13    1    4    4    0    0  0.56145290414E+02  0.27262397108E+01 -0.28829541074E+02  0.63173320770E+02  0.00000000000E+00 0.  1.
         14    1    4    4    0    0 -0.11469773868E+02  0.30360419774E+02 -0.60934471921E+02  0.69038544812E+02  0.00000000000E+00 0. -1.
         -5    1    5    5    0  502  0.39305844138E+02 -0.34857040407E+02  0.11171538258E+03  0.12354100273E+03  0.47000000000E+01 0.  1.
         13    1    6    6    0    0 -0.38929355563E+02 -0.28033854085E+02  0.83647576272E+01  0.48696620721E+02  0.00000000000E+00 0. -1.
        -14    1    6    6    0    0 -0.56089597385E+02  0.51863771038E+01  0.11242457420E+03  0.12574667521E+03  0.00000000000E+00 0.  1.
</event>
<event>
12    1  0.8052519E-002  0.2193117E+03  0.7818608E-02  0.1134544E+00
         21   -1    0    0  501  502  0.00000000000E+00  0.00000000000E+00  0.21532732500E+03  0.21532732500E+03  0.00000000000E+00 0.  1.
         21   -1    0    0  502  503 -0.00000000000E+00 -0.00000000000E+00 -0.22261117138E+03  0.22261117138E+03  0.00000000000E+00 0.  1.
         -6    2    1    2    0  503 -0.79695388425E+02 -0.11094699858E+03 -0.81012400837E+00  0.21931321594E+03  0.17157225579E+03 0.  0.
        -24    2    3    3    0    0 -0.11789310940E+03 -0.74162685915E+02  0.20781923849E+02  0.16186360257E+03  0.79806317111E+02 0.  0.
          6    2    1    2  501    0  0.79695388425E+02  0.11094699858E+03 -0.64737223692E+01  0.21862528043E+03  0.17057113687E+03 0.  0.
         24    2    5    5    0    0  0.10174329012E+03  0.13344762670E+03 -0.57887404264E+00  0.18623349950E+03  0.80762708503E+02 0.  0.
          5    1    5    5  501    0 -0.22047901693E+02 -0.22500628125E+02 -0.58948483266E+01  0.32391780931E+02  0.47000000000E+01 0. -1.
        -11    1    6    6    0    0  0.91151339593E+02  0.76036932109E+02 -0.27654387476E+02  0.12188087176E+03  0.00000000000E+00 0.  1.
         12    1    6    6    0    0  0.10591950526E+02  0.57410694594E+02  0.27075513434E+02  0.64352627743E+02  0.00000000000E+00 0. -1.
         -5    1    3    3    0  503  0.38197720977E+02 -0.36784312663E+02 -0.21592047857E+02  0.57449613372E+02  0.47000000000E+01 0.  1.
         11    1    4    4    0    0 -0.46188058040E+02  0.47708188243E+00 -0.20367207804E+02  0.50481555705E+02  0.00000000000E+00 0. -1.
        -12    1    4    4    0    0 -0.71705051362E+02 -0.74639767797E+02  0.41149131653E+02  0.11138204686E+03  0.00000000000E+00 0.  1.
</event>
<event>
12    1  0.8052519E-002  0.1930357E+03  0.7818608E-02  0.1155914E+00
         21   -1    0    0  503  502  0.00000000000E+00  0.00000000000E+00  0.65337189041E+03  0.65337189041E+03  0.00000000000E+00 0. -1.
         21   -1    0    0  501  503 -0.00000000000E+00 -0.00000000000E+00 -0.60781066425E+02  0.60781066425E+02  0.00000000000E+00 0. -1.
          6    2    1    2  501    0 -0.82800360044E+02  0.26703525672E+02  0.20560871899E+03  0.28202432332E+03  0.17231887799E+03 0.  0.
         24    2    3    3    0    0 -0.62180833988E+02 -0.31580593008E+02  0.19064538964E+03  0.21824192316E+03  0.80125417084E+02 0.  0.
         -6    2    1    2    0  502  0.82800360044E+02 -0.26703525672E+02  0.38698210499E+03  0.43212863352E+03  0.17149643849E+03 0.  0.
        -24    2    5    5    0    0  0.11157510315E+03  0.15302517082E+02  0.24675535055E+03  0.28287004539E+03  0.80275082567E+02 0.  0.
          5    1    3    3  501    0 -0.20619526057E+02  0.58284118680E+02  0.14963329355E+02  0.63782400162E+02  0.47000000000E+01 0. -1.
        -13    1    4    4    0    0 -0.36658277995E+02  0.21790048430E+02  0.11189419582E+03  0.11974534068E+03  0.00000000000E+00 0.  1.
         14    1    4    4    0    0 -0.25522555992E+02 -0.53370641438E+02  0.78751193813E+02  0.98496582473E+02  0.00000000000E+00 0. -1.
         -5    1    5    5    0  502 -0.28774743105E+02 -0.42006042754E+02  0.14022675444E+03  0.14925858813E+03  0.47000000000E+01 0.  1.
         13    1    6    6    0    0  0.41100379497E+02  0.60761356148E+01  0.18212189956E+03  0.18680082152E+03  0.00000000000E+00 0. -1.
        -14    1    6    6    0    0  0.70474723653E+02  0.92263814670E+01  0.64633450988E+02  0.96069223873E+02  0.00000000000E+00 0.  1.
</event>
<event>
12    1  0.8052519E-002  0.1865846E+03  0.7818608E-02  0.1162423E+00
         21   -1    0    0  501  502  0.00000000000E+00  0.00000000000E+00  0.89090369897E+02  0.89090369897E+02  0.00000000000E+00 0.  1.
         21   -1    0    0  502  503 -0.00000000000E+00 -0.00000000000E+00 -0.71150208871E+03  0.71150208871E+03  0.00000000000E+00 0. -1.
         -6    2    1    2    0  503  0.64368178705E+02 -0.34660266969E+02 -0.58474424747E+03  0.61379122020E+03  0.17166604357E+03 0.  0.
        -24    2    3    3    0    0  0.25372500990E+02  0.18574182830E+02 -0.49519480496E+03  0.50245496295E+03  0.79084327509E+02 0.  0.
          6    2    1    2  501    0 -0.64368178705E+02  0.34660266969E+02 -0.37667471342E+02  0.18680123840E+03  0.16772378405E+03 0.  0.
         24    2    5    5    0    0  0.20973964472E+02  0.65679652577E+01  0.12852471659E+02  0.83617841199E+02  0.79647422970E+02 0.  0.
          5    1    5    5  501    0 -0.85342143177E+02  0.28092301711E+02 -0.50519943001E+02  0.10318339720E+03  0.47000000000E+01 0. -1.
        -11    1    6    6    0    0  0.27792235224E+02 -0.83668230135E+01  0.41474453474E+02  0.50621560200E+02  0.00000000000E+00 0.  1.
         12    1    6    6    0    0 -0.68182707518E+01  0.14934788271E+02 -0.28621981815E+02  0.32996280999E+02  0.00000000000E+00 0. -1.
         -5    1    3    3    0  503  0.38995677715E+02 -0.53234449799E+02 -0.89549442508E+02  0.11133625725E+03  0.47000000000E+01 0.  1.
         11    1    4    4    0    0  0.32147462211E+01  0.30180514646E+02 -0.67274007372E+02  0.73803727043E+02  0.00000000000E+00 0. -1.
        -12    1    4    4    0    0  0.22157754769E+02 -0.11606331816E+02 -0.42792079759E+03  0.42865123591E+03  0.00000000000E+00 0.  1.
</event>
<event>
12    1  0.8052519E-002  0.1726708E+03  0.7818608E-02  0.1175213E+00
         21   -1    0    0  503  502  0.00000000000E+00  0.00000000000E+00  0.13705293367E+02  0.13705293367E+02  0.00000000000E+00 0. -1.
         21   -1    0    0  501  503 -0.00000000000E+00 -0.00000000000E+00 -0.21843607057E+04  0.21843607057E+04  0.00000000000E+00 0. -1.
          6    2    1    2  501    0 -0.14652019863E+02 -0.69396590937E+01 -0.11746936374E+04  0.11872469858E+04  0.17142760294E+03 0.  0.
         24    2    3    3    0    0 -0.92610413485E+01  0.62751573819E+02 -0.74003660455E+03  0.74698029756E+03  0.79384267703E+02 0.  0.
         -6    2    1    2    0  502  0.14652019863E+02  0.69396590937E+01 -0.99596177499E+03  0.10108190133E+04  0.17190805639E+03 0.  0.
        -24    2    5    5    0    0  0.48913250804E+02 -0.46906315450E+02 -0.52061579086E+03  0.53118465720E+03  0.80768990460E+02 0.  0.
          5    1    3    3  501    0 -0.53909785141E+01 -0.69691232913E+02 -0.43465703282E+03  0.44026668824E+03  0.47000000000E+01 0. -1.
        -13    1    4    4    0    0 -0.58040883283E+01 -0.54132641818E+00 -0.19059677445E+01  0.61329592088E+01  0.00000000000E+00 0.  1.
         14    1    4    4    0    0 -0.34569530203E+01  0.63292900238E+02 -0.73813063681E+03  0.74084733835E+03  0.00000000000E+00 0. -1.
         -5    1    5    5    0  502 -0.34261230942E+02  0.53845974544E+02 -0.47534598413E+03  0.47963435610E+03  0.47000000000E+01 0.  1.
         13    1    6    6    0    0 -0.13078079929E+02 -0.26933115258E+02 -0.73721761763E+02  0.79569636354E+02  0.00000000000E+00 0. -1.
        -14    1    6    6    0    0  0.61991330734E+02 -0.19973200193E+02 -0.44689402909E+03  0.45161502084E+03  0.00000000000E+00 0.  1.
</event>
<event>
12    1  0.8052519E-002  0.1781468E+03  0.7818608E-02  0.1170533E+00
         21   -1    0    0  503  502  0.00000000000E+00  0.00000000000E+00  0.29830281371E+03  0.29830281371E+03  0.00000000000E+00 0.  1.
         21   -1    0    0  501  503 -0.00000000000E+00 -0.00000000000E+00 -0.18227957087E+03  0.18227957087E+03  0.00000000000E+00 0.  1.
          6    2    1    2  501    0 -0.92462160061E+01 -0.43902041804E+02 -0.98923476999E+02  0.20376983875E+03  0.17240478850E+03 0.  0.
         24    2    3    3    0    0  0.60648097827E+00 -0.69946462133E+02 -0.12613010982E+03  0.16455659689E+03  0.79228742204E+02 0.  0.
         -6    2    1    2    0  502  0.92462160061E+01  0.43902041804E+02  0.21494671983E+03  0.27681254582E+03  0.16855328941E+03 0.  0.
        -24    2    5    5    0    0 -0.17521925492E+02  0.40628979200E+02  0.13177479662E+02  0.73194858434E+02  0.56798851283E+02 0.  0.
          5    1    3    3  501    0 -0.98526969843E+01  0.26044420329E+02  0.27206632821E+02  0.39213241865E+02  0.47000000000E+01 0. -1.
        -13    1    4    4    0    0 -0.17283798583E+02 -0.51895345462E+02 -0.24745253967E+02  0.60034857940E+02  0.00000000000E+00 0.  1.
         14    1    4    4    0    0  0.17890279561E+02 -0.18051116671E+02 -0.10138485585E+03  0.10452173895E+03  0.00000000000E+00 0. -1.
         -5    1    5    5    0  502  0.26768141498E+02  0.32730626043E+01  0.20176924017E+03  0.20361768739E+03  0.47000000000E+01 0.  1.
         13    1    6    6    0    0  0.18713047291E+02  0.11020297094E+02 -0.61436845316E+01  0.22569225653E+02  0.00000000000E+00 0. -1.
        -14    1    6    6    0    0 -0.36234972783E+02  0.29608682106E+02  0.19321164194E+02  0.50625632781E+02  0.00000000000E+00 0.  1.
</event>
<event>
12    1  0.8052519E-002  0.2493847E+03  0.7818608E-02  0.1113740E+00
         21   -1    0    0  501  502  0.00000000000E+00  0.00000000000E+00  0.24780656096E+02  0.24780656096E+02  0.00000000000E+00 0. -1.
         21   -1    0    0  502  503 -0.00000000000E+00 -0.00000000000E+00 -0.38219632649E+04  0.38219632649E+04  0.00000000000E+00 0.  1.
         -6    2    1    2    0  503  0.17662148227E+03 -0.35068872770E+02 -0.30261246758E+04  0.30363594026E+04  0.17211302794E+03 0.  0.
        -24    2    3    3    0    0  0.15533248575E+03 -0.76782177078E+02 -0.19245236419E+04  0.19337533311E+04  0.74746325917E+02 0.  0.
          6    2    1    2  501    0 -0.17662148227E+03  0.35068872770E+02 -0.77105793305E+03  0.81038451845E+03  0.17253335268E+03 0.  0.
         24    2    5    5    0    0 -0.49150766052E+02 -0.10661072815E+02 -0.32110399486E+03  0.34046894315E+03  0.10139955354E+03 0.  0.
          5    1    5    5  501    0 -0.12747071622E+03  0.45729945585E+02 -0.44995393819E+03  0.46991557530E+03  0.47000000000E+01 0. -1.
        -11    1    6    6    0    0 -0.15196709069E+02  0.13366258092E+02 -0.28402768145E+03  0.28474781940E+03  0.00000000000E+00 0.  1.
         12    1    6    6    0    0 -0.33954056983E+02 -0.24027330908E+02 -0.37076313409E+02  0.55721123752E+02  0.00000000000E+00 0. -1.
         -5    1    3    3    0  503  0.21288996515E+02  0.41713304308E+02 -0.11016010339E+04  0.11026060715E+04  0.47000000000E+01 0.  1.
         11    1    4    4    0    0  0.56622184377E+02  0.97170737266E+01 -0.59548893329E+03  0.59825376134E+03  0.00000000000E+00 0. -1.
        -12    1    4    4    0    0  0.98710301376E+02 -0.86499250805E+02 -0.13290347087E+04  0.13354995697E+04  0.00000000000E+00 0.  1.
</event>
<event>
12    1  0.8052519E-002  0.2100363E+03  0.7818608E-02  0.1141551E+00
         21   -1    0    0  501  502  0.00000000000E+00  0.00000000000E+00  0.30665293884E+03  0.30665293884E+03  0.00000000000E+00 0.  1.
         21   -1    0    0  502  503 -0.00000000000E+00 -0.00000000000E+00 -0.21613488456E+03  0.21613488456E+03  0.00000000000E+00 0.  1.
         -6    2    1    2    0  503 -0.12035128075E+03 -0.81841323314E+01  0.19645834010E+03  0.28754628984E+03  0.17185918247E+03 0.  0.
        -24    2    3    3    0    0 -0.76472648664E+02  0.33970204030E+01  0.21210927376E+03  0.23931249279E+03  0.80128143943E+02 0.  0.
          6    2    1    2  501    0  0.12035128075E+03  0.81841323314E+01 -0.10594028583E+03  0.23524153357E+03  0.17194133927E+03 0.  0.
         24    2    5    5    0    0  0.12169683559E+03  0.11534283970E+02 -0.17463325424E+02  0.14656630277E+03  0.78952858549E+02 0.  0.
          5    1    5    5  501    0 -0.13455548361E+01 -0.33501516382E+01 -0.88476960408E+02  0.88675230797E+02  0.47000000000E+01 0. -1.
        -11    1    6    6    0    0  0.14652415836E+02  0.24156250355E+02 -0.26062410483E+02  0.38437832421E+02  0.00000000000E+00 0.  1.
         12    1    6    6    0    0  0.10704441975E+03 -0.12621966385E+02  0.85990850586E+01  0.10812847035E+03  0.00000000000E+00 0. -1.
         -5    1    3    3    0  503 -0.43878632091E+02 -0.11581152734E+02 -0.15650933653E+02  0.48233797041E+02  0.47000000000E+01 0.  1.
         13    1    4    4    0    0 -0.14693121986E+02  0.46559308365E+01 -0.28268941232E+01  0.15670253859E+02  0.00000000000E+00 0. -1.
        -14    1    4    4    0    0 -0.61779526679E+02 -0.12589104335E+01  0.21493616788E+03  0.22364223893E+03  0.00000000000E+00 0.  1.
</event>
<event>
12    1  0.8052519E-002  0.2339370E+03  0.7818608E-02  0.1125997E+00
         21   -1    0    0  501  502  0.00000000000E+00  0.00000000000E+00  0.39654037001E+02  0.39654037001E+02  0.00000000000E+00 0.  1.
         21   -1    0    0  502  503 -0.00000000000E+00 -0.00000000000E+00 -0.16063562542E+04  0.16063562542E+04  0.00000000000E+00 0.  1.
         -6    2    1    2    0  503 -0.11978990430E+03  0.95857943283E+02 -0.11527432913E+04  0.11762413132E+04  0.17660171224E+03 0.  0.
        -24    2    3    3    0    0 -0.34646113020E+02  0.32894429696E+02 -0.20502110592E+03  0.22260967577E+03  0.72381055677E+02 0.  0.
          6    2    1    2  501    0  0.11978990430E+03 -0.95857943283E+02 -0.41395892584E+03  0.46976897795E+03  0.16056940523E+03 0.  0.
         24    2    5    5    0    0  0.92417588595E+02 -0.90731341107E+02 -0.41487870491E+03  0.44151191315E+03  0.77686824669E+02 0.  0.
          5    1    5    5  501    0  0.27372315709E+02 -0.51266021765E+01  0.91977907260E+00  0.28257064793E+02  0.47000000000E+01 0. -1.
        -13    1    6    6    0    0  0.10193008084E+03 -0.91480990189E+02 -0.40599539600E+03  0.42847494036E+03  0.00000000000E+00 0.  1.
         14    1    6    6    0    0 -0.95124922410E+01  0.74964908191E+00 -0.88833089151E+01  0.13036972795E+02  0.00000000000E+00 0. -1.
         -5    1    3    3    0  503 -0.85143791285E+02  0.62963513587E+02 -0.94772218539E+03  0.95363163744E+03  0.47000000000E+01 0.  1.
         11    1    4    4    0    0 -0.38797958169E+02  0.51702527337E+02 -0.17841224948E+03  0.18976133341E+03  0.00000000000E+00 0. -1.
        -12    1    4    4    0    0  0.41518451492E+01 -0.18808097641E+02 -0.26608856440E+02  0.32848342364E+02  0.00000000000E+00 0.  1.
</event>
<event>
12    1  0.8052519E-002  0.4483286E+03  0.7818608E-02  0.1028231E+00
         21   -1    0    0  501  502  0.00000000000E+00  0.00000000000E+00  0.58066398829E+03  0.58066398829E+03  0.00000000000E+00 0.  1.
         21   -1    0    0  502  503 -0.00000000000E+00 -0.00000000000E+00 -0.37574284225E+03  0.37574284225E+03  0.00000000000E+00 0. -1.
         -6    2    1    2    0  503 -0.51840228590E+02  0.41082587712E+03 -0.31944633761E+02  0.44946521444E+03  0.17185228760E+03 0.  0.
        -24    2    3    3    0    0 -0.36607975800E+02  0.38719550287E+03  0.11829499309E+02  0.39722843776E+03  0.79937434112E+02 0.  0.
          6    2    1    2  501    0  0.51840228590E+02 -0.41082587712E+03  0.23686577980E+03  0.50694161610E+03  0.17151995185E+03 0.  0.
         24    2    5    5    0    0 -0.22545597066E+02 -0.31612538700E+03  0.19103860419E+03  0.37800886653E+03  0.77145256697E+02 0.  0.
          5    1    5    5  501    0  0.74385825656E+02 -0.94700490118E+02  0.45827175614E+02  0.12893274957E+03  0.47000000000E+01 0. -1.
        -13    1    6    6    0    0 -0.91965187437E+01 -0.27551950917E+03  0.19080524125E+03  0.33526439712E+03  0.00000000000E+00 0.  1.
         14    1    6    6    0    0 -0.13349078322E+02 -0.40605877829E+02  0.23336293783E+00  0.42744469404E+02  0.00000000000E+00 0. -1.
         -5    1    3    3    0  503 -0.15232252790E+02  0.23630374244E+02 -0.43774133070E+02  0.52236776681E+02  0.47000000000E+01 0.  1.
         13    1    4    4    0    0  0.11494362925E+01  0.16730739463E+03 -0.30700456793E+02  0.17010468409E+03  0.00000000000E+00 0. -1.
        -14    1    4    4    0    0 -0.37757412092E+02  0.21988810824E+03  0.42529956102E+02  0.22712375367E+03  0.00000000000E+00 0.  1.
</event>
<event>
12    1  0.8052519E-002  0.2330633E+03  0.7818608E-02  0.1124713E+00
         21   -1    0    0  501  502  0.00000000000E+00  0.00000000000E+00  0.31116290464E+03  0.31116290464E+03  0.00000000000E+00 0. -1.
         21   -1    0    0  502  503 -0.00000000000E+00 -0.00000000000E+00 -0.17751343805E+03  0.17751343805E+03  0.00000000000E+00 0. -1.
         -6    2    1    2    0  503 -0.15315630960E+03  0.36161990551E+02  0.10267018949E+03  0.25356314216E+03  0.17026025527E+03 0.  0.
        -24    2    3    3    0    0 -0.29031547962E+02 -0.12584566402E+02  0.12765402006E+01  0.85974522676E+02  0.79929887439E+02 0.  0.
          6    2    1    2  501    0  0.15315630960E+03 -0.36161990551E+02  0.30979277105E+02  0.23511320052E+03  0.17191264270E+03 0.  0.
         24    2    5    5    0    0  0.13669142557E+03  0.24093005589E+02  0.52539882235E+02  0.16886588617E+03  0.80561960897E+02 0.  0.
          5    1    5    5  501    0  0.16464884030E+02 -0.60254996140E+02 -0.21560605130E+02  0.66247314357E+02  0.47000000000E+01 0. -1.
        -13    1    6    6    0    0 -0.54736179775E+01  0.11483124468E+02 -0.66518652149E+01  0.14355136786E+02  0.00000000000E+00 0.  1.
         14    1    6    6    0    0  0.14216504354E+03  0.12609881122E+02  0.59191747450E+02  0.15451074938E+03  0.00000000000E+00 0. -1.
         -5    1    3    3    0  503 -0.12412476164E+03  0.48746556953E+02  0.10139364929E+03  0.16758861949E+03  0.47000000000E+01 0.  1.
         11    1    4    4    0    0 -0.46793177300E+02  0.29435916797E+01 -0.22913005440E+02  0.52184978606E+02  0.00000000000E+00 0. -1.
        -12    1    4    4    0    0  0.17761629339E+02 -0.15528158082E+02  0.24189545640E+02  0.33789544070E+02  0.00000000000E+00 0.  1.
</event>
<event>
12    1  0.8052519E-002  0.2059455E+03  0.7818608E-02  0.1145062E+00
         21   -1    0    0  503  502  0.00000000000E+00  0.00000000000E+00  0.24315988392E+03  0.24315988392E+03  0.00000000000E+00 0.  1.
         21   -1    0    0  501  503 -0.00000000000E+00 -0.00000000000E+00 -0.22428858089E+03  0.22428858089E+03  0.00000000000E+00 0.  1.
          6    2    1    2  501    0  0.88979934416E+02  0.66850332815E+02 -0.10190133771E+03  0.22870260208E+03  0.17185634072E+03 0.  0.
         24    2    3    3    0    0  0.10371208183E+03  0.41205747744E+02 -0.21394048708E+02  0.14280618485E+03  0.86497349931E+02 0.  0.
         -6    2    1    2    0  502 -0.88979934416E+02 -0.66850332815E+02  0.12077264075E+03  0.23874586273E+03  0.17328346860E+03 0.  0.
        -24    2    5    5    0    0 -0.53872618711E+02 -0.44660480087E+01  0.13450997762E+03  0.16570390882E+03  0.80266099246E+02 0.  0.
          5    1    3    3  501    0 -0.14732147415E+02  0.25644585071E+02 -0.80507289007E+02  0.85896417238E+02  0.47000000000E+01 0. -1.
        -13    1    4    4    0    0  0.58809611112E+02  0.23335742743E+02  0.31904886629E+02  0.70859360986E+02  0.00000000000E+00 0.  1.
         14    1    4    4    0    0  0.44902470718E+02  0.17870005001E+02 -0.53298935337E+02  0.71946823859E+02  0.00000000000E+00 0. -1.
         -5    1    5    5    0  502 -0.35107315705E+02 -0.62384284807E+02 -0.13737336867E+02  0.73041953910E+02  0.47000000000E+01 0.  1.
         11    1    6    6    0    0 -0.67937504069E+02  0.16215331256E+02  0.83261398618E+02  0.10867797351E+03  0.00000000000E+00 0. -1.
        -12    1    6    6    0    0  0.14064885358E+02 -0.20681379264E+02  0.51248578998E+02  0.57025935308E+02  0.00000000000E+00 0.  1.
</event>
<event>
12    1  0.8052519E-002  0.2197615E+03  0.7818608E-02  0.1134939E+00
         21   -1    0    0  503  502  0.00000000000E+00  0.00000000000E+00  0.14833826466E+03  0.14833826466E+03  0.00000000000E+00 0. -1.
         21   -1    0    0  501  503 -0.00000000000E+00 -0.00000000000E+00 -0.41440174172E+03  0.41440174172E+03  0.00000000000E+00 0.  1.
          6    2    1    2  501    0  0.78586735346E+02 -0.11128444258E+03 -0.26932156433E+03  0.34760499424E+03  0.17243846694E+03 0.  0.
         24    2    3    3    0    0 -0.17095315779E+02 -0.15551443539E+02 -0.91660437123E+02  0.12420976571E+03  0.80575014404E+02 0.  0.
         -6    2    1    2    0  502 -0.78586735346E+02  0.11128444258E+03  0.32580872642E+01  0.21513501213E+03  0.16647028617E+03 0.  0.
        -24    2    5    5    0    0  0.22824817093E+02  0.61518348265E+02  0.15813079015E+02  0.10137788080E+03  0.75643517886E+02 0.  0.
          5    1    3    3  501    0  0.95682051125E+02 -0.95732999041E+02 -0.17766112720E+03  0.22339522854E+03  0.47000000000E+01 0. -1.
        -13    1    4    4    0    0 -0.44960337862E+00 -0.96502510946E+01 -0.10284991288E+03  0.10330263340E+03  0.00000000000E+00 0.  1.
         14    1    4    4    0    0 -0.16645712401E+02 -0.59011924446E+01  0.11189475754E+02  0.20907132305E+02  0.00000000000E+00 0. -1.
         -5    1    5    5    0  502 -0.10141155244E+03  0.49766094316E+02 -0.12554991751E+02  0.11375713133E+03  0.47000000000E+01 0.  1.
         11    1    6    6    0    0 -0.11284425668E+02  0.42717124016E+02  0.36471030434E+02  0.57290723575E+02  0.00000000000E+00 0. -1.
        -12    1    6    6    0    0  0.34109242761E+02  0.18801224249E+02 -0.20657951418E+02  0.44087157221E+02  0.00000000000E+00 0.  1.
</event>
<event>
12    1  0.8052519E-002  0.2110194E+03  0.7818608E-02  0.1140891E+00
         21   -1    0    0  501  502  0.00000000000E+00  0.00000000000E+00  0.30964478657E+03  0.30964478657E+03  0.00000000000E+00 0. -1.
         21   -1    0    0  502  503 -0.00000000000E+00 -0.00000000000E+00 -0.15794395486E+03  0.15794395486E+03  0.00000000000E+00 0. -1.
         -6    2    1    2    0  503 -0.11934388690E+03  0.26297362342E+02  0.49130206419E+01  0.21107656274E+03  0.17203099418E+03 0.  0.
        -24    2    3    3    0    0 -0.54909414601E+02 -0.33498966024E+02 -0.41158430080E+02  0.11171826828E+03  0.81545880114E+02 0.  0.
          6    2    1    2  501    0  0.11934388690E+03 -0.26297362342E+02  0.14678781107E+03  0.25651217869E+03  0.17122301753E+03 0.  0.
         24    2    5    5    0    0  0.85024151747E+02 -0.77209282174E+02  0.63484332633E+02  0.15291957605E+03  0.78509595691E+02 0.  0.
          5    1    5    5  501    0  0.34319735156E+02  0.50911919831E+02  0.83303478436E+02  0.10359260264E+03  0.47000000000E+01 0. -1.
        -13    1    6    6    0    0  0.10321079810E+02 -0.49037480156E+01  0.46120441139E+02  0.47514908438E+02  0.00000000000E+00 0.  1.
         14    1    6    6    0    0  0.74703071937E+02 -0.72305534158E+02  0.17363891494E+02  0.10540466761E+03  0.00000000000E+00 0. -1.
         -5    1    3    3    0  503 -0.64434472302E+02  0.59796328367E+02  0.46071450722E+02  0.99358294463E+02  0.47000000000E+01 0.  1.
         13    1    4    4    0    0 -0.12277533747E+02  0.16861394363E+02  0.14494674714E+02  0.25399607278E+02  0.00000000000E+00 0. -1.
        -14    1    4    4    0    0 -0.42631880854E+02 -0.50360360388E+02 -0.55653104794E+02  0.86318660999E+02  0.00000000000E+00 0.  1.
</event>
<event>
12    1  0.8052519E-002  0.1914865E+03  0.7818608E-02  0.1157684E+00
         21   -1    0    0  503  502  0.00000000000E+00  0.00000000000E+00  0.43684280059E+03  0.43684280059E+03  0.00000000000E+00 0.  1.
         21   -1    0    0  501  503 -0.00000000000E+00 -0.00000000000E+00 -0.12938871784E+03  0.12938871784E+03  0.00000000000E+00 0.  1.
          6    2    1    2  501    0 -0.59319049425E+01  0.79317401004E+02 -0.16699452592E+02  0.18974433880E+03  0.17145729728E+03 0.  0.
         24    2    3    3    0    0 -0.65932212201E+02  0.69076169941E+02  0.65817421610E+01  0.12440657243E+03  0.79467616516E+02 0.  0.
         -6    2    1    2    0  502  0.59319049425E+01 -0.79317401004E+02  0.32415353535E+03  0.37648717963E+03  0.17418566058E+03 0.  0.
        -24    2    5    5    0    0  0.51925094686E+02 -0.65481165489E+02  0.11380215115E+03  0.16067103160E+03  0.76682803147E+02 0.  0.
          5    1    3    3  501    0  0.60000307259E+02  0.10241231064E+02 -0.23281194752E+02  0.65337766368E+02  0.47000000000E+01 0. -1.
        -11    1    4    4    0    0 -0.39739477304E+02  0.46379545513E+02  0.42566250026E+02  0.74445778521E+02  0.00000000000E+00 0.  1.
         12    1    4    4    0    0 -0.26192734897E+02  0.22696624428E+02 -0.35984507865E+02  0.49960793910E+02  0.00000000000E+00 0. -1.
         -5    1    5    5    0  502 -0.45993189743E+02 -0.13836235515E+02  0.21035138420E+03  0.21581614803E+03  0.47000000000E+01 0.  1.
         13    1    6    6    0    0  0.17208783305E+02  0.16334191220E+02  0.32335894709E+02  0.40106833736E+02  0.00000000000E+00 0. -1.
        -14    1    6    6    0    0  0.34716311381E+02 -0.81815356709E+02  0.81466256438E+02  0.12056419787E+03  0.00000000000E+00 0.  1.
</event>
<event>
12    1  0.8052519E-002  0.2706369E+03  0.7818608E-02  0.1101059E+00
         21   -1    0    0  501  502  0.00000000000E+00  0.00000000000E+00  0.82904188534E+03  0.82904188534E+03  0.00000000000E+00 0.  1.
         21   -1    0    0  502  503 -0.00000000000E+00 -0.00000000000E+00 -0.14590412097E+03  0.14590412097E+03  0.00000000000E+00 0.  1.
         -6    2    1    2    0  503 -0.28557523818E+02  0.20242253634E+03  0.34911913394E+02  0.27287940249E+03  0.17735250554E+03 0.  0.
        -24    2    3    3    0    0 -0.52322288337E+02  0.70488170980E+02 -0.31846591162E+02  0.12304539859E+03  0.80123408812E+02 0.  0.
          6    2    1    2  501    0  0.28557523818E+02 -0.20242253634E+03  0.64822585098E+03  0.70206660383E+03  0.17581338671E+03 0.  0.
         24    2    5    5    0    0 -0.44814183169E+02 -0.14167654747E+03  0.34397812286E+03  0.38322141786E+03  0.80356399757E+02 0.  0.
          5    1    5    5  501    0  0.73371706986E+02 -0.60745988864E+02  0.30424772812E+03  0.31884518597E+03  0.47000000000E+01 0. -1.
        -13    1    6    6    0    0 -0.22847901341E+02 -0.14486911894E+03  0.30248928411E+03  0.33616789737E+03  0.00000000000E+00 0.  1.
         14    1    6    6    0    0 -0.21966281827E+02  0.31925714661E+01  0.41488838747E+02  0.47053520490E+02  0.00000000000E+00 0. -1.
         -5    1    3    3    0  503  0.23764764519E+02  0.13193436536E+03  0.66758504557E+02  0.14983400390E+03  0.47000000000E+01 0.  1.
         13    1    4    4    0    0  0.16097584677E+02  0.34519880928E+02 -0.24746619734E+02  0.45421906609E+02  0.00000000000E+00 0. -1.
        -14    1    4    4    0    0 -0.68419873013E+02  0.35968290051E+02 -0.70999714280E+01  0.77623491977E+02  0.00000000000E+00 0.  1.
</event>
<event>
12    1  0.8052519E-002  0.2317226E+03  0.7818608E-02  0.1125641E+00
         21   -1    0    0  503  502  0.00000000000E+00  0.00000000000E+00  0.75442003732E+02  0.75442003732E+02  0.00000000000E+00 0.  1.
         21   -1    0    0  501  503 -0.00000000000E+00 -0.00000000000E+00 -0.74775651090E+03  0.74775651090E+03  0.00000000000E+00 0. -1.
          6    2    1    2  501    0  0.31868460552E+02 -0.15101929325E+03 -0.24054800000E+03  0.33318047692E+03  0.17124095358E+03 0.  0.
         24    2    3    3    0    0 -0.33366303464E+02 -0.12649154435E+03 -0.12085876770E+03  0.19459913896E+03  0.78412767796E+02 0.  0.
         -6    2    1    2    0  502 -0.31868460552E+02  0.15101929325E+03 -0.43176650717E+03  0.49001803772E+03  0.17283788608E+03 0.  0.
        -24    2    5    5    0    0 -0.85240568176E+02  0.12131864105E+03 -0.33812609572E+03  0.37811930105E+03  0.81613614575E+02 0.  0.
          5    1    3    3  501    0  0.65234764017E+02 -0.24527748895E+02 -0.11968923230E+03  0.13858133796E+03  0.47000000000E+01 0. -1.
        -13    1    4    4    0    0 -0.17932059878E+02 -0.56513577879E+02 -0.65029700444E+01  0.59645887331E+02  0.00000000000E+00 0.  1.
         14    1    4    4    0    0 -0.15434243586E+02 -0.69977966473E+02 -0.11435579766E+03  0.13495325163E+03  0.00000000000E+00 0. -1.
         -5    1    5    5    0  502  0.53372107623E+02  0.29700652193E+02 -0.93640411444E+02  0.11189873667E+03  0.47000000000E+01 0.  1.
         11    1    6    6    0    0  0.10442444081E+02  0.25361794535E+02 -0.10448255405E+03  0.10802254099E+03  0.00000000000E+00 0. -1.
        -12    1    6    6    0    0 -0.95683012256E+02  0.95956846519E+02 -0.23364354167E+03  0.27009676005E+03  0.00000000000E+00 0.  1.
</event>
<event>
12    1  0.8052519E-002  0.2125879E+03  0.7818608E-02  0.1140115E+00
         21   -1    0    0  501  502  0.00000000000E+00  0.00000000000E+00  0.44100887305E+03  0.44100887305E+03  0.00000000000E+00 0. -1.
         21   -1    0    0  502  503 -0.00000000000E+00 -0.00000000000E+00 -0.47307399778E+03  0.47307399778E+03  0.00000000000E+00 0.  1.
         -6    2    1    2    0  503 -0.11438840003E+03 -0.41242001517E+02 -0.42135246801E+03  0.47194441813E+03  0.17437896304E+03 0.  0.
        -24    2    3    3    0    0 -0.13500722503E+03 -0.47578312386E+02 -0.24728245954E+03  0.29648005529E+03  0.79127503218E+02 0.  0.
          6    2    1    2  501    0  0.11438840003E+03  0.41242001517E+02  0.38928734328E+03  0.44213845271E+03  0.17075177004E+03 0.  0.
         24    2    5    5    0    0  0.10378411359E+03  0.86353646071E+02  0.33811408423E+03  0.37294088189E+03  0.80843509363E+02 0.  0.
          5    1    5    5  501    0  0.10604286448E+02 -0.45111644553E+02  0.51173259048E+02  0.69197570817E+02  0.47000000000E+01 0. -1.
        -11    1    6    6    0    0  0.36162444216E+01  0.36320436741E+02  0.14680325788E+03  0.15127275985E+03  0.00000000000E+00 0.  1.
         12    1    6    6    0    0  0.10016786917E+03  0.50033209330E+02  0.19131082636E+03  0.22166812204E+03  0.00000000000E+00 0. -1.
         -5    1    3    3    0  503  0.20618824995E+02  0.63363108688E+01 -0.17407000846E+03  0.17546436284E+03  0.47000000000E+01 0.  1.
         13    1    4    4    0    0 -0.10681246727E+03 -0.23325786228E+02 -0.11336677205E+03  0.15749609669E+03  0.00000000000E+00 0. -1.
        -14    1    4    4    0    0 -0.28194757760E+02 -0.24252526158E+02 -0.13391568750E+03  0.13898395860E+03  0.00000000000E+00 0.  1.
</event>
<event>
12    1  0.8052519E-002  0.2024575E+03  0.7818608E-02  0.1147825E+00
         21   -1    0    0  503  502  0.00000000000E+00  0.00000000000E+00  0.12556725102E+03  0.12556725102E+03  0.00000000000E+00 0. -1.
         21   -1    0    0  501  503 -0.00000000000E+00 -0.00000000000E+00 -0.45796971214E+03  0.45796971214E+03  0.00000000000E+00 0. -1.
          6    2    1    2  501    0 -0.98966567880E+02 -0.37740953233E+02 -0.32302357503E+03  0.38086230230E+03  0.17173555887E+03 0.  0.
         24    2    3    3    0    0 -0.59318124641E+01 -0.65252950231E+02 -0.19190676622E+03  0.21768729426E+03  0.79160705225E+02 0.  0.
         -6    2    1    2    0  502  0.98966567880E+02  0.37740953233E+02 -0.93788860789E+01  0.20267466085E+03  0.17254070111E+03 0.  0.
        -24    2    5    5    0    0  0.94715179489E+02 -0.32996320099E+02 -0.23669201147E+02  0.13023061868E+03  0.79624497443E+02 0.  0.
          5    1    3    3  501    0 -0.93034755416E+02  0.27511996998E+02 -0.13111680882E+03  0.16317500804E+03  0.47000000000E+01 0. -1.
        -13    1    4    4    0    0  0.32435904268E+02 -0.90851099634E+01 -0.78875451958E+02  0.85766916875E+02  0.00000000000E+00 0.  1.
         14    1    4    4    0    0 -0.38367716732E+02 -0.56167840267E+02 -0.11303131426E+03  0.13192037739E+03  0.00000000000E+00 0. -1.
         -5    1    5    5    0  502  0.42513883911E+01  0.70737273332E+02  0.14290315068E+02  0.72444042173E+02  0.47000000000E+01 0.  1.
         11    1    6    6    0    0  0.25814785289E+02  0.23055232993E+01  0.27219911156E+02  0.37585131908E+02  0.00000000000E+00 0. -1.
        -12    1    6    6    0    0  0.68900394200E+02 -0.35301843398E+02 -0.50889112303E+02  0.92645486772E+02  0.00000000000E+00 0.  1.
</event>
<event>
12    1  0.8052519E-002  0.1791996E+03  0.7818608E-02  0.1168864E+00
         21   -1    0    0  503  502  0.00000000000E+00  0.00000000000E+00  0.47643836630E+03  0.47643836630E+03  0.00000000000E+00 0. -1.
         21   -1    0    0  501  503 -0.00000000000E+00 -0.00000000000E+00 -0.96565653787E+02  0.96565653787E+02  0.00000000000E+00 0. -1.
          6    2    1    2  501    0  0.15611679822E+02 -0.46244153469E+02  0.30882665185E+02  0.18069477679E+03  0.17121511929E+03 0.  0.
         24    2    3    3    0    0  0.57273722985E+02 -0.21493736270E+02  0.66197592803E+02  0.12054876193E+03  0.80047627482E+02 0.  0.
         -6    2    1    2    0  502 -0.15611679822E+02  0.46244153469E+02  0.34899004733E+03  0.39230924329E+03  0.17242460080E+03 0.  0.
        -24    2    5    5    0    0  0.40375981060E+02 -0.20173110393E+02  0.15792335089E+03  0.18237010069E+03  0.79258404215E+02 0.  0.
          5    1    3    3  501    0 -0.41662043163E+02 -0.24750417200E+02 -0.35314927618E+02  0.60146014870E+02  0.47000000000E+01 0. -1.
        -13    1    4    4    0    0  0.27527596560E+01 -0.38025614139E+02  0.77054027832E+01  0.38895992704E+02  0.00000000000E+00 0.  1.
         14    1    4    4    0    0  0.54520963329E+02  0.16531877869E+02  0.58492190020E+02  0.81652769221E+02  0.00000000000E+00 0. -1.
         -5    1    5    5    0  502 -0.55987660882E+02  0.66417263862E+02  0.19106669644E+03  0.20993914261E+03  0.47000000000E+01 0.  1.
         11    1    6    6    0    0  0.38345896432E+01 -0.34009450940E+02  0.21398379052E+02  0.40363813708E+02  0.00000000000E+00 0. -1.
        -12    1    6    6    0    0  0.36541391416E+02  0.13836340547E+02  0.13652497184E+03  0.14200628698E+03  0.00000000000E+00 0.  1.
</event>
<event>
12    1  0.8052519E-002  0.3352232E+03  0.7818608E-02  0.1069145E+00
         21   -1    0    0  503  502  0.00000000000E+00  0.00000000000E+00  0.11975915308E+03  0.11975915308E+03  0.00000000000E+00 0. -1.
         21   -1    0    0  501  503 -0.00000000000E+00 -0.00000000000E+00 -0.10164110386E+04  0.10164110386E+04  0.00000000000E+00 0.  1.
          6    2    1    2  501    0  0.20891628299E+03  0.19563435521E+03 -0.28172576469E+03  0.43580688904E+03  0.16923186406E+03 0.  0.
         24    2    3    3    0    0  0.22053107477E+03  0.20473007801E+03 -0.24134513717E+03  0.39255968520E+03  0.72851022145E+02 0.  0.
         -6    2    1    2    0  502 -0.20891628299E+03 -0.19563435521E+03 -0.61492612085E+03  0.70036330266E+03  0.17451592299E+03 0.  0.
        -24    2    5    5    0    0 -0.47412639712E+02 -0.47781908101E+02 -0.29226593252E+03  0.31039476542E+03  0.79965404651E+02 0.  0.
          5    1    3    3  501    0 -0.11614791779E+02 -0.90957228059E+01 -0.40380627521E+02  0.43247203845E+02  0.47000000000E+01 0. -1.
        -13    1    4    4    0    0  0.64443386024E+01  0.31117330408E+02 -0.40668872662E+02  0.51611771481E+02  0.00000000000E+00 0.  1.
         14    1    4    4    0    0  0.21408673617E+03  0.17361274760E+03 -0.20067626450E+03  0.34094791372E+03  0.00000000000E+00 0. -1.
         -5    1    5    5    0  502 -0.16150364328E+03 -0.14785244710E+03 -0.32266018833E+03  0.38996853725E+03  0.47000000000E+01 0.  1.
         13    1    6    6    0    0  0.15833280354E+02 -0.17908220107E+02 -0.26995777184E+02  0.36057857673E+02  0.00000000000E+00 0. -1.
        -14    1    6    6    0    0 -0.63245920066E+02 -0.29873687993E+02 -0.26527015533E+03  0.27433690774E+03  0.00000000000E+00 0.  1.
</event>
<event>
12    1  0.8052519E-002  0.1984349E+03  0.7818608E-02  0.1151091E+00
         21   -1    0    0  501  502  0.00000000000E+00  0.00000000000E+00  0.12976026168E+04  0.12976026168E+04  0.00000000000E+00 0. -1.
         21   -1    0    0  502  503 -0.00000000000E+00 -0.00000000000E+00 -0.31596683609E+02  0.31596683609E+02  0.00000000000E+00 0. -1.
         -6    2    1    2    0  503  0.55628069982E+02  0.81114441295E+02  0.49965832553E+03  0.53757751503E+03  0.17221239106E+03 0.  0.
        -24    2    3    3    0    0  0.45321222197E+02 -0.21580356176E+02  0.25704376428E+03  0.27388002192E+03  0.80118940955E+02 0.  0.
          6    2    1    2  501    0 -0.55628069982E+02 -0.81114441295E+02  0.76634760766E+03  0.79162178538E+03  0.17234372795E+03 0.  0.
         24    2    5    5    0    0 -0.34838350599E+02 -0.11834289847E+03  0.47662134026E+03  0.49873687543E+03  0.79698284989E+02 0.  0.
          5    1    5    5  501    0 -0.20789719383E+02  0.37228457174E+02  0.28972626740E+03  0.29288490995E+03  0.47000000000E+01 0. -1.
        -11    1    6    6    0    0  0.11137730486E+02 -0.48823632881E+02  0.87750335812E+02  0.10103423976E+03  0.00000000000E+00 0.  1.
         12    1    6    6    0    0 -0.45976081085E+02 -0.69519265589E+02  0.38887100445E+03  0.39770263567E+03  0.00000000000E+00 0. -1.
         -5    1    3    3    0  503  0.10306847785E+02  0.10269479747E+03  0.24261456125E+03  0.26369749311E+03  0.47000000000E+01 0.  1.
         11    1    4    4    0    0  0.14464152025E+02 -0.47030691467E+02  0.95166302139E+02  0.10713413413E+03  0.00000000000E+00 0. -1.
        -12    1    4    4    0    0  0.30857070172E+02  0.25450335291E+02  0.16187746214E+03  0.16674588779E+03  0.00000000000E+00 0.  1.
</event>
<event>
12    1  0.8052519E-002  0.1756805E+03  0.7818608E-02  0.1172511E+00
         21   -1    0    0  501  502  0.00000000000E+00  0.00000000000E+00  0.51138616867E+02  0.51138616867E+02  0.00000000000E+00 0. -1.
         21   -1    0    0  502  503 -0.00000000000E+00 -0.00000000000E+00 -0.11705426203E+04  0.11705426203E+04  0.00000000000E+00 0. -1.
         -6    2    1    2    0  503 -0.18542199521E+02 -0.21927284517E+02 -0.98568879873E+03  0.10009021525E+04  0.17145871775E+03 0.  0.
        -24    2    3    3    0    0 -0.22367038832E+02 -0.19427646651E+02 -0.98960085103E+03  0.99326855970E+03  0.79967927594E+02 0.  0.
          6    2    1    2  501    0  0.18542199521E+02  0.21927284517E+02 -0.13371520472E+03  0.22077908472E+03  0.17331771204E+03 0.  0.
         24    2    5    5    0    0 -0.24504424510E+02  0.60109624593E+02 -0.12324607168E+03  0.16210544770E+03  0.82915307393E+02 0.  0.
          5    1    5    5  501    0  0.43046624031E+02 -0.38182340076E+02 -0.10469133032E+02  0.58673637015E+02  0.47000000000E+01 0. -1.
        -13    1    6    6    0    0  0.87718213101E+01 -0.51164066806E+01 -0.72042624067E+02  0.72754808424E+02  0.00000000000E+00 0.  1.
         14    1    6    6    0    0 -0.33276245820E+02  0.65226031274E+02 -0.51203447617E+02  0.89350639278E+02  0.00000000000E+00 0. -1.
         -5    1    3    3    0  503  0.38248393110E+01 -0.24996378663E+01  0.39120523033E+01  0.76335927610E+01  0.47000000000E+01 0.  1.
         13    1    4    4    0    0 -0.42117373816E+02  0.13759263960E+02 -0.41131359618E+03  0.41369320145E+03  0.00000000000E+00 0. -1.
        -14    1    4    4    0    0  0.19750334984E+02 -0.33186910611E+02 -0.57828725485E+03  0.57957535825E+03  0.00000000000E+00 0.  1.
</event>
<event>
12    1  0.8052519E-002  0.2105590E+03  0.7818608E-02  0.1141138E+00
         21   -1    0    0  501  502  0.00000000000E+00  0.00000000000E+00  0.15591002911E+03  0.15591002911E+03  0.00000000000E+00 0.  1.
         21   -1    0    0  502  503 -0.00000000000E+00 -0.00000000000E+00 -0.33823752927E+03  0.33823752927E+03  0.00000000000E+00 0.  1.
         -6    2    1    2    0  503  0.10221632436E+03 -0.62830678867E+02 -0.18984273740E+03  0.28345450057E+03  0.17294599670E+03 0.  0.
        -24    2    3    3    0    0  0.24170630320E+02 -0.32871429036E+02 -0.17617022694E+03  0.19861515504E+03  0.82141833018E+02 0.  0.
          6    2    1    2  501    0 -0.10221632436E+03  0.62830678867E+02  0.75152372382E+01  0.21069305781E+03  0.17302951958E+03 0.  0.
         24    2    5    5    0    0 -0.13999499505E+03  0.61272018449E+02  0.87633626704E+00  0.17201719469E+03  0.78970174241E+02 0.  0.
          5    1    5    5  501    0  0.37778670697E+02  0.15586604179E+01  0.66389009712E+01  0.38675863119E+02  0.47000000000E+01 0. -1.
        -13    1    6    6    0    0 -0.53451650469E+02  0.52574471353E+02  0.29322535264E+02  0.80504441184E+02  0.00000000000E+00 0.  1.
         14    1    6    6    0    0 -0.86543344585E+02  0.86975470957E+01 -0.28446198997E+02  0.91512753510E+02  0.00000000000E+00 0. -1.
         -5    1    3    3    0  503  0.78045694038E+02 -0.29959249831E+02 -0.13672510461E+02  0.84839345534E+02  0.47000000000E+01 0.  1.
         11    1    4    4    0    0  0.29708803321E+02  0.16146072983E+02 -0.11589866840E+03  0.12073031932E+03  0.00000000000E+00 0. -1.
        -12    1    4    4    0    0 -0.55381730013E+01 -0.49017502019E+02 -0.60271558545E+02  0.77884835712E+02  0.00000000000E+00 0.  1.
</event>
<event>
12    1  0.8052519E-002  0.2716138E+03  0.7818608E-02  0.1101509E+00
         21   -1    0    0  501  502  0.00000000000E+00  0.00000000000E+00  0.72405210053E+02  0.72405210053E+02  0.00000000000E+00 0. -1.
         21   -1    0    0  502  503 -0.00000000000E+00 -0.00000000000E+00 -0.17772867113E+04  0.17772867113E+04  0.00000000000E+00 0.  1.
         -6    2    1    2    0  503 -0.79731940223E+01  0.20035685980E+03 -0.14753068018E+04  0.15001014091E+04  0.18321472434E+03 0.  0.
        -24    2    3    3    0    0 -0.73330833863E+02  0.13636087573E+03 -0.83513959821E+03  0.85341505116E+03  0.82990369462E+02 0.  0.
          6    2    1    2  501    0  0.79731940223E+01 -0.20035685980E+03 -0.22957469946E+03  0.34959051221E+03  0.17117984842E+03 0.  0.
         24    2    5    5    0    0  0.30818416739E+02 -0.27620368801E+02 -0.72799744353E+02  0.11515443122E+03  0.79044801652E+02 0.  0.
          5    1    5    5  501    0 -0.22845222717E+02 -0.17273649100E+03 -0.15677495511E+03  0.23443608100E+03  0.47000000000E+01 0. -1.
        -11    1    6    6    0    0  0.26611701935E+02 -0.50546505718E+02 -0.71897613213E+02  0.91828093228E+02  0.00000000000E+00 0.  1.
         12    1    6    6    0    0  0.42067148047E+01  0.22926136917E+02 -0.90213113957E+00  0.23326337989E+02  0.00000000000E+00 0. -1.
         -5    1    3    3    0  503  0.65357639841E+02  0.63995984068E+02 -0.64016720354E+03  0.64668635794E+03  0.47000000000E+01 0.  1.
         11    1    4    4    0    0 -0.13974396014E+02  0.27274046869E+02 -0.50979203797E+02  0.59481397061E+02  0.00000000000E+00 0. -1.
        -12    1    4    4    0    0 -0.59356437850E+02  0.10908682886E+03 -0.78416039442E+03  0.79393365410E+03  0.00000000000E+00 0.  1.
</event>
<event>
12    1  0.8052519E-002  0.1923250E+03  0.7818608E-02  0.1158460E+00
         21   -1    0    0  501  502  0.00000000000E+00  0.00000000000E+00  0.10711587760E+03  0.10711587760E+03  0.00000000000E+00 0.  1.
         21   -1    0    0  502  503 -0.00000000000E+00 -0.00000000000E+00 -0.33378750083E+03  0.33378750083E+03  0.00000000000E+00 0.  1.
         -6    2    1    2    0  503 -0.11442384026E+02  0.70185571269E+02 -0.14209599263E+03  0.23912378108E+03  0.17869518458E+03 0.  0.
        -24    2    3    3    0    0 -0.92917672136E+01 -0.29195704643E+01 -0.14479574007E+03  0.16578644041E+03  0.80152833090E+02 0.  0.
          6    2    1    2  501    0  0.11442384026E+02 -0.70185571269E+02 -0.84575630595E+02  0.20177959735E+03  0.16883431538E+03 0.  0.
         24    2    5    5    0    0 -0.59981210397E+01 -0.38976470561E+02 -0.12200622443E+03  0.14980538702E+03  0.77466073004E+02 0.  0.
          5    1    5    5  501    0  0.17440505065E+02 -0.31209100708E+02  0.37430593839E+02  0.51974210326E+02  0.47000000000E+01 0. -1.
        -13    1    6    6    0    0 -0.16928427972E+01  0.18204373714E+02 -0.70147755082E+02  0.72491188996E+02  0.00000000000E+00 0.  1.
         14    1    6    6    0    0 -0.43052782425E+01 -0.57180844275E+02 -0.51858469352E+02  0.77314198025E+02  0.00000000000E+00 0. -1.
         -5    1    3    3    0  503 -0.21506168120E+01  0.73105141733E+02  0.26997474377E+01  0.73337340671E+02  0.47000000000E+01 0.  1.
         11    1    4    4    0    0 -0.33310119022E+02  0.45457669384E+01 -0.21396927124E+02  0.39850426807E+02  0.00000000000E+00 0. -1.
        -12    1    4    4    0    0  0.24018351809E+02 -0.74653374027E+01 -0.12339881295E+03  0.12593601361E+03  0.00000000000E+00 0.  1.
</event>
<event>
12    1  0.8052519E-002  0.2130059E+03  0.7818608E-02  0.1139241E+00
         21   -1    0    0  503  502  0.00000000000E+00  0.00000000000E+00  0.32229999315E+03  0.32229999315E+03  0.00000000000E+00 0. -1.
         21   -1    0    0  501  503 -0.00000000000E+00 -0.00000000000E+00 -0.22403340219E+03  0.22403340219E+03  0.00000000000E+00 0. -1.
          6    2    1    2  501    0 -0.12295124800E+03 -0.26444710014E+02 -0.11751918633E+03  0.24312552897E+03  0.17170594518E+03 0.  0.
         24    2    3    3    0    0 -0.50229189064E+02  0.39099286007E+02 -0.10055394533E+03  0.14365481633E+03  0.80460454478E+02 0.  0.
         -6    2    1    2    0  502  0.12295124800E+03  0.26444710014E+02  0.21578577729E+03  0.30320786637E+03  0.17191619026E+03 0.  0.
        -24    2    5    5    0    0  0.12840723627E+03 -0.30244795066E+02  0.17176977394E+03  0.23107627589E+03  0.80549513253E+02 0.  0.
          5    1    3    3  501    0 -0.72722058940E+02 -0.65543996020E+02 -0.16965241000E+02  0.99470712640E+02  0.47000000000E+01 0. -1.
        -13    1    4    4    0    0  0.14453367820E+02  0.24195651424E+02 -0.71660567051E+01  0.29080607935E+02  0.00000000000E+00 0.  1.
         14    1    4    4    0    0 -0.64682556884E+02  0.14903634582E+02 -0.93387888623E+02  0.11457420840E+03  0.00000000000E+00 0. -1.
         -5    1    5    5    0  502 -0.54559882623E+01  0.56689505080E+02  0.44016003352E+02  0.72131590480E+02  0.47000000000E+01 0.  1.
         11    1    6    6    0    0  0.11939865232E+03 -0.49981392448E+02  0.12705264321E+03  0.18137406626E+03  0.00000000000E+00 0. -1.
        -12    1    6    6    0    0  0.90085839487E+01  0.19736597382E+02  0.44717130730E+02  0.49702209625E+02  0.00000000000E+00 0.  1.
</event>
<event>
12    1  0.8052519E-002  0.2937662E+03  0.7818608E-02  0.1088403E+00
         21   -1    0    0  501  502  0.00000000000E+00  0.00000000000E+00  0.80261424579E+02  0.80261424579E+02  0.00000000000E+00 0.  1.
         21   -1    0    0  502  503 -0.00000000000E+00 -0.00000000000E+00 -0.10971288817E+04  0.10971288817E+04  0.00000000000E+00 0. -1.
         -6    2    1    2    0  503 -0.21777452554E+03  0.94910156499E+02 -0.59185356002E+03  0.66074897966E+03  0.17281462850E+03 0.  0.
        -24    2    3    3    0    0 -0.16273440553E+03  0.70566615975E+02 -0.26832598352E+03  0.33163774385E+03  0.80762774114E+02 0.  0.
          6    2    1    2  501    0  0.21777452554E+03 -0.94910156499E+02 -0.42501389713E+03  0.51664132665E+03  0.17276505975E+03 0.  0.
         24    2    5    5    0    0  0.23260330168E+03 -0.11184333757E+03 -0.39813997149E+03  0.48127293537E+03  0.80591397226E+02 0.  0.
          5    1    5    5  501    0 -0.14828776133E+02  0.16933181074E+02 -0.26873925634E+02  0.35368391282E+02  0.47000000000E+01 0. -1.
        -13    1    6    6    0    0  0.19095805565E+03 -0.89942115264E+02 -0.25742632642E+03  0.33290070089E+03  0.00000000000E+00 0.  1.
         14    1    6    6    0    0  0.41645246024E+02 -0.21901222309E+02 -0.14071364508E+03  0.14837223448E+03  0.00000000000E+00 0. -1.
         -5    1    3    3    0  503 -0.55040120019E+02  0.24343540524E+02 -0.32352757650E+03  0.32911123581E+03  0.47000000000E+01 0.  1.
         11    1    4    4    0    0 -0.12086682921E+03  0.35561922821E+02 -0.23778331965E+03  0.26909914133E+03  0.00000000000E+00 0. -1.
        -12    1    4    4    0    0 -0.41867576317E+02  0.35004693155E+02 -0.30542663866E+02  0.62538602523E+02  0.00000000000E+00 0.  1.
</event>
<event>
12    1  0.8052519E-002  0.1844090E+03  0.7818608E-02  0.1163763E+00
         21   -1    0    0  503  502  0.00000000000E+00  0.00000000000E+00  0.51239283011E+02  0.51239283011E+02  0.00000000000E+00 0.  1.
         21   -1    0    0  501  503 -0.00000000000E+00 -0.00000000000E+00 -0.66694118867E+03  0.66694118867E+03  0.00000000000E+00 0.  1.
          6    2    1    2  501    0 -0.56716951102E+02  0.34234622783E+02 -0.27519619552E+03  0.33126969717E+03  0.17209835646E+03 0.  0.
         24    2    3    3    0    0 -0.10379199487E+03  0.40440810653E+02 -0.18451639036E+03  0.22880266063E+03  0.76786208627E+02 0.  0.
         -6    2    1    2    0  502  0.56716951102E+02 -0.34234622783E+02 -0.34050571015E+03  0.38691077452E+03  0.17136798667E+03 0.  0.
        -24    2    5    5    0    0  0.67294890640E+02 -0.12581406244E+02 -0.10313336783E+03  0.14827198160E+03  0.81616143484E+02 0.  0.
          5    1    3    3  501    0  0.47075043765E+02 -0.62061878699E+01 -0.90679805160E+02  0.10246703654E+03  0.47000000000E+01 0. -1.
        -11    1    4    4    0    0 -0.60343485297E+02  0.18441570241E+02 -0.16443242231E+03  0.17612339208E+03  0.00000000000E+00 0.  1.
         12    1    4    4    0    0 -0.43448509570E+02  0.21999240412E+02 -0.20083968051E+02  0.52679268553E+02  0.00000000000E+00 0. -1.
         -5    1    5    5    0  502 -0.10577939538E+02 -0.21653216539E+02 -0.23737234231E+03  0.23863879292E+03  0.47000000000E+01 0.  1.
         11    1    6    6    0    0  0.18239055736E-01  0.27371931973E+02 -0.35644143566E+02  0.44941383637E+02  0.00000000000E+00 0. -1.
        -12    1    6    6    0    0  0.67276651584E+02 -0.39953338217E+02 -0.67489224268E+02  0.10333059796E+03  0.00000000000E+00 0.  1.
</event>
<event>
12    1  0.8052519E-002  0.2036857E+03  0.7818608E-02  0.1147467E+00
         21   -1    0    0  503  502  0.00000000000E+00  0.00000000000E+00  0.10349053993E+04  0.10349053993E+04  0.00000000000E+00 0. -1.
         21   -1    0    0  501  503 -0.00000000000E+00 -0.00000000000E+00 -0.79648075788E+02  0.79648075788E+02  0.00000000000E+00 0. -1.
          6    2    1    2  501    0  0.80258086127E+02 -0.63698958853E+02  0.83419485135E+02  0.22010607592E+03  0.17603680413E+03 0.  0.
         24    2    3    3    0    0 -0.59274192481E+01 -0.54241463863E+02 -0.30914825007E+01  0.97535185942E+02  0.80785422767E+02 0.  0.
         -6    2    1    2    0  502 -0.80258086127E+02  0.63698958853E+02  0.87183783835E+03  0.89444739914E+03  0.17156927379E+03 0.  0.
        -24    2    5    5    0    0 -0.24931451816E+02 -0.27043612513E+02  0.27342122312E+03  0.28664826612E+03  0.77814709077E+02 0.  0.
          5    1    3    3  501    0  0.86185505375E+02 -0.94574949903E+01  0.86510967636E+02  0.12257088998E+03  0.47000000000E+01 0. -1.
        -11    1    4    4    0    0 -0.24488937196E+02 -0.29813154688E+02  0.32571102380E+02  0.50491672063E+02  0.00000000000E+00 0.  1.
         12    1    4    4    0    0  0.18561517948E+02 -0.24428309175E+02 -0.35662584881E+02  0.47043513879E+02  0.00000000000E+00 0. -1.
         -5    1    5    5    0  502 -0.55326634311E+02  0.90742571367E+02  0.59841661522E+03  0.60779913302E+03  0.47000000000E+01 0.  1.
         11    1    6    6    0    0 -0.28175570929E+02  0.13063913263E+02  0.20446579361E+03  0.20681099918E+03  0.00000000000E+00 0. -1.
        -12    1    6    6    0    0  0.32441191131E+01 -0.40107525776E+02  0.68955429515E+02  0.79837266939E+02  0.00000000000E+00 0.  1.
</event>
<event>
12    1  0.8052519E-002  0.3449978E+03  0.7818608E-02  0.1064808E+00
         21   -1    0    0  503  502  0.00000000000E+00  0.00000000000E+00  0.33075626521E+03  0.33075626521E+03  0.00000000000E+00 0. -1.
         21   -1    0    0  501  503 -0.00000000000E+00 -0.00000000000E+00 -0.49926273988E+03  0.49926273988E+03  0.00000000000E+00 0. -1.
          6    2    1    2  501    0 -0.16319083425E+03  0.24872059110E+03  0.13609691828E+03  0.36979437090E+03  0.17243063754E+03 0.  0.
         24    2    3    3    0    0 -0.50369875503E+02  0.92404570479E+02 -0.21474035769E+01  0.13252479940E+03  0.80513862839E+02 0.  0.
         -6    2    1    2    0  502  0.16319083425E+03 -0.24872059110E+03 -0.30460339296E+03  0.46022463419E+03  0.17472923654E+03 0.  0.
        -24    2    5    5    0    0  0.18283571659E+03 -0.20490491357E+03 -0.29692496823E+03  0.41136991891E+03  0.75138875151E+02 0.  0.
          5    1    3    3  501    0 -0.11282095875E+03  0.15631602062E+03  0.13824432186E+03  0.23726957150E+03  0.47000000000E+01 0. -1.
        -13    1    4    4    0    0 -0.71580739288E+02  0.80603851085E+02 -0.59134236933E+01  0.10796180633E+03  0.00000000000E+00 0.  1.
         14    1    4    4    0    0  0.21210863785E+02  0.11800719394E+02  0.37660201163E+01  0.24562993064E+02  0.00000000000E+00 0. -1.
         -5    1    5    5    0  502 -0.19644882341E+02 -0.43815677522E+02 -0.76784247247E+01  0.48854715281E+02  0.47000000000E+01 0.  1.
         13    1    6    6    0    0  0.13562838914E+03 -0.16000020273E+03 -0.26737081716E+03  0.33982683632E+03  0.00000000000E+00 0. -1.
        -14    1    6    6    0    0  0.47207327450E+02 -0.44904710848E+02 -0.29554151066E+02  0.71543082590E+02  0.00000000000E+00 0.  1.
</event>
<event>
12    1  0.8052519E-002  0.3000313E+03  0.7818608E-02  0.1085230E+00
         21   -1    0    0  501  502  0.00000000000E+00  0.00000000000E+00  0.13579136424E+03  0.13579136424E+03  0.00000000000E+00 0. -1.
         21   -1    0    0  502  503 -0.00000000000E+00 -0.00000000000E+00 -0.11052417659E+04  0.11052417659E+04  0.00000000000E+00 0.  1.
         -6    2    1    2    0  503 -0.24232021242E+03  0.35211213198E+02 -0.87733788628E+03  0.92722195062E+03  0.17337780747E+03 0.  0.
        -24    2    3    3    0    0 -0.23471795121E+03  0.22491522815E+01 -0.84233158297E+03  0.87831568203E+03  0.82573399677E+02 0.  0.
          6    2    1    2  501    0  0.24232021242E+03 -0.35211213198E+02 -0.92112515398E+02  0.31381117953E+03  0.17330270057E+03 0.  0.
         24    2    5    5    0    0  0.49216774571E+02 -0.18328372724E+02 -0.55316212361E+02  0.11645357028E+03  0.87996196141E+02 0.  0.
          5    1    5    5  501    0  0.19310343785E+03 -0.16882840474E+02 -0.36796303036E+02  0.19735760925E+03  0.47000000000E+01 0. -1.
        -11    1    6    6    0    0  0.43285128803E+02  0.30675894177E+02 -0.30680663275E+02  0.61285528130E+02  0.00000000000E+00 0.  1.
         12    1    6    6    0    0  0.59316457673E+01 -0.49004266901E+02 -0.24635549086E+02  0.55168042151E+02  0.00000000000E+00 0. -1.
         -5    1    3    3    0  503 -0.76022612173E+01  0.32962060916E+02 -0.35006303309E+02  0.48906268584E+02  0.47000000000E+01 0.  1.
         11    1    4    4    0    0  0.29356229647E+01 -0.76127729007E+01 -0.62087195618E+02  0.62621019260E+02  0.00000000000E+00 0. -1.
        -12    1    4    4    0    0 -0.23765357417E+03  0.98619251822E+01 -0.78024438735E+03  0.81569466277E+03  0.00000000000E+00 0.  1.
</event>
<event>
12    1  0.8052519E-002  0.2166210E+03  0.7818608E-02  0.1136522E+00
         21   -1    0    0  501  502  0.00000000000E+00  0.00000000000E+00  0.46490229658E+02  0.46490229658E+02  0.00000000000E+00 0. -1.
         21   -1    0    0  502  503 -0.00000000000E+00 -0.00000000000E+00 -0.10725197140E+04  0.10725197140E+04  0.00000000000E+00 0. -1.
         -6    2    1    2    0  503  0.33572447866E+02  0.12710220773E+03 -0.37421150517E+03  0.43213926493E+03  0.17154595077E+03 0.  0.
        -24    2    3    3    0    0  0.49102739300E+02  0.15616640894E+03 -0.33558110687E+03  0.38114597696E+03  0.76541166588E+02 0.  0.
          6    2    1    2  501    0 -0.33572447866E+02 -0.12710220773E+03 -0.65181797921E+03  0.68687067877E+03  0.17217017996E+03 0.  0.
         24    2    5    5    0    0  0.37673934186E+02 -0.82613656259E+02 -0.48606848927E+03  0.50099367217E+03  0.80546519320E+02 0.  0.
          5    1    5    5  501    0 -0.71246382052E+02 -0.44488551470E+02 -0.16574948994E+03  0.18587700660E+03  0.47000000000E+01 0. -1.
        -11    1    6    6    0    0  0.57986126641E+02 -0.45986358216E+02 -0.23265134879E+03  0.24413886646E+03  0.00000000000E+00 0.  1.
         12    1    6    6    0    0 -0.20312192455E+02 -0.36627298043E+02 -0.25341714048E+03  0.25685480571E+03  0.00000000000E+00 0. -1.
         -5    1    3    3    0  503 -0.15530291434E+02 -0.29064201213E+02 -0.38630398307E+02  0.50993287965E+02  0.47000000000E+01 0.  1.
         11    1    4    4    0    0  0.39656652192E+02  0.92407385383E+02 -0.27453038969E+03  0.29236742260E+03  0.00000000000E+00 0. -1.
        -12    1    4    4    0    0  0.94460871073E+01  0.63759023558E+02 -0.61050717175E+02  0.88778554360E+02  0.00000000000E+00 0.  1.
</event>
<event>
12    1  0.8052519E-002  0.2179707E+03  0.7818608E-02  0.1135687E+00
         21   -1    0    0  503  502  0.00000000000E+00  0.00000000000E+00  0.20173522307E+04  0.20173522307E+04  0.00000000000E+00 0. -1.
         21   -1    0    0  501  503 -0.00000000000E+00 -0.00000000000E+00 -0.23438248063E+02  0.23438248063E+02  0.00000000000E+00 0. -1.
          6    2    1    2  501    0 -0.32324986140E+02 -0.12942222506E+03  0.94742738027E+03  0.97184453040E+03  0.17049379261E+03 0.  0.
         24    2    3    3    0    0 -0.40497881184E+02  0.14393032086E+02  0.22633004424E+03  0.23648537840E+03  0.53411679612E+02 0.  0.
         -6    2    1    2    0  502  0.32324986140E+02  0.12942222506E+03  0.10464866024E+04  0.10689459484E+04  0.17238391606E+03 0.  0.
        -24    2    5    5    0    0 -0.26407163349E+02  0.27956189039E+02  0.33631886243E+03  0.34915074784E+03  0.85539351806E+02 0.  0.
          5    1    3    3  501    0  0.81728950434E+01 -0.14381525715E+03  0.72109733603E+03  0.73535915200E+03  0.47000000000E+01 0. -1.
        -13    1    4    4    0    0 -0.43430020845E+01  0.20926692329E+02  0.15279760177E+03  0.15428511019E+03  0.00000000000E+00 0.  1.
         14    1    4    4    0    0 -0.36154879099E+02 -0.65336602429E+01  0.73532442472E+02  0.82200268216E+02  0.00000000000E+00 0. -1.
         -5    1    5    5    0  502  0.58732149489E+02  0.10146603602E+03  0.71016773995E+03  0.71979520054E+03  0.47000000000E+01 0.  1.
         11    1    6    6    0    0  0.23442129379E+02  0.20264318633E+02  0.22261841567E+03  0.22476462140E+03  0.00000000000E+00 0. -1.
        -12    1    6    6    0    0 -0.49849292727E+02  0.76918704062E+01  0.11370044676E+03  0.12438612644E+03  0.00000000000E+00 0.  1.
</event>
<event>
12    1  0.8052519E-002  0.2115670E+03  0.7818608E-02  0.1141078E+00
         21   -1    0    0  503  502  0.00000000000E+00  0.00000000000E+00  0.10022443579E+03  0.10022443579E+03  0.00000000000E+00 0. -1.
         21   -1    0    0  501  503 -0.00000000000E+00 -0.00000000000E+00 -0.45306111829E+03  0.45306111829E+03  0.00000000000E+00 0. -1.
          6    2    1    2  501    0  0.99140093914E+02 -0.72884831253E+02 -0.22724549660E+03  0.31048531066E+03  0.17210361868E+03 0.  0.
         24    2    3    3    0    0  0.61447328585E+02 -0.52216029120E+02 -0.24032213401E+03  0.26530752424E+03  0.78301126662E+02 0.  0.
         -6    2    1    2    0  502 -0.99140093914E+02  0.72884831253E+02 -0.12559118590E+03  0.24280024343E+03  0.16744508169E+03 0.  0.
        -24    2    5    5    0    0 -0.11258600699E+03  0.71287202591E+02 -0.46298057616E+02  0.16222211247E+03  0.80093878728E+02 0.  0.
          5    1    3    3  501    0  0.37692765329E+02 -0.20668802133E+02  0.13076637413E+02  0.45177786419E+02  0.47000000000E+01 0. -1.
        -11    1    4    4    0    0  0.20015717385E+02 -0.12748316252E+01 -0.16140114706E+03  0.16264250493E+03  0.00000000000E+00 0.  1.
         12    1    4    4    0    0  0.41431611200E+02 -0.50941197495E+02 -0.78920986953E+02  0.10266501931E+03  0.00000000000E+00 0. -1.
         -5    1    5    5    0  502  0.13445913079E+02  0.15976286615E+01 -0.79293128284E+02  0.80578130960E+02  0.47000000000E+01 0.  1.
         13    1    6    6    0    0 -0.28153922771E+02  0.22197834371E+02 -0.53377473677E+02  0.64300403686E+02  0.00000000000E+00 0. -1.
        -14    1    6    6    0    0 -0.84432084222E+02  0.49089368221E+02  0.70794160604E+01  0.97921708779E+02  0.00000000000E+00 0.  1.
</event>
<event>
12    1  0.8052519E-002  0.3003915E+03  0.7818608E-02  0.1085131E+00
         21   -1    0    0  501  502  0.00000000000E+00  0.00000000000E+00  0.13617073689E+03  0.13617073689E+03  0.00000000000E+00 0.  1.
         21   -1    0    0  502  503 -0.00000000000E+00 -0.00000000000E+00 -0.66334505332E+03  0.66334505332E+03  0.00000000000E+00 0.  1.
         -6    2    1    2    0  503  0.35916817527E+02  0.24330193195E+03 -0.24029791333E+03  0.38414475715E+03  0.17128414819E+03 0.  0.
        -24    2    3    3    0    0 -0.73140101441E+01  0.62408076960E+02 -0.14065236382E+03  0.17309306497E+03  0.78929455075E+02 0.  0.
          6    2    1    2  501    0 -0.35916817527E+02 -0.24330193195E+03 -0.28687640311E+03  0.41537103306E+03  0.17247949609E+03 0.  0.
         24    2    5    5    0    0 -0.85585767342E+02 -0.18181670092E+03 -0.23263209379E+03  0.31939200773E+03  0.86667913508E+02 0.  0.
          5    1    5    5  501    0  0.49668949815E+02 -0.61485231030E+02 -0.54244309316E+02  0.95979025333E+02  0.47000000000E+01 0. -1.
        -11    1    6    6    0    0 -0.73402559904E+02 -0.96755157373E+02 -0.18454728115E+03  0.22092350545E+03  0.00000000000E+00 0.  1.
         12    1    6    6    0    0 -0.12183207438E+02 -0.85061543548E+02 -0.48084812639E+02  0.98468502278E+02  0.00000000000E+00 0. -1.
         -5    1    3    3    0  503  0.43230827671E+02  0.18089385499E+03 -0.99645549511E+02  0.21105169218E+03  0.47000000000E+01 0.  1.
         13    1    4    4    0    0  0.48761669937E+01 -0.17246784464E+02 -0.13027334501E+02  0.22157166405E+02  0.00000000000E+00 0. -1.
        -14    1    4    4    0    0 -0.12190177138E+02  0.79654861424E+02 -0.12762502931E+03  0.15093589856E+03  0.00000000000E+00 0.  1.
</event>
<event>
12    1  0.8052519E-002  0.1962153E+03  0.7818608E-02  0.1153564E+00
         21   -1    0    0  501  502  0.00000000000E+00  0.00000000000E+00  0.18651527727E+03  0.18651527727E+03  0.00000000000E+00 0. -1.
         21   -1    0    0  502  503 -0.00000000000E+00 -0.00000000000E+00 -0.39535164055E+03  0.39535164055E+03  0.00000000000E+00 0. -1.
         -6    2    1    2    0  503  0.75621717650E+02 -0.45951705242E+02 -0.30667161564E+03  0.36261325987E+03  0.17207757843E+03 0.  0.
        -24    2    3    3    0    0  0.56423419243E+02 -0.88008901689E+02 -0.13924100876E+03  0.18885342402E+03  0.73132675514E+02 0.  0.
          6    2    1    2  501    0 -0.75621717650E+02  0.45951705242E+02  0.97835252363E+02  0.21925365796E+03  0.17512917098E+03 0.  0.
         24    2    5    5    0    0 -0.11461591082E+03  0.38156567972E+01  0.56461076013E+02  0.14833182670E+03  0.75253647475E+02 0.  0.
          5    1    5    5  501    0  0.38994193172E+02  0.42136048445E+02  0.41374176351E+02  0.70921831254E+02  0.47000000000E+01 0. -1.
        -13    1    6    6    0    0 -0.18011413586E+01 -0.20946266129E+02  0.14073036885E+02  0.25299022553E+02  0.00000000000E+00 0.  1.
         14    1    6    6    0    0 -0.11281476946E+03  0.24761922927E+02  0.42388039128E+02  0.12303280415E+03  0.00000000000E+00 0. -1.
         -5    1    3    3    0  503  0.19198298406E+02  0.42057196446E+02 -0.16743060687E+03  0.17375983585E+03  0.47000000000E+01 0.  1.
         11    1    4    4    0    0  0.10846702634E+01 -0.41068835513E+02 -0.95901613759E+02  0.10433094115E+03  0.00000000000E+00 0. -1.
        -12    1    4    4    0    0  0.55338748980E+02 -0.46940066176E+02 -0.43339395005E+02  0.84522482871E+02  0.00000000000E+00 0.  1.
</event>
<event>
12    1  0.8052519E-002  0.1943610E+03  0.7818608E-02  0.1159936E+00
         21   -1    0    0  503  502  0.00000000000E+00  0.00000000000E+00  0.76604519807E+03  0.76604519807E+03  0.00000000000E+00 0.  1.
         21   -1    0    0  501  503 -0.00000000000E+00 -0.00000000000E+00 -0.57791186078E+02  0.57791186078E+02  0.00000000000E+00 0.  1.
          6    2    1    2  501    0  0.13575710725E+01  0.23583373886E+02  0.13417268288E+03  0.21774598648E+03  0.16986167100E+03 0.  0.
         24    2    3    3    0    0  0.42710282505E+02 -0.18226626694E+02  0.33180175695E+02  0.10078573940E+03  0.83069025843E+02 0.  0.
         -6    2    1    2    0  502 -0.13575710725E+01 -0.23583373886E+02  0.57408132911E+03  0.60609039766E+03  0.19292013679E+03 0.  0.
        -24    2    5    5    0    0 -0.80858557388E+02 -0.11460395965E+02  0.36029404898E+03  0.37762931877E+03  0.78247387756E+02 0.  0.
          5    1    3    3  501    0 -0.41352711432E+02  0.41810000580E+02  0.10099250718E+03  0.11696024709E+03  0.47000000000E+01 0. -1.
        -13    1    4    4    0    0 -0.92308928474E+01 -0.38204233503E+02  0.10425415694E+02  0.40662785599E+02  0.00000000000E+00 0.  1.
         14    1    4    4    0    0  0.51941175352E+02  0.19977606809E+02  0.22754760001E+02  0.60122953799E+02  0.00000000000E+00 0. -1.
         -5    1    5    5    0  502  0.79500986316E+02 -0.12122977921E+02  0.21378728014E+03  0.22846107889E+03  0.47000000000E+01 0.  1.
         11    1    6    6    0    0 -0.85828970645E+02 -0.87750353522E+01  0.20738002889E+03  0.22461097442E+03  0.00000000000E+00 0. -1.
        -12    1    6    6    0    0  0.49704132568E+01 -0.26853606125E+01  0.15291402009E+03  0.15301834436E+03  0.00000000000E+00 0.  1.
</event>
<event>
12    1  0.8052519E-002  0.2176048E+03  0.7818608E-02  0.1136446E+00
         21   -1    0    0  503  502  0.00000000000E+00  0.00000000000E+00  0.20525687405E+03  0.20525687405E+03  0.00000000000E+00 0.  1.
         21   -1    0    0  501  503 -0.00000000000E+00 -0.00000000000E+00 -0.22678973297E+03  0.22678973297E+03  0.00000000000E+00 0.  1.
          6    2    1    2  501    0  0.30407026567E+02  0.12410393086E+03 -0.25359080011E+01  0.21361412427E+03  0.17116714152E+03 0.  0.
         24    2    3    3    0    0 -0.21432303433E+00  0.15168986590E+03 -0.17234600092E+01  0.17212435523E+03  0.81326268806E+02 0.  0.
         -6    2    1    2    0  502 -0.30407026567E+02 -0.12410393086E+03 -0.18996950924E+02  0.21843248276E+03  0.17614054746E+03 0.  0.
        -24    2    5    5    0    0  0.35563083121E+02 -0.14947344427E+02 -0.23127979310E+02  0.90736080575E+02  0.78803406682E+02 0.  0.
          5    1    3    3  501    0  0.30621349601E+02 -0.27585935033E+02 -0.81244799193E+00  0.41489769038E+02  0.47000000000E+01 0. -1.
        -11    1    4    4    0    0 -0.30176055365E+02  0.13268152242E+03 -0.70088767646E+01  0.13625015620E+03  0.00000000000E+00 0.  1.
         12    1    4    4    0    0  0.29961732331E+02  0.19008343474E+02  0.52854167554E+01  0.35874199032E+02  0.00000000000E+00 0. -1.
         -5    1    5    5    0  502 -0.65970109687E+02 -0.10915658644E+03  0.41310283856E+01  0.12769640218E+03  0.47000000000E+01 0.  1.
         13    1    6    6    0    0 -0.19189811521E+02  0.10879555998E+02  0.69621509785E+01  0.23131907642E+02  0.00000000000E+00 0. -1.
        -14    1    6    6    0    0  0.54752894642E+02 -0.25826900425E+02 -0.30090130288E+02  0.67604172933E+02  0.00000000000E+00 0.  1.
</event>
<event>
12    1  0.8052519E-002  0.2052268E+03  0.7818608E-02  0.1146630E+00
         21   -1    0    0  501  502  0.00000000000E+00  0.00000000000E+00  0.58596854588E+03  0.58596854588E+03  0.00000000000E+00 0.  1.
         21   -1    0    0  502  503 -0.00000000000E+00 -0.00000000000E+00 -0.82471290070E+03  0.82471290070E+03  0.00000000000E+00 0.  1.
         -6    2    1    2    0  503 -0.11155993376E+03 -0.64987241903E+01 -0.79433866233E+03  0.82042181543E+03  0.17213422821E+03 0.  0.
        -24    2    3    3    0    0 -0.65669414581E+02  0.54345048228E+02 -0.58284687358E+03  0.59556903892E+03  0.87898497179E+02 0.  0.
          6    2    1    2  501    0  0.11155993376E+03  0.64987241903E+01  0.55559430750E+03  0.59025963116E+03  0.16502589316E+03 0.  0.
         24    2    5    5    0    0  0.55039644764E+02  0.65684276145E+02  0.31686525211E+03  0.33784900437E+03  0.79966087378E+02 0.  0.
          5    1    5    5  501    0  0.56520288997E+02 -0.59185551955E+02  0.23872905539E+03  0.25241062679E+03  0.47000000000E+01 0. -1.
        -11    1    6    6    0    0  0.32734410954E+02  0.57769300506E+02  0.30347875565E+03  0.31065767152E+03  0.00000000000E+00 0.  1.
         12    1    6    6    0    0  0.22305233809E+02  0.79149756398E+01  0.13386496453E+02  0.27191332846E+02  0.00000000000E+00 0. -1.
         -5    1    3    3    0  503 -0.45890519180E+02 -0.60843772418E+02 -0.21149178875E+03  0.22485277650E+03  0.47000000000E+01 0.  1.
         11    1    4    4    0    0 -0.12153060595E+02  0.53281336103E+02 -0.15429585184E+03  0.16368814115E+03  0.00000000000E+00 0. -1.
        -12    1    4    4    0    0 -0.53516353986E+02  0.10637121254E+01 -0.42855102174E+03  0.43188089777E+03  0.00000000000E+00 0.  1.
</event>
<event>
12    1  0.8052519E-002  0.2055110E+03  0.7818608E-02  0.1145203E+00
         21   -1    0    0  503  502  0.00000000000E+00  0.00000000000E+00  0.16616335743E+04  0.16616335743E+04  0.00000000000E+00 0. -1.
         21   -1    0    0  501  503 -0.00000000000E+00 -0.00000000000E+00 -0.46493249515E+02  0.46493249515E+02  0.00000000000E+00 0. -1.
          6    2    1    2  501    0 -0.10208463362E+03 -0.50905611079E+02  0.23211467504E+03  0.30991556422E+03  0.17075649598E+03 0.  0.
         24    2    3    3    0    0  0.29480483102E+01 -0.19015359801E+02  0.15516076649E+03  0.17577814797E+03  0.80329440103E+02 0.  0.
         -6    2    1    2    0  502  0.10208463362E+03  0.50905611079E+02  0.13830256498E+04  0.13982112596E+04  0.17094480085E+03 0.  0.
        -24    2    5    5    0    0  0.89135821625E+02  0.82294409108E+02  0.13049188275E+04  0.13129135805E+04  0.78812176055E+02 0.  0.
          5    1    3    3  501    0 -0.10503268193E+03 -0.31890251279E+02  0.76953908547E+02  0.13413741626E+03  0.47000000000E+01 0. -1.
        -11    1    4    4    0    0  0.25776687263E+00 -0.39210698826E+02  0.14960804283E+03  0.15466128095E+03  0.00000000000E+00 0.  1.
         12    1    4    4    0    0  0.26902814376E+01  0.20195339026E+02  0.55527236653E+01  0.21116867019E+02  0.00000000000E+00 0. -1.
         -5    1    5    5    0  502  0.12948811991E+02 -0.31388798029E+02  0.78106822294E+02  0.85297679116E+02  0.47000000000E+01 0.  1.
         11    1    6    6    0    0  0.34372208479E+02 -0.54633201653E+01  0.52688927097E+03  0.52803749909E+03  0.00000000000E+00 0. -1.
        -12    1    6    6    0    0  0.54763613146E+02  0.87757729273E+02  0.77802955649E+03  0.78487608139E+03  0.00000000000E+00 0.  1.
</event>
<event>
12    1  0.8052519E-002  0.1954654E+03  0.7818608E-02  0.1153771E+00
         21   -1    0    0  501  502  0.00000000000E+00  0.00000000000E+00  0.31100803551E+02  0.31100803551E+02  0.00000000000E+00 0.  1.
         21   -1    0    0  502  503 -0.00000000000E+00 -0.00000000000E+00 -0.12242209632E+04  0.12242209632E+04  0.00000000000E+00 0.  1.
         -6    2    1    2    0  503 -0.88832711921E+02 -0.17372857228E+02 -0.59388884760E+03  0.62522851795E+03  0.17324453665E+03 0.  0.
        -24    2    3    3    0    0 -0.19632191848E+02 -0.45330477513E+01 -0.50557022507E+03  0.51219824868E+03  0.79622999154E+02 0.  0.
          6    2    1    2  501    0  0.88832711921E+02  0.17372857228E+02 -0.59923131204E+03  0.63009324879E+03  0.17247106994E+03 0.  0.
         24    2    5    5    0    0  0.44615260075E+02 -0.15246770571E+02 -0.14622516973E+03  0.17374264001E+03  0.81127795793E+02 0.  0.
          5    1    5    5  501    0  0.44217451846E+02  0.32619627800E+02 -0.45300614231E+03  0.45635060878E+03  0.47000000000E+01 0. -1.
        -11    1    6    6    0    0  0.20233881188E+02 -0.62964107327E+01 -0.14624300204E+03  0.14777032984E+03  0.00000000000E+00 0.  1.
         12    1    6    6    0    0  0.24381378887E+02 -0.89503598388E+01  0.17832304563E-01  0.25972310172E+02  0.00000000000E+00 0. -1.
         -5    1    3    3    0  503 -0.69200520072E+02 -0.12839809477E+02 -0.88318622523E+02  0.11303026926E+03  0.47000000000E+01 0.  1.
         13    1    4    4    0    0 -0.18340903300E+02  0.31881531818E+02 -0.36976365684E+03  0.37158845882E+03  0.00000000000E+00 0. -1.
        -14    1    4    4    0    0 -0.12912885479E+01 -0.36414579569E+02 -0.13580656823E+03  0.14060978987E+03  0.00000000000E+00 0.  1.
</event>
<event>
12    1  0.8052519E-002  0.1797706E+03  0.7818608E-02  0.1168581E+00
         21   -1    0    0  501  502  0.00000000000E+00  0.00000000000E+00  0.98910101463E+03  0.98910101463E+03  0.00000000000E+00 0. -1.
         21   -1    0    0  502  503 -0.00000000000E+00 -0.00000000000E+00 -0.40269092399E+02  0.40269092399E+02  0.00000000000E+00 0. -1.
         -6    2    1    2    0  503 -0.25048248689E+02  0.43264055944E+02  0.24247305068E+03  0.30049404168E+03  0.17030647515E+03 0.  0.
        -24    2    3    3    0    0 -0.12660596444E+02  0.27150971302E+02  0.25966668364E+03  0.27346079476E+03  0.80352683412E+02 0.  0.
          6    2    1    2  501    0  0.25048248689E+02 -0.43264055944E+02  0.70635887155E+03  0.72887606535E+03  0.17267967433E+03 0.  0.
         24    2    5    5    0    0  0.16050334777E+02  0.33725194014E+02  0.22748225030E+03  0.24374390249E+03  0.79170157521E+02 0.  0.
          5    1    5    5  501    0  0.89979139114E+01 -0.76989249958E+02  0.47887662125E+03  0.48513216286E+03  0.47000000000E+01 0. -1.
        -13    1    6    6    0    0  0.36894119641E+02  0.75247355225E+01  0.47199626744E+02  0.60378824712E+02  0.00000000000E+00 0.  1.
         14    1    6    6    0    0 -0.20843784864E+02  0.26200458492E+02  0.18028262356E+03  0.18336507778E+03  0.00000000000E+00 0. -1.
         -5    1    3    3    0  503 -0.12387652245E+02  0.16113084642E+02 -0.17193632958E+02  0.27033246921E+02  0.47000000000E+01 0.  1.
         13    1    4    4    0    0 -0.16982931087E+02  0.31982273768E+02  0.41014996889E+02  0.54713030929E+02  0.00000000000E+00 0. -1.
        -14    1    4    4    0    0  0.43223346426E+01 -0.48313024665E+01  0.21865168675E+03  0.21874776383E+03  0.00000000000E+00 0.  1.
</event>
<event>
12    1  0.8052519E-002  0.2075781E+03  0.7818608E-02  0.1143674E+00
         21   -1    0    0  501  502  0.00000000000E+00  0.00000000000E+00  0.88297559337E+03  0.88297559337E+03  0.00000000000E+00 0. -1.
         21   -1    0    0  502  503 -0.00000000000E+00 -0.00000000000E+00 -0.50419852606E+02  0.50419852606E+02  0.00000000000E+00 0.  1.
         -6    2    1    2    0  503 -0.57995322400E+02  0.10067907768E+03  0.50421788398E+03  0.54494416202E+03  0.17096412225E+03 0.  0.
        -24    2    3    3    0    0  0.23122964207E+02  0.16299637592E+02  0.14699175277E+03  0.16900179257E+03  0.78451774043E+02 0.  0.
          6    2    1    2  501    0  0.57995322400E+02 -0.10067907768E+03  0.32833785679E+03  0.38845128395E+03  0.17201429505E+03 0.  0.
         24    2    5    5    0    0 -0.29819004745E+02 -0.48301097137E+02  0.21330878964E+03  0.23447535991E+03  0.79094156778E+02 0.  0.
          5    1    5    5  501    0  0.87814327146E+02 -0.52377980542E+02  0.11502906715E+03  0.15397592405E+03  0.47000000000E+01 0. -1.
        -13    1    6    6    0    0 -0.13728328644E+02 -0.62759265139E+02  0.19749005051E+03  0.20767646092E+03  0.00000000000E+00 0.  1.
         14    1    6    6    0    0 -0.16090676101E+02  0.14458168002E+02  0.15818739129E+02  0.26798898988E+02  0.00000000000E+00 0. -1.
         -5    1    3    3    0  503 -0.81118286608E+02  0.84379440087E+02  0.35722613121E+03  0.37594236945E+03  0.47000000000E+01 0.  1.
         11    1    4    4    0    0  0.28672604924E+02  0.17832021975E+02  0.15528078749E+03  0.15890947814E+03  0.00000000000E+00 0. -1.
        -12    1    4    4    0    0 -0.55496407170E+01 -0.15323843831E+01 -0.82890347172E+01  0.10092314429E+02  0.00000000000E+00 0.  1.
</event>
<event>
12    1  0.8052519E-002  0.7000080E+03  0.7818608E-02  0.9717724E-01
         21   -1    0    0  501  502  0.00000000000E+00  0.00000000000E+00  0.61643622430E+03  0.61643622430E+03  0.00000000000E+00 0.  1.
         21   -1    0    0  502  503 -0.00000000000E+00 -0.00000000000E+00 -0.96187439294E+03  0.96187439294E+03  0.00000000000E+00 0. -1.
         -6    2    1    2    0  503 -0.64959861699E+03 -0.19270593116E+03 -0.50270283987E+03  0.86085438413E+03  0.17101516414E+03 0.  0.
        -24    2    3    3    0    0 -0.61529517238E+03 -0.14074743613E+03 -0.45919089155E+03  0.78475056580E+03  0.81112179826E+02 0.  0.
          6    2    1    2  501    0  0.64959861699E+03  0.19270593116E+03  0.15726467122E+03  0.71745623311E+03  0.17577636507E+03 0.  0.
         24    2    5    5    0    0  0.25441587062E+03  0.13988773997E+03  0.81599994647E+02  0.31161587332E+03  0.78421160187E+02 0.  0.
          5    1    5    5  501    0  0.39518274637E+03  0.52818191192E+02  0.75664676572E+02  0.40584035979E+03  0.47000000000E+01 0. -1.
        -13    1    6    6    0    0  0.18857193255E+03  0.77176081213E+02  0.84643250237E+02  0.22063544834E+03  0.00000000000E+00 0.  1.
         14    1    6    6    0    0  0.65843938071E+02  0.62711658757E+02 -0.30432555904E+01  0.90980424979E+02  0.00000000000E+00 0. -1.
         -5    1    3    3    0  503 -0.34303444614E+02 -0.51958495027E+02 -0.43511948319E+02  0.76103818330E+02  0.47000000000E+01 0.  1.
         11    1    4    4    0    0 -0.26449782424E+03 -0.80154993355E+02 -0.15741957948E+03  0.31806421677E+03  0.00000000000E+00 0. -1.
        -12    1    4    4    0    0 -0.35079734813E+03 -0.60592442779E+02 -0.30177131207E+03  0.46668634903E+03  0.00000000000E+00 0.  1.
</event>
<event>
12    1  0.8052519E-002  0.1993836E+03  0.7818608E-02  0.1151497E+00
         21   -1    0    0  503  502  0.00000000000E+00  0.00000000000E+00  0.63513643430E+02  0.63513643430E+02  0.00000000000E+00 0.  1.
         21   -1    0    0  501  503 -0.00000000000E+00 -0.00000000000E+00 -0.68323526678E+03  0.68323526678E+03  0.00000000000E+00 0.  1.
          6    2    1    2  501    0 -0.86012574825E+02 -0.49145879963E+02 -0.42972010019E+03  0.47133215565E+03  0.16637654852E+03 0.  0.
         24    2    3    3    0    0 -0.81188112926E+01 -0.56322735037E+01 -0.31742491228E+03  0.32782894463E+03  0.81336365812E+02 0.  0.
         -6    2    1    2    0  502  0.86012574825E+02  0.49145879963E+02 -0.19000152316E+03  0.27541675456E+03  0.17303274067E+03 0.  0.
        -24    2    5    5    0    0  0.11414388918E+03  0.44532696421E+02 -0.19746061705E+03  0.24557751208E+03  0.79408001277E+02 0.  0.
          5    1    3    3  501    0 -0.77893763532E+02 -0.43513606460E+02 -0.11229518792E+03  0.14350321102E+03  0.47000000000E+01 0. -1.
        -11    1    4    4    0    0  0.15889329564E+02 -0.34445165767E+02 -0.22344455555E+03  0.22664158851E+03  0.00000000000E+00 0.  1.
         12    1    4    4    0    0 -0.24008140857E+02  0.28812892264E+02 -0.93980356723E+02  0.10118735612E+03  0.00000000000E+00 0. -1.
         -5    1    5    5    0  502 -0.28131314357E+02  0.46131835424E+01  0.74590938900E+01  0.29839242476E+02  0.47000000000E+01 0.  1.
         11    1    6    6    0    0  0.75794053591E+02 -0.11816075442E+02 -0.89210511506E+02  0.11765574173E+03  0.00000000000E+00 0. -1.
        -12    1    6    6    0    0  0.38349835592E+02  0.56348771863E+02 -0.10825010554E+03  0.12792177035E+03  0.00000000000E+00 0.  1.
</event>
<event>
12    1  0.8052519E-002  0.1752407E+03  0.7818608E-02  0.1172614E+00
         21   -1    0    0  501  502  0.00000000000E+00  0.00000000000E+00  0.15113088709E+03  0.15113088709E+03  0.00000000000E+00 0. -1.
         21   -1    0    0  502  503 -0.00000000000E+00 -0.00000000000E+00 -0.41479563392E+03  0.41479563392E+03  0.00000000000E+00 0. -1.
         -6    2    1    2    0  503 -0.30469178506E+02  0.71589918891E+01 -0.33411606970E+03  0.37705437275E+03  0.17192099922E+03 0.  0.
        -24    2    3    3    0    0 -0.16546628519E+02  0.58361963940E+02 -0.12322798459E+03  0.15954240484E+03  0.81171010860E+02 0.  0.
          6    2    1    2  501    0  0.30469178506E+02 -0.71589918891E+01  0.70451322874E+02  0.18887214826E+03  0.17242296103E+03 0.  0.
         24    2    5    5    0    0 -0.38845475806E+02  0.17286900516E+02  0.69862790387E+02  0.11522054048E+03  0.81161293406E+02 0.  0.
          5    1    5    5  501    0  0.69314654312E+02 -0.24445892405E+02  0.58853248661E+00  0.73651607778E+02  0.47000000000E+01 0. -1.
        -11    1    6    6    0    0 -0.49227117735E+02 -0.11903237130E+02  0.16052740972E+02  0.53128962604E+02  0.00000000000E+00 0.  1.
         12    1    6    6    0    0  0.10381641929E+02  0.29190137646E+02  0.53810049415E+02  0.62091577874E+02  0.00000000000E+00 0. -1.
         -5    1    3    3    0  503 -0.13922549987E+02 -0.51202972051E+02 -0.21088808511E+03  0.21751196791E+03  0.47000000000E+01 0.  1.
         13    1    4    4    0    0  0.13520329608E+02  0.25438535670E+02 -0.10899680660E+03  0.11273962151E+03  0.00000000000E+00 0. -1.
        -14    1    4    4    0    0 -0.30066958127E+02  0.32923428270E+02 -0.14231177996E+02  0.46802783328E+02  0.00000000000E+00 0.  1.
</event>
<event>
12    1  0.8052519E-002  0.1927138E+03  0.7818608E-02  0.1158878E+00
         21   -1    0    0  503  502  0.00000000000E+00  0.00000000000E+00  0.31226583245E+02  0.31226583245E+02  0.00000000000E+00 0.  1.
         21   -1    0    0  501  503 -0.00000000000E+00 -0.00000000000E+00 -0.15192708545E+04  0.15192708545E+04  0.00000000000E+00 0.  1.
          6    2    1    2  501    0  0.31346875959E+02 -0.67917771381E+02 -0.11623309060E+04  0.11781985222E+04  0.17760397632E+03 0.  0.
         24    2    3    3    0    0  0.44735497782E+02  0.27336200173E+02 -0.61431765066E+03  0.62178752995E+03  0.80529645965E+02 0.  0.
         -6    2    1    2    0  502 -0.31346875959E+02  0.67917771381E+02 -0.32571336528E+03  0.37229891556E+03  0.16407874908E+03 0.  0.
        -24    2    5    5    0    0 -0.31309845328E+02  0.93346188873E+02 -0.32253609981E+03  0.34624530154E+03  0.78501310601E+02 0.  0.
          5    1    3    3  501    0 -0.13388621823E+02 -0.95253971554E+02 -0.54801325532E+03  0.55641099225E+03  0.47000000000E+01 0. -1.
        -11    1    4    4    0    0 -0.17376997753E+02  0.24682924884E+01 -0.29572783292E+03  0.29624821296E+03  0.00000000000E+00 0.  1.
         12    1    4    4    0    0  0.62112495535E+02  0.24867907685E+02 -0.31858981774E+03  0.32553931699E+03  0.00000000000E+00 0. -1.
         -5    1    5    5    0  502 -0.37030630762E-01 -0.25428417492E+02 -0.31772654711E+01  0.26053614016E+02  0.47000000000E+01 0.  1.
         13    1    6    6    0    0  0.92826919672E+01  0.82105297664E+02 -0.23498663049E+03  0.24909067583E+03  0.00000000000E+00 0. -1.
        -14    1    6    6    0    0 -0.40592537295E+02  0.11240891209E+02 -0.87549469321E+02  0.97154625714E+02  0.00000000000E+00 0.  1.
</event>
<event>
12    1  0.8052519E-002  0.1782539E+03  0.7818608E-02  0.1169554E+00
         21   -1    0    0  501  502  0.00000000000E+00  0.00000000000E+00  0.11995795040E+03  0.11995795040E+03  0.00000000000E+00 0. -1.
         21   -1    0    0  502  503 -0.00000000000E+00 -0.00000000000E+00 -0.52984013031E+03  0.52984013031E+03  0.00000000000E+00 0. -1.
         -6    2    1    2    0  503 -0.82611143195E+01  0.46891964139E+02 -0.43488869283E+03  0.47000280754E+03  0.17177706957E+03 0.  0.
        -24    2    3    3    0    0 -0.35977490733E+02 -0.99616321040E+01 -0.11958786117E+03  0.14838621379E+03  0.79521053503E+02 0.  0.
          6    2    1    2  501    0  0.82611143195E+01 -0.46891964139E+02  0.25006512927E+02  0.17979527317E+03  0.17156314364E+03 0.  0.
         24    2    5    5    0    0 -0.14685534394E+02  0.80477750540E+01  0.67146181398E+02  0.10670105118E+03  0.81216211700E+02 0.  0.
          5    1    5    5  501    0  0.22946648713E+02 -0.54939739193E+02 -0.42139668471E+02  0.73094221992E+02  0.47000000000E+01 0. -1.
        -13    1    6    6    0    0 -0.25569602162E+02 -0.16651355985E+02 -0.38423838699E+01  0.30754448860E+02  0.00000000000E+00 0.  1.
         14    1    6    6    0    0  0.10884067768E+02  0.24699131039E+02  0.70988565268E+02  0.75946602321E+02  0.00000000000E+00 0. -1.
         -5    1    3    3    0  503  0.27716376414E+02  0.56853596243E+02 -0.31530083166E+03  0.32161659375E+03  0.47000000000E+01 0.  1.
         13    1    4    4    0    0 -0.54124580056E+02  0.64530177201E+01 -0.47644907050E+02  0.72395778687E+02  0.00000000000E+00 0. -1.
        -14    1    4    4    0    0  0.18147089323E+02 -0.16414649824E+02 -0.71942954117E+02  0.75990435101E+02  0.00000000000E+00 0.  1.
</event>
<event>
12    1  0.8052519E-002  0.2217443E+03  0.7818608E-02  0.1133831E+00
         21   -1    0    0  501  502  0.00000000000E+00  0.00000000000E+00  0.67286108396E+03  0.67286108396E+03  0.00000000000E+00 0. -1.
         21   -1    0    0  502  503 -0.00000000000E+00 -0.00000000000E+00 -0.81782199279E+02  0.81782199279E+02  0.00000000000E+00 0.  1.
         -6    2    1    2    0  503  0.11240018892E+03 -0.63706984465E+02  0.42921400192E+03  0.48010588750E+03  0.17200180648E+03 0.  0.
        -24    2    3    3    0    0  0.41480099531E+02 -0.99595462434E+02  0.29954500329E+03  0.32794222188E+03  0.78606851492E+02 0.  0.
          6    2    1    2  501    0 -0.11240018892E+03  0.63706984465E+02  0.16186488276E+03  0.27453739574E+03  0.18021697769E+03 0.  0.
         24    2    5    5    0    0 -0.11404814083E+03  0.10690965165E+03  0.14567675950E+03  0.22813339233E+03  0.79915420267E+02 0.  0.
          5    1    5    5  501    0  0.16479519071E+01 -0.43202667183E+02  0.16188123264E+02  0.46404003405E+02  0.47000000000E+01 0. -1.
        -13    1    6    6    0    0 -0.34042612784E+02  0.45307909751E+02  0.77544107454E+01  0.57199974276E+02  0.00000000000E+00 0.  1.
         14    1    6    6    0    0 -0.80005528045E+02  0.61601741896E+02  0.13792234875E+03  0.17093341805E+03  0.00000000000E+00 0. -1.
         -5    1    3    3    0  503  0.70920089391E+02  0.35888477969E+02  0.12966899863E+03  0.15216366562E+03  0.47000000000E+01 0.  1.
         11    1    4    4    0    0 -0.17602879231E+02 -0.40029070250E+02  0.60856659036E+02  0.74938112942E+02  0.00000000000E+00 0. -1.
        -12    1    4    4    0    0  0.59082978761E+02 -0.59566392185E+02  0.23868834425E+03  0.25300410894E+03  0.00000000000E+00 0.  1.
</event>
<event>
12    1  0.8052519E-002  0.1829174E+03  0.7818608E-02  0.1166550E+00
         21   -1    0    0  503  502  0.00000000000E+00  0.00000000000E+00  0.19607348480E+03  0.19607348480E+03  0.00000000000E+00 0.  1.
         21   -1    0    0  501  503 -0.00000000000E+00 -0.00000000000E+00 -0.16491969517E+03  0.16491969517E+03  0.00000000000E+00 0.  1.
          6    2    1    2  501    0 -0.26134431370E+02  0.29787737854E+02  0.93985902091E+01  0.17678657055E+03  0.17203150932E+03 0.  0.
         24    2    3    3    0    0  0.29879985289E+01 -0.21058828954E+02 -0.47456574951E+02  0.95005832687E+02  0.79508360103E+02 0.  0.
         -6    2    1    2    0  502  0.26134431370E+02 -0.29787737854E+02  0.21755199429E+02  0.18420660942E+03  0.17857342586E+03 0.  0.
        -24    2    5    5    0    0 -0.48179880185E+02 -0.33450349700E+02 -0.17215887184E+02  0.10008249148E+03  0.79245766955E+02 0.  0.
          5    1    3    3  501    0 -0.29122429899E+02  0.50846566808E+02  0.56855165160E+02  0.81780737859E+02  0.47000000000E+01 0. -1.
        -13    1    4    4    0    0 -0.34287915927E+02 -0.18428561648E+02 -0.41959223574E+02  0.57235037398E+02  0.00000000000E+00 0.  1.
         14    1    4    4    0    0  0.37275914456E+02 -0.26302673057E+01 -0.54973513769E+01  0.37770795289E+02  0.00000000000E+00 0. -1.
         -5    1    5    5    0  502  0.74314311556E+02  0.36626118462E+01  0.38971086613E+02  0.84124117941E+02  0.47000000000E+01 0.  1.
         13    1    6    6    0    0 -0.51372937091E+01  0.20257260869E+02 -0.22922536483E+02  0.31019205073E+02  0.00000000000E+00 0. -1.
        -14    1    6    6    0    0 -0.43042586476E+02 -0.53707610569E+02  0.57066492990E+01  0.69063286411E+02  0.00000000000E+00 0.  1.
</event>
<event>
12    1  0.8052519E-002  0.2020405E+03  0.7818608E-02  0.1148278E+00
         21   -1    0    0  503  502  0.00000000000E+00  0.00000000000E+00  0.44951749912E+02  0.44951749912E+02  0.00000000000E+00 0.  1.
         21   -1    0    0  501  503 -0.00000000000E+00 -0.00000000000E+00 -0.90445544197E+03  0.90445544197E+03  0.00000000000E+00 0.  1.
          6    2    1    2  501    0 -0.82811994274E+02 -0.63788839603E+02 -0.44918873353E+03  0.49204656374E+03  0.17150061253E+03 0.  0.
         24    2    3    3    0    0 -0.10701402097E+03 -0.72941244454E+02 -0.25964109343E+03  0.30068329014E+03  0.78895612978E+02 0.  0.
         -6    2    1    2    0  502  0.82811994274E+02  0.63788839603E+02 -0.41031495852E+03  0.45736062814E+03  0.17289747406E+03 0.  0.
        -24    2    5    5    0    0  0.92980786285E+02 -0.10851243759E+02 -0.29702776713E+03  0.32123339315E+03  0.78754189192E+02 0.  0.
          5    1    3    3  501    0  0.24202026700E+02  0.91524048507E+01 -0.18954764010E+03  0.19136327359E+03  0.47000000000E+01 0. -1.
        -13    1    4    4    0    0 -0.17004524113E+02 -0.45612625789E+02 -0.44822541716E+02  0.66171940561E+02  0.00000000000E+00 0.  1.
         14    1    4    4    0    0 -0.90009496861E+02 -0.27328618665E+02 -0.21481855171E+03  0.23451134958E+03  0.00000000000E+00 0. -1.
         -5    1    5    5    0  502 -0.10168792011E+02  0.74640083361E+02 -0.11328719139E+03  0.13612723500E+03  0.47000000000E+01 0.  1.
         11    1    6    6    0    0  0.74006947163E+02  0.27839258038E+02 -0.18402193354E+03  0.20029010096E+03  0.00000000000E+00 0. -1.
        -12    1    6    6    0    0  0.18973839123E+02 -0.38690501797E+02 -0.11300583359E+03  0.12094329219E+03  0.00000000000E+00 0.  1.
</event>
<event>
12    1  0.8052519E-002  0.1903566E+03  0.7818608E-02  0.1158301E+00
         21   -1    0    0  501  502  0.00000000000E+00  0.00000000000E+00  0.84184681977E+02  0.84184681977E+02  0.00000000000E+00 0. -1.
         21   -1    0    0  502  503 -0.00000000000E+00 -0.00000000000E+00 -0.55869574366E+03  0.55869574366E+03  0.00000000000E+00 0.  1.
         -6    2    1    2    0  503  0.71364156268E+02  0.38254327219E+02 -0.39257853821E+03  0.43629523965E+03  0.17227707663E+03 0.  0.
        -24    2    3    3    0    0  0.40241390905E+02  0.37841043919E+02 -0.86563035555E+02  0.12866498238E+03  0.77525508182E+02 0.  0.
          6    2    1    2  501    0 -0.71364156268E+02 -0.38254327219E+02 -0.81932523476E+02  0.20658518599E+03  0.17148837953E+03 0.  0.
         24    2    5    5    0    0 -0.26509312327E+02  0.42908383172E+02 -0.55515502337E+02  0.11004870796E+03  0.80528716234E+02 0.  0.
          5    1    5    5  501    0 -0.44854843941E+02 -0.81162710391E+02 -0.26417021139E+02  0.96536478022E+02  0.47000000000E+01 0. -1.
        -11    1    6    6    0    0 -0.24893675932E+02 -0.42065323654E+01 -0.57568795573E+02  0.62861405009E+02  0.00000000000E+00 0.  1.
         12    1    6    6    0    0 -0.16156363942E+01  0.47114915537E+02  0.20532932359E+01  0.47187302955E+02  0.00000000000E+00 0. -1.
         -5    1    3    3    0  503  0.31122765363E+02  0.41328330067E+00 -0.30601550266E+03  0.30763025728E+03  0.47000000000E+01 0.  1.
         11    1    4    4    0    0 -0.15943795859E+02  0.19475598572E-01  0.31544997314E+01  0.16252872800E+02  0.00000000000E+00 0. -1.
        -12    1    4    4    0    0  0.56185186764E+02  0.37821568320E+02 -0.89717535286E+02  0.11241210958E+03  0.00000000000E+00 0.  1.
</event>
<event>
12    1  0.8052519E-002  0.2196460E+03  0.7818608E-02  0.1134437E+00
         21   -1    0    0  503  502  0.00000000000E+00  0.00000000000E+00  0.37786511411E+03  0.37786511411E+03  0.00000000000E+00 0.  1.
         21   -1    0    0  501  503 -0.00000000000E+00 -0.00000000000E+00 -0.25666876337E+03  0.25666876337E+03  0.00000000000E+00 0.  1.
          6    2    1    2  501    0 -0.66882637987E+02  0.11755628301E+03 -0.16499271835E+03  0.27471249332E+03  0.17306527653E+03 0.  0.
         24    2    3    3    0    0 -0.44838914918E+02  0.15163227584E+03 -0.14741884960E+03  0.23023744552E+03  0.79209145529E+02 0.  0.
         -6    2    1    2    0  502  0.66882637987E+02 -0.11755628301E+03  0.28618906909E+03  0.35982138416E+03  0.17109786175E+03 0.  0.
        -24    2    5    5    0    0  0.39237569825E+02 -0.62352914235E+02  0.58739514288E+02  0.12409473803E+03  0.80757047177E+02 0.  0.
          5    1    3    3  501    0 -0.22043723070E+02 -0.34075992830E+02 -0.17573868744E+02  0.44475047799E+02  0.47000000000E+01 0. -1.
        -13    1    4    4    0    0 -0.69748664586E+01  0.96580187038E+02 -0.42270871950E+02  0.10565608315E+03  0.00000000000E+00 0.  1.
         14    1    4    4    0    0 -0.37864048459E+02  0.55052088802E+02 -0.10514797765E+03  0.12458136238E+03  0.00000000000E+00 0. -1.
         -5    1    5    5    0  502  0.27645068162E+02 -0.55203368776E+02  0.22744955480E+03  0.23572664613E+03  0.47000000000E+01 0.  1.
         13    1    6    6    0    0 -0.12451959392E+02 -0.13446678309E+02  0.48946403606E+02  0.52264853163E+02  0.00000000000E+00 0. -1.
        -14    1    6    6    0    0  0.51689529217E+02 -0.48906235926E+02  0.97931106821E+01  0.71829884867E+02  0.00000000000E+00 0.  1.
</event>
<event>
12    1  0.8052519E-002  0.2185471E+03  0.7818608E-02  0.1135007E+00
         21   -1    0    0  503  502  0.00000000000E+00  0.00000000000E+00  0.10236255283E+03  0.10236255283E+03  0.00000000000E+00 0. -1.
         21   -1    0    0  501  503 -0.00000000000E+00 -0.00000000000E+00 -0.88375366924E+03  0.88375366924E+03  0.00000000000E+00 0. -1.
          6    2    1    2  501    0  0.12138881164E+03 -0.57006909129E+02 -0.72970109669E+03  0.76172601645E+03  0.17256245924E+03 0.  0.
         24    2    3    3    0    0  0.95528199710E+02 -0.85857065350E+02 -0.68875821612E+03  0.70516178541E+03  0.79800944360E+02 0.  0.
         -6    2    1    2    0  502 -0.12138881164E+03  0.57006909129E+02 -0.51690019707E+02  0.22439020562E+03  0.17231968826E+03 0.  0.
        -24    2    5    5    0    0 -0.12278620457E+03  0.82782311136E+02 -0.79602143123E+02  0.18608223401E+03  0.79754207123E+02 0.  0.
          5    1    3    3  501    0  0.25860611929E+02  0.28850156221E+02 -0.40942880577E+02  0.56564231041E+02  0.47000000000E+01 0. -1.
        -11    1    4    4    0    0  0.17118446293E+02 -0.65027640135E+02 -0.24561937529E+03  0.25465763822E+03  0.00000000000E+00 0.  1.
         12    1    4    4    0    0  0.78409753417E+02 -0.20829425215E+02 -0.44313884083E+03  0.45050414719E+03  0.00000000000E+00 0. -1.
         -5    1    5    5    0  502  0.13973929270E+01 -0.25775402008E+02  0.27912123416E+02  0.38307971615E+02  0.47000000000E+01 0.  1.
         11    1    6    6    0    0 -0.29670248525E+02 -0.13217907924E+02 -0.47712920679E+01  0.32829894386E+02  0.00000000000E+00 0. -1.
        -12    1    6    6    0    0 -0.93115956042E+02  0.96000219060E+02 -0.74830851055E+02  0.15325233962E+03  0.00000000000E+00 0.  1.
</event>
<event>
12    1  0.8052519E-002  0.1733146E+03  0.7818608E-02  0.1174569E+00
         21   -1    0    0  501  502  0.00000000000E+00  0.00000000000E+00  0.26998153975E+03  0.26998153975E+03  0.00000000000E+00 0. -1.
         21   -1    0    0  502  503 -0.00000000000E+00 -0.00000000000E+00 -0.11350971201E+03  0.11350971201E+03  0.00000000000E+00 0. -1.
         -6    2    1    2    0  503 -0.47722775827E+01  0.15442898067E+02  0.49394191029E+02  0.18021583618E+03  0.17255927610E+03 0.  0.
        -24    2    3    3    0    0  0.61617987053E+02 -0.65296003810E+01  0.14180242994E+02  0.10177751606E+03  0.79486926437E+02 0.  0.
          6    2    1    2  501    0  0.47722775827E+01 -0.15442898067E+02  0.10707763671E+03  0.20327541559E+03  0.17202911546E+03 0.  0.
         24    2    5    5    0    0 -0.34223229683E+02 -0.62206144596E+02  0.42638212939E+02  0.11449489887E+03  0.79058401129E+02 0.  0.
          5    1    5    5  501    0  0.38995507266E+02  0.46763246529E+02  0.64439423771E+02  0.88780516718E+02  0.47000000000E+01 0. -1.
        -13    1    6    6    0    0 -0.32468467694E+02 -0.62835103452E+02  0.62596441918E+02  0.94449807628E+02  0.00000000000E+00 0.  1.
         14    1    6    6    0    0 -0.17547619890E+01  0.62895885599E+00 -0.19958228979E+02  0.20045091241E+02  0.00000000000E+00 0. -1.
         -5    1    3    3    0  503 -0.66390264636E+02  0.21972498448E+02  0.35213948035E+02  0.78438320116E+02  0.47000000000E+01 0.  1.
         11    1    4    4    0    0  0.39205115753E+01 -0.34774553851E+02  0.13572402792E+02  0.37534652311E+02  0.00000000000E+00 0. -1.
        -12    1    4    4    0    0  0.57697475478E+02  0.28244953470E+02  0.60784020178E+00  0.64242863750E+02  0.00000000000E+00 0.  1.
</event>
<event>
12    1  0.8052519E-002  0.2145971E+03  0.7818608E-02  0.1138076E+00
         21   -1    0    0  501  502  0.00000000000E+00  0.00000000000E+00  0.54364907243E+02  0.54364907243E+02  0.00000000000E+00 0.  1.
         21   -1    0    0  502  503 -0.00000000000E+00 -0.00000000000E+00 -0.97947965677E+03  0.97947965677E+03  0.00000000000E+00 0.  1.
         -6    2    1    2    0  503  0.95198736495E+02 -0.90287214326E+02 -0.65358206430E+03  0.68774933449E+03  0.16915984103E+03 0.  0.
        -24    2    3    3    0    0  0.10257695121E+03 -0.10991400775E+03 -0.42825165266E+03  0.46139665948E+03  0.82971557523E+02 0.  0.
          6    2    1    2  501    0 -0.95198736495E+02  0.90287214326E+02 -0.27153268523E+03  0.34609522952E+03  0.16981557128E+03 0.  0.
         24    2    5    5    0    0 -0.69797966155E+02 -0.66202419011E+01 -0.18550828484E+03  0.21396445465E+03  0.80323598193E+02 0.  0.
          5    1    5    5  501    0 -0.25400770340E+02  0.96907456227E+02 -0.86024400383E+02  0.13213077487E+03  0.47000000000E+01 0. -1.
        -13    1    6    6    0    0 -0.47664496597E+02 -0.28858833211E+01 -0.29028141666E+02  0.55882605227E+02  0.00000000000E+00 0.  1.
         14    1    6    6    0    0 -0.22133469558E+02 -0.37343585800E+01 -0.15648014318E+03  0.15808184943E+03  0.00000000000E+00 0. -1.
         -5    1    3    3    0  503 -0.73782147150E+01  0.19626793427E+02 -0.22533041165E+03  0.22635267501E+03  0.47000000000E+01 0.  1.
         11    1    4    4    0    0  0.85750911253E+02 -0.78921924862E+02 -0.20873353823E+03  0.23906396421E+03  0.00000000000E+00 0. -1.
        -12    1    4    4    0    0  0.16826039957E+02 -0.30992082891E+02 -0.21951811443E+03  0.22233269527E+03  0.00000000000E+00 0.  1.
</event>
<event>
12    1  0.8052519E-002  0.1930106E+03  0.7818608E-02  0.1155915E+00
         21   -1    0    0  503  502  0.00000000000E+00  0.00000000000E+00  0.26284969329E+03  0.26284969329E+03  0.00000000000E+00 0. -1.
         21   -1    0    0  501  503 -0.00000000000E+00 -0.00000000000E+00 -0.15166882884E+03  0.15166882884E+03  0.00000000000E+00 0. -1.
          6    2    1    2  501    0 -0.87702301069E+02  0.33805738989E+01  0.12072015738E+01  0.19237604321E+03  0.17118400268E+03 0.  0.
         24    2    3    3    0    0  0.45323818432E+01  0.41545015141E+02  0.13984030264E+02  0.91633308194E+02  0.80340396439E+02 0.  0.
         -6    2    1    2    0  502  0.87702301069E+02 -0.33805738989E+01  0.10997366288E+03  0.22214247893E+03  0.17190099629E+03 0.  0.
        -24    2    5    5    0    0  0.81041897583E+02 -0.13290292469E+02  0.14442748772E+03  0.18537674021E+03  0.82224178711E+02 0.  0.
          5    1    3    3  501    0 -0.92234682912E+02 -0.38164441242E+02 -0.12776828691E+02  0.10074273502E+03  0.47000000000E+01 0. -1.
        -11    1    4    4    0    0 -0.33119819975E+02  0.93307432881E+01  0.22834736995E+02  0.41296615589E+02  0.00000000000E+00 0.  1.
         12    1    4    4    0    0  0.37652201818E+02  0.32214271853E+02 -0.88507067311E+01  0.50336692605E+02  0.00000000000E+00 0. -1.
         -5    1    5    5    0  502  0.66604034860E+01  0.99097185697E+01 -0.34453824846E+02  0.36765738715E+02  0.47000000000E+01 0.  1.
         13    1    6    6    0    0  0.63058038826E+02  0.29040275534E+02  0.76066952613E+02  0.10298463547E+03  0.00000000000E+00 0. -1.
        -14    1    6    6    0    0  0.17983858757E+02 -0.42330568002E+02  0.68360535109E+02  0.82392104740E+02  0.00000000000E+00 0.  1.
</event>
<event>
12    1  0.8052519E-002  0.1804906E+03  0.7818608E-02  0.1168994E+00
         21   -1    0    0  501  502  0.00000000000E+00  0.00000000000E+00  0.22515912653E+03  0.22515912653E+03  0.00000000000E+00 0.  1.
         21   -1    0    0  502  503 -0.00000000000E+00 -0.00000000000E+00 -0.26455717172E+03  0.26455717172E+03  0.00000000000E+00 0.  1.
         -6    2    1    2    0  503  0.35161857960E+02  0.40484309318E+02 -0.18795964709E+03  0.25594842234E+03  0.16524354876E+03 0.  0.
        -24    2    3    3    0    0  0.24623356892E+02  0.64779205965E+02 -0.53533501198E+02  0.11885801163E+03  0.80366261256E+02 0.  0.
          6    2    1    2  501    0 -0.35161857960E+02 -0.40484309318E+02  0.14856160190E+03  0.23376787591E+03  0.17234133193E+03 0.  0.
         24    2    5    5    0    0 -0.81360255842E+02 -0.46188171388E+02  0.61549981562E+02  0.13497547700E+03  0.75346803206E+02 0.  0.
          5    1    5    5  501    0  0.46198397882E+02  0.57038620694E+01  0.87011620338E+02  0.98792398914E+02  0.47000000000E+01 0. -1.
        -11    1    6    6    0    0 -0.21576174494E+02 -0.12563540249E+02  0.61510140186E+02  0.66384269184E+02  0.00000000000E+00 0.  1.
         12    1    6    6    0    0 -0.59784081348E+02 -0.33624631139E+02  0.39841375948E-01  0.68591207813E+02  0.00000000000E+00 0. -1.
         -5    1    3    3    0  503  0.10538501068E+02 -0.24294896647E+02 -0.13442614589E+03  0.13709041071E+03  0.47000000000E+01 0.  1.
         13    1    4    4    0    0 -0.24794272580E+02  0.12289910751E+01 -0.66582462569E+01  0.25702113047E+02  0.00000000000E+00 0. -1.
        -14    1    4    4    0    0  0.49417629472E+02  0.63550214890E+02 -0.46875254941E+02  0.93155898584E+02  0.00000000000E+00 0.  1.
</event>
<event>
12    1  0.8052519E-002  0.2171853E+03  0.7818608E-02  0.1136296E+00
         21   -1    0    0  501  502  0.00000000000E+00  0.00000000000E+00  0.26585420682E+03  0.26585420682E+03  0.00000000000E+00 0.  1.
         21   -1    0    0  502  503 -0.00000000000E+00 -0.00000000000E+00 -0.27151214389E+03  0.27151214389E+03  0.00000000000E+00 0.  1.
         -6    2    1    2    0  503  0.25203715752E+02  0.13014587664E+03 -0.16205204899E+03  0.26973122320E+03  0.17006142917E+03 0.  0.
        -24    2    3    3    0    0  0.50420749959E+02  0.63137988033E+02 -0.16369188726E+03  0.19796260179E+03  0.76586553608E+02 0.  0.
          6    2    1    2  501    0 -0.25203715752E+02 -0.13014587664E+03  0.15639411192E+03  0.26763512750E+03  0.17203565541E+03 0.  0.
         24    2    5    5    0    0 -0.68653644240E+02 -0.52879164537E+02  0.75515322862E+02  0.14754553759E+03  0.92507257909E+02 0.  0.
          5    1    5    5  501    0  0.43449928488E+02 -0.77266712107E+02  0.80878789063E+02  0.12008958991E+03  0.47000000000E+01 0. -1.
        -11    1    6    6    0    0  0.32983095662E+01  0.27440931235E+01  0.53895320011E+02  0.54065834056E+02  0.00000000000E+00 0.  1.
         12    1    6    6    0    0 -0.71951953806E+02 -0.55623257661E+02  0.21620002851E+02  0.93479703533E+02  0.00000000000E+00 0. -1.
         -5    1    3    3    0  503 -0.25217034207E+02  0.67007888611E+02  0.16398382615E+01  0.71768621415E+02  0.47000000000E+01 0.  1.
         11    1    4    4    0    0 -0.65939100567E+01 -0.10275875499E+02 -0.34087480536E+01  0.12676467584E+02  0.00000000000E+00 0. -1.
        -12    1    4    4    0    0  0.57014660016E+02  0.73413863532E+02 -0.16028313920E+03  0.18528613420E+03  0.00000000000E+00 0.  1.
</event>
<event>
12    1  0.8052519E-002  0.2059014E+03  0.7818608E-02  0.1145084E+00
         21   -1    0    0  501  502  0.00000000000E+00  0.00000000000E+00  0.70439942119E+03  0.70439942119E+03  0.00000000000E+00 0.  1.
         21   -1    0    0  502  503 -0.00000000000E+00 -0.00000000000E+00 -0.63833673157E+02  0.63833673157E+02  0.00000000000E+00 0.  1.
         -6    2    1    2    0  503 -0.99662566659E+02  0.50701694528E+02  0.41534003575E+03  0.46307408094E+03  0.17154291043E+03 0.  0.
        -24    2    3    3    0    0 -0.84387503550E+02  0.99402223689E+02  0.30704509542E+03  0.34326192298E+03  0.80932096945E+02 0.  0.
          6    2    1    2  501    0  0.99662566659E+02 -0.50701694528E+02  0.22522571228E+03  0.30515901341E+03  0.17289335722E+03 0.  0.
         24    2    5    5    0    0  0.13376917816E+03 -0.62335818885E+02  0.19708124947E+03  0.25919365053E+03  0.80996186582E+02 0.  0.
          5    1    5    5  501    0 -0.34106611501E+02  0.11634124357E+02  0.28144462814E+02  0.45965362880E+02  0.47000000000E+01 0. -1.
        -11    1    6    6    0    0  0.77316600530E+02 -0.46611286125E+02  0.55528345198E+02  0.10598993269E+03  0.00000000000E+00 0.  1.
         12    1    6    6    0    0  0.56452577630E+02 -0.15724532760E+02  0.14155290427E+03  0.15320371784E+03  0.00000000000E+00 0. -1.
         -5    1    3    3    0  503 -0.15275063109E+02 -0.48700529161E+02  0.10829494033E+03  0.11981215796E+03  0.47000000000E+01 0.  1.
         11    1    4    4    0    0  0.11483999113E+02  0.20929564966E+02  0.92335837283E+02  0.95372091159E+02  0.00000000000E+00 0. -1.
        -12    1    4    4    0    0 -0.95871502663E+02  0.78472658723E+02  0.21470925814E+03  0.24788983182E+03  0.00000000000E+00 0.  1.
</event>
<event>
12    1  0.8052519E-002  0.1788918E+03  0.7818608E-02  0.1168912E+00
         21   -1    0    0  503  502  0.00000000000E+00  0.00000000000E+00  0.31919553909E+03  0.31919553909E+03  0.00000000000E+00 0. -1.
         21   -1    0    0  501  503 -0.00000000000E+00 -0.00000000000E+00 -0.10133311158E+03  0.10133311158E+03  0.00000000000E+00 0. -1.
          6    2    1    2  501    0  0.13083458365E+02 -0.45613682325E+02  0.86524592768E+02  0.19860096834E+03  0.17234864251E+03 0.  0.
         24    2    3    3    0    0 -0.22109455331E+02  0.20377097646E+02  0.80305821812E+00  0.84743181161E+02  0.79225675935E+02 0.  0.
         -6    2    1    2    0  502 -0.13083458365E+02  0.45613682325E+02  0.13133783474E+03  0.22192768234E+03  0.17248328747E+03 0.  0.
        -24    2    5    5    0    0  0.36146928283E+02 -0.24359719246E+02  0.80733863851E+02  0.12241507125E+03  0.81040092237E+02 0.  0.
          5    1    3    3  501    0  0.35192913695E+02 -0.65990779970E+02  0.85721534550E+02  0.11385778718E+03  0.47000000000E+01 0. -1.
        -13    1    4    4    0    0 -0.87956236463E+01  0.40363933208E+02 -0.25955515611E+02  0.48788306898E+02  0.00000000000E+00 0.  1.
         14    1    4    4    0    0 -0.13313831684E+02 -0.19986835562E+02  0.26758573829E+02  0.35954874263E+02  0.00000000000E+00 0. -1.
         -5    1    5    5    0  502 -0.49230386648E+02  0.69973401571E+02  0.50603970892E+02  0.99512611095E+02  0.47000000000E+01 0.  1.
         11    1    6    6    0    0  0.19044013951E+02  0.19521500569E+02 -0.18618526906E+01  0.27335507079E+02  0.00000000000E+00 0. -1.
        -12    1    6    6    0    0  0.17102914332E+02 -0.43881219815E+02  0.82595716541E+02  0.95079564166E+02  0.00000000000E+00 0.  1.
</event>
<event>
12    1  0.8052519E-002  0.2453824E+03  0.7818608E-02  0.1116340E+00
         21   -1    0    0  501  502  0.00000000000E+00  0.00000000000E+00  0.12834333899E+04  0.12834333899E+04  0.00000000000E+00 0.  1.
         21   -1    0    0  502  503 -0.00000000000E+00 -0.00000000000E+00 -0.55567696186E+02  0.55567696186E+02  0.00000000000E+00 0.  1.
         -6    2    1    2    0  503 -0.17489815770E+03  0.38480018537E+01  0.34775907560E+03  0.42532707812E+03  0.17135511674E+03 0.  0.
        -24    2    3    3    0    0 -0.16983376359E+03 -0.45871246294E+02  0.26839173625E+03  0.33141799294E+03  0.82801470187E+02 0.  0.
          6    2    1    2  501    0  0.17489815770E+03 -0.38480018537E+01  0.88010661811E+03  0.91367400796E+03  0.17207080199E+03 0.  0.
         24    2    5    5    0    0  0.56320726783E+02  0.49392299117E+02  0.49675228236E+03  0.50885580986E+03  0.80992479445E+02 0.  0.
          5    1    5    5  501    0  0.11857743092E+03 -0.53240300971E+02  0.38335433575E+03  0.40481819810E+03  0.47000000000E+01 0. -1.
        -11    1    6    6    0    0  0.66639643574E+02  0.60025636719E+02  0.34815645295E+03  0.35952306586E+03  0.00000000000E+00 0.  1.
         12    1    6    6    0    0 -0.10318916791E+02 -0.10633337602E+02  0.14859582941E+03  0.14933274400E+03  0.00000000000E+00 0. -1.
         -5    1    3    3    0  503 -0.50643941148E+01  0.49719248148E+02  0.79367339351E+02  0.93909085182E+02  0.47000000000E+01 0.  1.
         13    1    4    4    0    0 -0.77017526631E+01 -0.17801139171E+02  0.75150711106E+02  0.77613316702E+02  0.00000000000E+00 0. -1.
        -14    1    4    4    0    0 -0.16213201093E+03 -0.28070107123E+02  0.19324102514E+03  0.25380467624E+03  0.00000000000E+00 0.  1.
</event>
<event>
12    1  0.8052519E-002  0.1940226E+03  0.7818608E-02  0.1155130E+00
         21   -1    0    0  501  502  0.00000000000E+00  0.00000000000E+00  0.50265615653E+02  0.50265615653E+02  0.00000000000E+00 0. -1.
         21   -1    0    0  502  503 -0.00000000000E+00 -0.00000000000E+00 -0.77101281976E+03  0.77101281976E+03  0.00000000000E+00 0. -1.
         -6    2    1    2    0  503  0.48346148533E+02  0.74889704316E+02 -0.43538381860E+03  0.47620304567E+03  0.17106856320E+03 0.  0.
        -24    2    3    3    0    0  0.26841666212E+02 -0.25280379643E+02 -0.22199371492E+03  0.23944596588E+03  0.81814353720E+02 0.  0.
          6    2    1    2  501    0 -0.48346148533E+02 -0.74889704316E+02 -0.28536338551E+03  0.34507538974E+03  0.17233381829E+03 0.  0.
         24    2    5    5    0    0 -0.26547701189E+02 -0.10684892760E+03 -0.14290717639E+03  0.19738508615E+03  0.80105788817E+02 0.  0.
          5    1    5    5  501    0 -0.21798447344E+02  0.31959223288E+02 -0.14245620911E+03  0.14769030359E+03  0.47000000000E+01 0. -1.
        -11    1    6    6    0    0  0.14855724887E+02 -0.89139168763E+02 -0.85325661474E+02  0.12428576940E+03  0.00000000000E+00 0.  1.
         12    1    6    6    0    0 -0.41403426076E+02 -0.17709758841E+02 -0.57581514919E+02  0.73099316751E+02  0.00000000000E+00 0. -1.
         -5    1    3    3    0  503  0.21504482321E+02  0.10017008396E+03 -0.21339010368E+03  0.23675707979E+03  0.47000000000E+01 0.  1.
         13    1    4    4    0    0  0.32484199132E+02  0.15426161880E+02 -0.16680391093E+03  0.17063626333E+03  0.00000000000E+00 0. -1.
        -14    1    4    4    0    0 -0.56425329195E+01 -0.40706541523E+02 -0.55189803991E+02  0.68809702550E+02  0.00000000000E+00 0.  1.
</event>
<event>
12    1  0.8052519E-002  0.1765949E+03  0.7818608E-02  0.1171461E+00
         21   -1    0    0  503  502  0.00000000000E+00  0.00000000000E+00  0.37474206343E+03  0.37474206343E+03  0.00000000000E+00 0. -1.
         21   -1    0    0  501  503 -0.00000000000E+00 -0.00000000000E+00 -0.11193596296E+03  0.11193596296E+03  0.00000000000E+00 0. -1.
          6    2    1    2  501    0  0.12938297587E+02 -0.39993543200E+02  0.64991683606E+01  0.17542410123E+03  0.17018957977E+03 0.  0.
         24    2    3    3    0    0 -0.69256370809E+01  0.35173977534E+02 -0.25095500378E+02  0.91370278200E+02  0.80209540919E+02 0.  0.
         -6    2    1    2    0  502 -0.12938297587E+02  0.39993543200E+02  0.25630693210E+03  0.31125392516E+03  0.17151932672E+03 0.  0.
        -24    2    5    5    0    0  0.27408950146E+02  0.42217749183E+02  0.25317740643E+03  0.27045280479E+03  0.80699018573E+02 0.  0.
          5    1    3    3  501    0  0.19863934668E+02 -0.75167520734E+02  0.31594668738E+02  0.84053823034E+02  0.47000000000E+01 0. -1.
        -13    1    4    4    0    0  0.23209897934E+02 -0.16182850845E+02 -0.89057437082E+01  0.29663045942E+02  0.00000000000E+00 0.  1.
         14    1    4    4    0    0 -0.30135535015E+02  0.51356828379E+02 -0.16189756670E+02  0.61707232257E+02  0.00000000000E+00 0. -1.
         -5    1    5    5    0  502 -0.40347247734E+02 -0.22242059828E+01  0.31295256721E+01  0.40801120363E+02  0.47000000000E+01 0.  1.
         11    1    6    6    0    0  0.34142184680E+02  0.55915179715E+02  0.12278571052E+03  0.13917085472E+03  0.00000000000E+00 0. -1.
        -12    1    6    6    0    0 -0.67332345334E+01 -0.13697430532E+02  0.13039169592E+03  0.13128195007E+03  0.00000000000E+00 0.  1.
</event>
<event>
12    1  0.8052519E-002  0.2123895E+03  0.7818608E-02  0.1139828E+00
         21   -1    0    0  501  502  0.00000000000E+00  0.00000000000E+00  0.29750783393E+03  0.29750783393E+03  0.00000000000E+00 0.  1.
         21   -1    0    0  502  503 -0.00000000000E+00 -0.00000000000E+00 -0.18684418926E+03  0.18684418926E+03  0.00000000000E+00 0.  1.
         -6    2    1    2    0  503  0.91189161209E+02  0.82979091978E+02 -0.50651268653E+02  0.21764660489E+03  0.17205667896E+03 0.  0.
        -24    2    3    3    0    0  0.28490538049E+02  0.42541028948E+02  0.37613487761E+02  0.10197849557E+03  0.79770854296E+02 0.  0.
          6    2    1    2  501    0 -0.91189161209E+02 -0.82979091978E+02  0.16131491332E+03  0.26670541830E+03  0.17294012277E+03 0.  0.
         24    2    5    5    0    0 -0.26001325311E+02  0.18921098280E+02  0.36879595758E+02  0.93098560774E+02  0.79203286276E+02 0.  0.
          5    1    5    5  501    0 -0.65187835898E+02 -0.10190019026E+03  0.12443531756E+03  0.17360685753E+03  0.47000000000E+01 0. -1.
        -11    1    6    6    0    0 -0.34400141072E+02 -0.38722862268E+01  0.53458936023E+02  0.63688477349E+02  0.00000000000E+00 0.  1.
         12    1    6    6    0    0  0.83988157614E+01  0.22793384506E+02 -0.16579340265E+02  0.29410083425E+02  0.00000000000E+00 0. -1.
         -5    1    3    3    0  503  0.62698623160E+02  0.40438063030E+02 -0.88264756414E+02  0.11566810932E+03  0.47000000000E+01 0.  1.
         11    1    4    4    0    0 -0.15816260798E+02  0.25928934923E+02 -0.12690364478E+02  0.32916699750E+02  0.00000000000E+00 0. -1.
        -12    1    4    4    0    0  0.44306798846E+02  0.16612094025E+02  0.50303852239E+02  0.69061795820E+02  0.00000000000E+00 0.  1.
</event>
<event>
12    1  0.8052519E-002  0.2191758E+03  0.7818608E-02  0.1134506E+00
         21   -1    0    0  503  502  0.00000000000E+00  0.00000000000E+00  0.13087571880E+04  0.13087571880E+04  0.00000000000E+00 0.  1.
         21   -1    0    0  501  503 -0.00000000000E+00 -0.00000000000E+00 -0.48779754096E+02  0.48779754096E+02  0.00000000000E+00 0.  1.
          6    2    1    2  501    0  0.37154123154E+02  0.13080767622E+03  0.29215583608E+03  0.36520803005E+03  0.17184526653E+03 0.  0.
         24    2    3    3    0    0  0.12191022438E+02  0.77721197866E+02  0.28450199274E+03  0.30586157354E+03  0.80129349637E+02 0.  0.
         -6    2    1    2    0  502 -0.37154123154E+02 -0.13080767622E+03  0.96782159784E+03  0.99232891207E+03  0.17189225534E+03 0.  0.
        -24    2    5    5    0    0  0.27061378060E+00 -0.52128714960E+02  0.21987866027E+03  0.23931382739E+03  0.78784558032E+02 0.  0.
          5    1    3    3  501    0  0.24963100716E+02  0.53086478358E+02  0.76538433451E+01  0.59346456506E+02  0.47000000000E+01 0. -1.
        -13    1    4    4    0    0  0.36240772660E+02  0.72347678261E+01  0.11290804644E+03  0.11880219872E+03  0.00000000000E+00 0.  1.
         14    1    4    4    0    0 -0.24049750222E+02  0.70486430040E+02  0.17159394629E+03  0.18705937483E+03  0.00000000000E+00 0. -1.
         -5    1    5    5    0  502 -0.37424736935E+02 -0.78678961264E+02  0.74794293757E+03  0.75301508467E+03  0.47000000000E+01 0.  1.
         11    1    6    6    0    0  0.36102023433E+02 -0.21550542315E+02  0.14390965781E+03  0.14992588696E+03  0.00000000000E+00 0. -1.
        -12    1    6    6    0    0 -0.35831409653E+02 -0.30578172645E+02  0.75969002461E+02  0.89387940433E+02  0.00000000000E+00 0.  1.
</event>
<event>
12    1  0.8052519E-002  0.1958010E+03  0.7818608E-02  0.1153360E+00
         21   -1    0    0  503  502  0.00000000000E+00  0.00000000000E+00  0.74614134211E+03  0.74614134211E+03  0.00000000000E+00 0. -1.
         21   -1    0    0  501  503 -0.00000000000E+00 -0.00000000000E+00 -0.10709173431E+03  0.10709173431E+03  0.00000000000E+00 0. -1.
          6    2    1    2  501    0 -0.78710098951E+02  0.49744236310E+02  0.11677932915E+02  0.19601680077E+03  0.17209428620E+03 0.  0.
         24    2    3    3    0    0 -0.99998713642E+02  0.18246456901E+02  0.51352826442E+02  0.14086698300E+03  0.82907889833E+02 0.  0.
         -6    2    1    2    0  502  0.78710098951E+02 -0.49744236310E+02  0.62737167488E+03  0.65721627565E+03  0.17224472653E+03 0.  0.
        -24    2    5    5    0    0  0.82890173694E+02 -0.70073972287E+02  0.62036020939E+03  0.63481043181E+03  0.79726736182E+02 0.  0.
          5    1    3    3  501    0  0.21288614691E+02  0.31497779410E+02 -0.39674893527E+02  0.55149817766E+02  0.47000000000E+01 0. -1.
        -11    1    4    4    0    0 -0.67857393207E+01  0.20346254659E+02  0.42003734324E+02  0.47162803500E+02  0.00000000000E+00 0.  1.
         12    1    4    4    0    0 -0.93212974321E+02 -0.20997977586E+01  0.93490921179E+01  0.93704179501E+02  0.00000000000E+00 0. -1.
         -5    1    5    5    0  502 -0.41800747423E+01  0.20329735977E+02  0.70114654950E+01  0.22405843839E+02  0.47000000000E+01 0.  1.
         13    1    6    6    0    0  0.41673303734E+02 -0.41497034561E+01  0.96271716351E+02  0.10498632126E+03  0.00000000000E+00 0. -1.
        -14    1    6    6    0    0  0.41216869960E+02 -0.65924268831E+02  0.52408849304E+03  0.52982411055E+03  0.00000000000E+00 0.  1.
</event>
<event>
12    1  0.8052519E-002  0.1760346E+03  0.7818608E-02  0.1172924E+00
         21   -1    0    0  503  502  0.00000000000E+00  0.00000000000E+00  0.81346067300E+03  0.81346067300E+03  0.00000000000E+00 0. -1.
         21   -1    0    0  501  503 -0.00000000000E+00 -0.00000000000E+00 -0.43104800817E+02  0.43104800817E+02  0.00000000000E+00 0. -1.
          6    2    1    2  501    0 -0.13820989785E+01  0.27029532375E+01  0.22005811404E+03  0.27879751813E+03  0.17115275753E+03 0.  0.
         24    2    3    3    0    0 -0.60741364430E+02 -0.23676294333E+02  0.15962247608E+03  0.18994965135E+03  0.79696015648E+02 0.  0.
         -6    2    1    2    0  502  0.13820989785E+01 -0.27029532375E+01  0.55029775814E+03  0.57776795568E+03  0.17600844253E+03 0.  0.
        -24    2    5    5    0    0 -0.67414502123E+02 -0.43313586565E+01  0.29321625792E+03  0.31159393031E+03  0.80941508081E+02 0.  0.
          5    1    3    3  501    0  0.59359265452E+02  0.26379247571E+02  0.60435637953E+02  0.88847866785E+02  0.47000000000E+01 0. -1.
        -11    1    4    4    0    0 -0.20542317322E+01  0.18662423615E+02  0.53097824622E+01  0.19511527695E+02  0.00000000000E+00 0.  1.
         12    1    4    4    0    0 -0.58687132698E+02 -0.42338717948E+02  0.15431269362E+03  0.17043812365E+03  0.00000000000E+00 0. -1.
         -5    1    5    5    0  502  0.68796601102E+02  0.16284054190E+01  0.25708150022E+03  0.26617402538E+03  0.47000000000E+01 0.  1.
         13    1    6    6    0    0 -0.24960078095E+02  0.14720943215E+02  0.23632851228E+03  0.23809846153E+03  0.00000000000E+00 0. -1.
        -14    1    6    6    0    0 -0.42454424029E+02 -0.19052301871E+02  0.56887745639E+02  0.73495468773E+02  0.00000000000E+00 0.  1.
</event>
<event>
12    1  0.8052519E-002  0.2046331E+03  0.7818608E-02  0.1146173E+00
         21   -1    0    0  503  502  0.00000000000E+00  0.00000000000E+00  0.37575143787E+03  0.37575143787E+03  0.00000000000E+00 0. -1.
         21   -1    0    0  501  503 -0.00000000000E+00 -0.00000000000E+00 -0.15703093196E+03  0.15703093196E+03  0.00000000000E+00 0. -1.
          6    2    1    2  501    0 -0.10065068348E+03  0.38540406696E+02  0.25433896052E+03  0.32643993103E+03  0.17395056395E+03 0.  0.
         24    2    3    3    0    0 -0.70076328122E+02  0.88781656514E+02  0.21532750763E+03  0.25570834088E+03  0.78917334946E+02 0.  0.
         -6    2    1    2    0  502  0.10065068348E+03 -0.38540406696E+02 -0.35618454614E+02  0.20634243881E+03  0.17231542215E+03 0.  0.
        -24    2    5    5    0    0  0.13141065729E+03 -0.25506354183E+02  0.24364945551E+01  0.15548644928E+03  0.79061776177E+02 0.  0.
          5    1    3    3  501    0 -0.30574355354E+02 -0.50241249818E+02  0.39011452888E+02  0.70731590149E+02  0.47000000000E+01 0. -1.
        -13    1    4    4    0    0 -0.34168600568E+02  0.43177252649E+02  0.32611595418E+02  0.63994410434E+02  0.00000000000E+00 0.  1.
         14    1    4    4    0    0 -0.35907727554E+02  0.45604403865E+02  0.18271591221E+03  0.19171393044E+03  0.00000000000E+00 0. -1.
         -5    1    5    5    0  502 -0.30759973814E+02 -0.13034052513E+02 -0.38054949169E+02  0.50855989521E+02  0.47000000000E+01 0.  1.
         11    1    6    6    0    0  0.11504276480E+03 -0.14734107044E+02 -0.27975405274E+02  0.11930865410E+03  0.00000000000E+00 0. -1.
        -12    1    6    6    0    0  0.16367892488E+02 -0.10772247140E+02  0.30411899829E+02  0.36177795181E+02  0.00000000000E+00 0.  1.
</event>
<event>
12    1  0.8052519E-002  0.1839109E+03  0.7818608E-02  0.1164804E+00
         21   -1    0    0  503  502  0.00000000000E+00  0.00000000000E+00  0.93460307299E+02  0.93460307299E+02  0.00000000000E+00 0. -1.
         21   -1    0    0  501  503 -0.00000000000E+00 -0.00000000000E+00 -0.37545124667E+03  0.37545124667E+03  0.00000000000E+00 0. -1.
          6    2    1    2  501    0  0.44432907708E+02  0.41643805665E+02 -0.19343352190E+03  0.26478992477E+03  0.17026064439E+03 0.  0.
         24    2    3    3    0    0  0.59230318243E+02  0.51000790153E+02 -0.21152282781E+03  0.23918075638E+03  0.79725882512E+02 0.  0.
         -6    2    1    2    0  502 -0.44432907708E+02 -0.41643805665E+02 -0.88557417468E+02  0.20412162920E+03  0.17353597172E+03 0.  0.
        -24    2    5    5    0    0 -0.54058419453E+02  0.27249010365E+02 -0.11327016459E+02  0.10007598817E+03  0.78880167510E+02 0.  0.
          5    1    3    3  501    0 -0.14797410535E+02 -0.93569844880E+01  0.18089305910E+02  0.25609168389E+02  0.47000000000E+01 0. -1.
        -13    1    4    4    0    0 -0.15890286378E+02 -0.39734133877E+01 -0.17422620592E+02  0.23913111956E+02  0.00000000000E+00 0.  1.
         14    1    4    4    0    0  0.75120604622E+02  0.54974203541E+02 -0.19410020722E+03  0.21526764442E+03  0.00000000000E+00 0. -1.
         -5    1    5    5    0  502  0.96255117456E+01 -0.68892816030E+02 -0.77230401009E+02  0.10404564103E+03  0.47000000000E+01 0.  1.
         11    1    6    6    0    0 -0.29483920205E+02 -0.26314921747E+02  0.23092966170E+01  0.39586733991E+02  0.00000000000E+00 0. -1.
        -12    1    6    6    0    0 -0.24574499248E+02  0.53563932113E+02 -0.13636313076E+02  0.60489254178E+02  0.00000000000E+00 0.  1.
</event>
<event>
12    1  0.8052519E-002  0.2318526E+03  0.7818608E-02  0.1125464E+00
         21   -1    0    0  501  502  0.00000000000E+00  0.00000000000E+00  0.26792017328E+03  0.26792017328E+03  0.00000000000E+00 0. -1.
         21   -1    0    0  502  503 -0.00000000000E+00 -0.00000000000E+00 -0.20069619526E+03  0.20069619526E+03  0.00000000000E+00 0.  1.
         -6    2    1    2    0  503 -0.52205790313E+02  0.14600639934E+03  0.20251511770E+02  0.23273540435E+03  0.17237265305E+03 0.  0.
        -24    2    3    3    0    0 -0.14062379587E+00  0.12523695282E+03  0.62760455892E+02  0.16222829972E+03  0.81821954750E+02 0.  0.
          6    2    1    2  501    0  0.52205790313E+02 -0.14600639934E+03  0.46972466253E+02  0.23588096418E+03  0.17143542075E+03 0.  0.
         24    2    5    5    0    0 -0.16330194423E+02 -0.44016517678E+02  0.60075502029E+02  0.11221651209E+03  0.82336811712E+02 0.  0.
          5    1    5    5  501    0  0.68535984737E+02 -0.10198988166E+03 -0.13103035776E+02  0.12366445209E+03  0.47000000000E+01 0. -1.
        -11    1    6    6    0    0  0.72237379495E+01 -0.86101489572E+01 -0.19204447374E+02  0.22251468580E+02  0.00000000000E+00 0.  1.
         12    1    6    6    0    0 -0.23553932373E+02 -0.35406368721E+02  0.79279949403E+02  0.89965043509E+02  0.00000000000E+00 0. -1.
         -5    1    3    3    0  503 -0.52065166518E+02  0.20769446517E+02 -0.42508944122E+02  0.70507104631E+02  0.47000000000E+01 0.  1.
         13    1    4    4    0    0 -0.33318056256E+02  0.39052497210E+02  0.44830421160E+02  0.68153921915E+02  0.00000000000E+00 0. -1.
        -14    1    4    4    0    0  0.33177432460E+02  0.86184455614E+02  0.17930034732E+02  0.94074377806E+02  0.00000000000E+00 0.  1.
</event>
<event>
12    1  0.8052519E-002  0.2848073E+03  0.7818608E-02  0.1093106E+00
         21   -1    0    0  503  502  0.00000000000E+00  0.00000000000E+00  0.28157449281E+03  0.28157449281E+03  0.00000000000E+00 0.  1.
         21   -1    0    0  501  503 -0.00000000000E+00 -0.00000000000E+00 -0.84257762618E+03  0.84257762618E+03  0.00000000000E+00 0. -1.
          6    2    1    2  501    0  0.38816346678E+02 -0.22359999714E+03 -0.73654027358E+03  0.78968777743E+03  0.17208005036E+03 0.  0.
         24    2    3    3    0    0 -0.12765010459E+02 -0.14348450857E+03 -0.29179626359E+03  0.33482686206E+03  0.78823971097E+02 0.  0.
         -6    2    1    2    0  502 -0.38816346678E+02  0.22359999714E+03  0.17553714020E+03  0.33446434156E+03  0.17189950753E+03 0.  0.
        -24    2    5    5    0    0  0.25568888653E+02  0.88080770578E+02  0.33792785898E+02  0.12800739380E+03  0.82655612496E+02 0.  0.
          5    1    3    3  501    0  0.51581357137E+02 -0.80115488572E+02 -0.44474400999E+03  0.45486091537E+03  0.47000000000E+01 0. -1.
        -11    1    4    4    0    0 -0.30484897931E+02 -0.89050813833E+02 -0.23933781277E+03  0.25718080229E+03  0.00000000000E+00 0.  1.
         12    1    4    4    0    0  0.17719887472E+02 -0.54433694739E+02 -0.52458450820E+02  0.77646059767E+02  0.00000000000E+00 0. -1.
         -5    1    5    5    0  502 -0.64385235331E+02  0.13551922657E+03  0.14174435431E+03  0.20645694775E+03  0.47000000000E+01 0.  1.
         13    1    6    6    0    0  0.46373961415E+01 -0.16236942512E+02  0.22644256660E+01  0.17037352162E+02  0.00000000000E+00 0. -1.
        -14    1    6    6    0    0  0.20931492512E+02  0.10431771309E+03  0.31528360232E+02  0.11097004164E+03  0.00000000000E+00 0.  1.
</event>
<event>
12    1  0.8052519E-002  0.2448274E+03  0.7818608E-02  0.1116692E+00
         21   -1    0    0  503  502  0.00000000000E+00  0.00000000000E+00  0.25913012404E+03  0.25913012404E+03  0.00000000000E+00 0.  1.
         21   -1    0    0  501  503 -0.00000000000E+00 -0.00000000000E+00 -0.28280718524E+03  0.28280718524E+03  0.00000000000E+00 0. -1.
          6    2    1    2  501    0 -0.15579270864E+03  0.76004776599E+02 -0.12795088466E+03  0.27624605899E+03  0.17289407766E+03 0.  0.
         24    2    3    3    0    0 -0.11701988907E+03  0.79202372975E+02 -0.24210626451E+02  0.16535112072E+03  0.82390341472E+02 0.  0.
         -6    2    1    2    0  502  0.15579270864E+03 -0.76004776599E+02  0.10427382346E+03  0.26569125029E+03  0.17225189721E+03 0.  0.
        -24    2    5    5    0    0  0.35877803425E+02 -0.97599878898E+01  0.92478936208E+02  0.12810794502E+03  0.80478679123E+02 0.  0.
          5    1    3    3  501    0 -0.38772819564E+02 -0.31975963760E+01 -0.10374025821E+03  0.11089493826E+03  0.47000000000E+01 0. -1.
        -13    1    4    4    0    0 -0.35975386705E+02  0.73471917047E+02 -0.18704775260E+02  0.83917934082E+02  0.00000000000E+00 0.  1.
         14    1    4    4    0    0 -0.81044502369E+02  0.57304559286E+01 -0.55058511912E+01  0.81433186642E+02  0.00000000000E+00 0. -1.
         -5    1    5    5    0  502  0.11991490521E+03 -0.66244788710E+02  0.11794887249E+02  0.13758330527E+03  0.47000000000E+01 0.  1.
         11    1    6    6    0    0 -0.20764597700E+02 -0.19425983069E+02  0.46545999688E+02  0.54544178633E+02  0.00000000000E+00 0. -1.
        -12    1    6    6    0    0  0.56642401125E+02  0.96659951787E+01  0.45932936520E+02  0.73563766389E+02  0.00000000000E+00 0.  1.
</event>
<event>
12    1  0.8052519E-002  0.1881910E+03  0.7818608E-02  0.1160295E+00
         21   -1    0    0  503  502  0.00000000000E+00  0.00000000000E+00  0.51715820820E+03  0.51715820820E+03  0.00000000000E+00 0.  1.
         21   -1    0    0  501  503 -0.00000000000E+00 -0.00000000000E+00 -0.12460379041E+03  0.12460379041E+03  0.00000000000E+00 0.  1.
          6    2    1    2  501    0 -0.23279531003E+01  0.74363265893E+02 -0.19897641099E+02  0.18840501281E+03  0.17194539265E+03 0.  0.
         24    2    3    3    0    0  0.76760862089E+01 -0.24749020572E+02 -0.22095862320E+02  0.88654081453E+02  0.81852811240E+02 0.  0.
         -6    2    1    2    0  502  0.23279531003E+01 -0.74363265893E+02  0.41245205889E+03  0.45335698580E+03  0.17285988839E+03 0.  0.
        -24    2    5    5    0    0 -0.36666421334E+02 -0.95172054360E+02  0.21367903106E+03  0.24967494558E+03  0.79225650855E+02 0.  0.
          5    1    3    3  501    0 -0.10004039309E+02  0.99112286466E+02  0.21982212210E+01  0.99750931362E+02  0.47000000000E+01 0. -1.
        -13    1    4    4    0    0  0.19644418348E+02  0.13959751718E+01 -0.46781004178E+02  0.50757406069E+02  0.00000000000E+00 0.  1.
         14    1    4    4    0    0 -0.11968332139E+02 -0.26144995744E+02  0.24685141857E+02  0.37896675384E+02  0.00000000000E+00 0. -1.
         -5    1    5    5    0  502  0.38994374435E+02  0.20808788466E+02  0.19877302783E+03  0.20368204022E+03  0.47000000000E+01 0.  1.
         11    1    6    6    0    0  0.14073586992E+01 -0.19645956417E+02 -0.18071638872E+00  0.19697129752E+02  0.00000000000E+00 0. -1.
        -12    1    6    6    0    0 -0.38073780034E+02 -0.75526097943E+02  0.21385974745E+03  0.22997781583E+03  0.00000000000E+00 0.  1.
</event>
<event>
12    1  0.8052519E-002  0.2294054E+03  0.7818608E-02  0.1127175E+00
         21   -1    0    0  503  502  0.00000000000E+00  0.00000000000E+00  0.42636294179E+03  0.42636294179E+03  0.00000000000E+00 0.  1.
         21   -1    0    0  501  503 -0.00000000000E+00 -0.00000000000E+00 -0.12654954606E+03  0.12654954606E+03  0.00000000000E+00 0.  1.
          6    2    1    2  501    0 -0.74474874399E+01  0.15191958865E+03  0.10391408411E+03  0.25124479863E+03  0.17085311083E+03 0.  0.
         24    2    3    3    0    0 -0.63599299982E+02  0.56658124394E+02  0.53174443284E+02  0.12948941364E+03  0.81761683007E+02 0.  0.
         -6    2    1    2    0  502  0.74474874399E+01 -0.15191958865E+03  0.19589931162E+03  0.30166768922E+03  0.17173184894E+03 0.  0.
        -24    2    5    5    0    0 -0.61220173650E+02 -0.71620383052E+02  0.10559605304E+03  0.16259943760E+03  0.80066608267E+02 0.  0.
          5    1    3    3  501    0  0.56151812542E+02  0.95261464252E+02  0.50739640829E+02  0.12175538499E+03  0.47000000000E+01 0. -1.
        -11    1    4    4    0    0  0.12018629462E+02  0.38276156139E+02  0.15240421558E+02  0.42915988072E+02  0.00000000000E+00 0.  1.
         12    1    4    4    0    0 -0.75617929444E+02  0.18381968255E+02  0.37934021726E+02  0.86573425568E+02  0.00000000000E+00 0. -1.
         -5    1    5    5    0  502  0.68667661090E+02 -0.80299205594E+02  0.90303258584E+02  0.13906825162E+03  0.47000000000E+01 0.  1.
         13    1    6    6    0    0 -0.26001089054E+02 -0.12265353463E+02 -0.78565092599E+01  0.29803024433E+02  0.00000000000E+00 0. -1.
        -14    1    6    6    0    0 -0.35219084596E+02 -0.59355029590E+02  0.11345256230E+03  0.13279641316E+03  0.00000000000E+00 0.  1.
</event>
<event>
12    1  0.8052519E-002  0.1809543E+03  0.7818608E-02  0.1167127E+00
         21   -1    0    0  503  502  0.00000000000E+00  0.00000000000E+00  0.32944175446E+03  0.32944175446E+03  0.00000000000E+00 0. -1.
         21   -1    0    0  501  503 -0.00000000000E+00 -0.00000000000E+00 -0.14717718251E+03  0.14717718251E+03  0.00000000000E+00 0. -1.
          6    2    1    2  501    0 -0.46662445515E+02  0.24614328403E+02 -0.45614451958E+02  0.18563215563E+03  0.17203304913E+03 0.  0.
         24    2    3    3    0    0 -0.80071502219E+02 -0.26376124675E+02 -0.43541205434E+02  0.12445552835E+03  0.80536926591E+02 0.  0.
         -6    2    1    2    0  502  0.46662445515E+02 -0.24614328403E+02  0.22787902390E+03  0.29098678134E+03  0.17309306281E+03 0.  0.
        -24    2    5    5    0    0  0.77783812995E+01 -0.53485123684E+02  0.22139330098E+03  0.24189861706E+03  0.81109713012E+02 0.  0.
          5    1    3    3  501    0  0.33409056704E+02  0.50990453079E+02 -0.20732465237E+01  0.61176627287E+02  0.47000000000E+01 0. -1.
        -11    1    4    4    0    0 -0.33257660947E+02  0.10591861796E+02  0.17554165988E+02  0.39069275544E+02  0.00000000000E+00 0.  1.
         12    1    4    4    0    0 -0.46813841272E+02 -0.36967986471E+02 -0.61095371423E+02  0.85386252802E+02  0.00000000000E+00 0. -1.
         -5    1    5    5    0  502  0.38884064216E+02  0.28870795281E+02  0.64857229213E+01  0.49088164275E+02  0.47000000000E+01 0.  1.
         13    1    6    6    0    0  0.35892389909E+02 -0.10477763896E+02  0.46803036762E+02  0.59904686292E+02  0.00000000000E+00 0. -1.
        -14    1    6    6    0    0 -0.28114008610E+02 -0.43007359788E+02  0.17459026422E+03  0.18199393077E+03  0.00000000000E+00 0.  1.
</event>
<event>
12    1  0.8052519E-002  0.2286548E+03  0.7818608E-02  0.1127873E+00
         21   -1    0    0  503  502  0.00000000000E+00  0.00000000000E+00  0.16340411183E+04  0.16340411183E+04  0.00000000000E+00 0.  1.
         21   -1    0    0  501  503 -0.00000000000E+00 -0.00000000000E+00 -0.77718662939E+02  0.77718662939E+02  0.00000000000E+00 0.  1.
          6    2    1    2  501    0 -0.12772500921E+03 -0.74545846154E+02  0.11898842223E+03  0.25635188769E+03  0.17229998415E+03 0.  0.
         24    2    3    3    0    0 -0.67098554968E+02 -0.11299680319E+03  0.93656931131E+02  0.18007726876E+03  0.79910627360E+02 0.  0.
         -6    2    1    2    0  502  0.12772500921E+03  0.74545846154E+02  0.14373340331E+04  0.14554078936E+04  0.17439109115E+03 0.  0.
        -24    2    5    5    0    0  0.75143453631E+02 -0.17841505865E+02  0.95904427691E+03  0.96542480843E+03  0.79462429548E+02 0.  0.
          5    1    3    3  501    0 -0.60626454244E+02  0.38450957036E+02  0.25331491104E+02  0.76274618929E+02  0.47000000000E+01 0. -1.
        -13    1    4    4    0    0 -0.17347225391E+02 -0.71163504498E+01 -0.12148064076E+02  0.22341533817E+02  0.00000000000E+00 0.  1.
         14    1    4    4    0    0 -0.49751329577E+02 -0.10588045274E+03  0.10580499521E+03  0.15773573494E+03  0.00000000000E+00 0. -1.
         -5    1    5    5    0  502  0.52581555581E+02  0.92387352018E+02  0.47828975622E+03  0.48998308512E+03  0.47000000000E+01 0.  1.
         11    1    6    6    0    0  0.33886699870E+02 -0.22504016315E+02  0.15310575629E+03  0.15841752361E+03  0.00000000000E+00 0. -1.
        -12    1    6    6    0    0  0.41256753761E+02  0.46625104508E+01  0.80593852063E+03  0.80700728483E+03  0.00000000000E+00 0.  1.
</event>
<event>
12    1  0.8052519E-002  0.1791861E+03  0.7818608E-02  0.1169718E+00
         21   -1    0    0  501  502  0.00000000000E+00  0.00000000000E+00  0.27963555955E+04  0.27963555955E+04  0.00000000000E+00 0.  1.
         21   -1    0    0  502  503 -0.00000000000E+00 -0.00000000000E+00 -0.20490393898E+02  0.20490393898E+02  0.00000000000E+00 0.  1.
         -6    2    1    2    0  503 -0.37783018095E+02 -0.14945862165E+02  0.44895463871E+03  0.48339210903E+03  0.17451856117E+03 0.  0.
        -24    2    3    3    0    0 -0.56211546007E+02  0.49307418267E+00  0.44826358793E+03  0.45888621284E+03  0.80475655011E+02 0.  0.
          6    2    1    2  501    0  0.37783018095E+02  0.14945862165E+02  0.23269105629E+04  0.23334538803E+04  0.16983317961E+03 0.  0.
         24    2    5    5    0    0  0.80854174348E+02  0.33184443966E+02  0.12609316797E+04  0.12664389602E+04  0.79248560437E+02 0.  0.
          5    1    5    5  501    0 -0.43071156253E+02 -0.18238581802E+02  0.10659788832E+04  0.10670149201E+04  0.47000000000E+01 0. -1.
        -11    1    6    6    0    0  0.49390156351E+02  0.14149716849E+01  0.10319672199E+04  0.10331494242E+04  0.00000000000E+00 0.  1.
         12    1    6    6    0    0  0.31464017997E+02  0.31769472282E+02  0.22896445980E+03  0.23328953609E+03  0.00000000000E+00 0. -1.
         -5    1    3    3    0  503  0.18428527912E+02 -0.15438936347E+02  0.69105078809E+00  0.24505896183E+02  0.47000000000E+01 0.  1.
         13    1    4    4    0    0 -0.68357885234E+01 -0.19195155349E+02  0.31134624218E+03  0.31201228263E+03  0.00000000000E+00 0. -1.
        -14    1    4    4    0    0 -0.49375757483E+02  0.19688229532E+02  0.13691734575E+03  0.14687393021E+03  0.00000000000E+00 0.  1.
</event>
<event>
12    1  0.8052519E-002  0.1988713E+03  0.7818608E-02  0.1150888E+00
         21   -1    0    0  501  502  0.00000000000E+00  0.00000000000E+00  0.46697110193E+02  0.46697110193E+02  0.00000000000E+00 0.  1.
         21   -1    0    0  502  503 -0.00000000000E+00 -0.00000000000E+00 -0.10023252313E+04  0.10023252313E+04  0.00000000000E+00 0.  1.
         -6    2    1    2    0  503 -0.38335838675E+02 -0.89892312186E+02 -0.68596136744E+03  0.71395528165E+03  0.17215946752E+03 0.  0.
        -24    2    3    3    0    0  0.19891673186E+02 -0.72110191495E+02 -0.23983172193E+03  0.26366604398E+03  0.80031053518E+02 0.  0.
          6    2    1    2  501    0  0.38335838675E+02  0.89892312186E+02 -0.26966675367E+03  0.33506705985E+03  0.17320367272E+03 0.  0.
         24    2    5    5    0    0 -0.28713388788E+02  0.90866822151E+02 -0.21873492745E+03  0.25073029743E+03  0.77067992704E+02 0.  0.
          5    1    5    5  501    0  0.67049227462E+02 -0.97450996562E+00 -0.50931826225E+02  0.84336762421E+02  0.47000000000E+01 0. -1.
        -13    1    6    6    0    0 -0.30528756768E+02  0.18763147393E+02 -0.24160915859E+02  0.43218173783E+02  0.00000000000E+00 0.  1.
         14    1    6    6    0    0  0.18153679809E+01  0.72103674758E+02 -0.19457401159E+03  0.20751212364E+03  0.00000000000E+00 0. -1.
         -5    1    3    3    0  503 -0.58227511861E+02 -0.17782120690E+02 -0.44612964551E+03  0.45028923767E+03  0.47000000000E+01 0.  1.
         11    1    4    4    0    0  0.14495047347E+02  0.15132786551E+02 -0.32599763134E+02  0.38753737662E+02  0.00000000000E+00 0. -1.
        -12    1    4    4    0    0  0.53966258384E+01 -0.87242978047E+02 -0.20723195880E+03  0.22491230632E+03  0.00000000000E+00 0.  1.
</event>
<event>
12    1  0.8052519E-002  0.2471911E+03  0.7818608E-02  0.1115276E+00
         21   -1    0    0  501  502  0.00000000000E+00  0.00000000000E+00  0.11630439607E+03  0.11630439607E+03  0.00000000000E+00 0.  1.
         21   -1    0    0  502  503 -0.00000000000E+00 -0.00000000000E+00 -0.74101394449E+03  0.74101394449E+03  0.00000000000E+00 0. -1.
         -6    2    1    2    0  503  0.14916863206E+03  0.97006771064E+02 -0.54539979810E+03  0.59880245796E+03  0.17158627413E+03 0.  0.
        -24    2    3    3    0    0  0.52761981901E+02  0.10953460551E+03 -0.26906097397E+03  0.30582391856E+03  0.79704484861E+02 0.  0.
          6    2    1    2  501    0 -0.14916863206E+03 -0.97006771064E+02 -0.79309750325E+02  0.25851588260E+03  0.16993772576E+03 0.  0.
         24    2    5    5    0    0 -0.48676362343E+02 -0.28906546893E+02 -0.98330838193E+02  0.13555154392E+03  0.74163944163E+02 0.  0.
          5    1    5    5  501    0 -0.10049226972E+03 -0.68100224170E+02  0.19021087868E+02  0.12296433869E+03  0.47000000000E+01 0. -1.
        -11    1    6    6    0    0 -0.31381237274E+02 -0.29152336471E+02 -0.79922555949E+01  0.43571974067E+02  0.00000000000E+00 0.  1.
         12    1    6    6    0    0 -0.17295125069E+02  0.24578957745E+00 -0.90338582598E+02  0.91979569849E+02  0.00000000000E+00 0. -1.
         -5    1    3    3    0  503  0.96406650159E+02 -0.12527834451E+02 -0.27633882413E+03  0.29297853940E+03  0.47000000000E+01 0.  1.
         11    1    4    4    0    0  0.24618233275E+02  0.64026761322E+01 -0.11832181422E+03  0.12102521800E+03  0.00000000000E+00 0. -1.
        -12    1    4    4    0    0  0.28143748626E+02  0.10313192938E+03 -0.15073915975E+03  0.18479870056E+03  0.00000000000E+00 0.  1.
</event>
<event>
12    1  0.8052519E-002  0.2063948E+03  0.7818608E-02  0.1144620E+00
         21   -1    0    0  503  502  0.00000000000E+00  0.00000000000E+00  0.15590455857E+03  0.15590455857E+03  0.00000000000E+00 0. -1.
         21   -1    0    0  501  503 -0.00000000000E+00 -0.00000000000E+00 -0.48025820634E+03  0.48025820634E+03  0.00000000000E+00 0. -1.
          6    2    1    2  501    0 -0.46740778520E+02  0.10283828489E+03 -0.37174476659E+03  0.42519759782E+03  0.17273798797E+03 0.  0.
         24    2    3    3    0    0  0.17365540769E+02  0.35386457988E+02 -0.91907277666E+02  0.13025611323E+03  0.83462230563E+02 0.  0.
         -6    2    1    2    0  502  0.46740778520E+02 -0.10283828489E+03  0.47391118824E+02  0.21096516708E+03  0.17175555410E+03 0.  0.
        -24    2    5    5    0    0  0.63581417408E+02 -0.49079598159E+02 -0.29510644006E+02  0.11552107537E+03  0.77606940082E+02 0.  0.
          5    1    3    3  501    0 -0.64106319289E+02  0.67451826901E+02 -0.27983748893E+03  0.29494148459E+03  0.47000000000E+01 0. -1.
        -13    1    4    4    0    0  0.44483711660E+02  0.43626627987E+02 -0.73971020600E+02  0.96715020349E+02  0.00000000000E+00 0.  1.
         14    1    4    4    0    0 -0.27118170891E+02 -0.82401699996E+01 -0.17936257067E+02  0.33541092881E+02  0.00000000000E+00 0. -1.
         -5    1    5    5    0  502 -0.16840638888E+02 -0.53758686730E+02  0.76901762830E+02  0.95444091716E+02  0.47000000000E+01 0.  1.
         13    1    6    6    0    0  0.44024765862E+01 -0.37791186290E+02  0.14706355475E+02  0.40790102386E+02  0.00000000000E+00 0. -1.
        -14    1    6    6    0    0  0.59178940821E+02 -0.11288411868E+02 -0.44216999481E+02  0.74730972979E+02  0.00000000000E+00 0.  1.
</event>
<event>
12    1  0.8052519E-002  0.2832781E+03  0.7818608E-02  0.1093943E+00
         21   -1    0    0  501  502  0.00000000000E+00  0.00000000000E+00  0.65869746708E+02  0.65869746708E+02  0.00000000000E+00 0.  1.
         21   -1    0    0  502  503 -0.00000000000E+00 -0.00000000000E+00 -0.13261182617E+04  0.13261182617E+04  0.00000000000E+00 0.  1.
         -6    2    1    2    0  503 -0.34463588533E+02  0.22184088345E+03 -0.82928943354E+03  0.87626309213E+03  0.17238017738E+03 0.  0.
        -24    2    3    3    0    0  0.21572766347E+02  0.12123056455E+03 -0.62189391648E+03  0.63899215031E+03  0.79979314679E+02 0.  0.
          6    2    1    2  501    0  0.34463588533E+02 -0.22184088345E+03 -0.43095908150E+03  0.51572491632E+03  0.17275804723E+03 0.  0.
         24    2    5    5    0    0  0.59940156188E+02 -0.19470900184E+03 -0.25411177132E+03  0.33494257311E+03  0.78162121484E+02 0.  0.
          5    1    5    5  501    0 -0.25476567656E+02 -0.27131881606E+02 -0.17684731018E+03  0.18078234321E+03  0.47000000000E+01 0. -1.
        -13    1    6    6    0    0  0.17355335986E+02 -0.13766443645E+03 -0.20831968728E+03  0.25029941442E+03  0.00000000000E+00 0.  1.
         14    1    6    6    0    0  0.42584820202E+02 -0.57044565395E+02 -0.45792084048E+02  0.84643158697E+02  0.00000000000E+00 0. -1.
         -5    1    3    3    0  503 -0.56036354879E+02  0.10061031890E+03 -0.20739551706E+03  0.23727094182E+03  0.47000000000E+01 0.  1.
         11    1    4    4    0    0  0.33472994053E+02  0.61611610926E+02 -0.18416125698E+03  0.19705786080E+03  0.00000000000E+00 0. -1.
        -12    1    4    4    0    0 -0.11900227706E+02  0.59618953623E+02 -0.43773265951E+03  0.44193428951E+03  0.00000000000E+00 0.  1.
</event>
<event>
12    1  0.8052519E-002  0.1849081E+03  0.7818608E-02  0.1163203E+00
         21   -1    0    0  501  502  0.00000000000E+00  0.00000000000E+00  0.14356097255E+03  0.14356097255E+03  0.00000000000E+00 0. -1.
         21   -1    0    0  502  503 -0.00000000000E+00 -0.00000000000E+00 -0.26119669489E+03  0.26119669489E+03  0.00000000000E+00 0. -1.
         -6    2    1    2    0  503  0.25240011170E+02  0.63008824325E+02 -0.11935728426E+03  0.21984151654E+03  0.17168855810E+03 0.  0.
        -24    2    3    3    0    0 -0.81714622546E+01  0.83558175537E+02 -0.13467408778E+03  0.17747057294E+03  0.79435211621E+02 0.  0.
          6    2    1    2  501    0 -0.25240011170E+02 -0.63008824325E+02  0.17215619221E+01  0.18491615090E+03  0.17199956099E+03 0.  0.
         24    2    5    5    0    0 -0.33130765468E+02 -0.10371730336E+03 -0.21395403364E+02  0.13720946003E+03  0.80707781530E+02 0.  0.
          5    1    5    5  501    0  0.78907542981E+01  0.40708479040E+02  0.23116965286E+02  0.47706690864E+02  0.47000000000E+01 0. -1.
        -11    1    6    6    0    0  0.12509475009E+02 -0.83837734842E+02 -0.21408890466E+02  0.87427646311E+02  0.00000000000E+00 0.  1.
         12    1    6    6    0    0 -0.45640240478E+02 -0.19879568523E+02  0.13487102635E-01  0.49781813722E+02  0.00000000000E+00 0. -1.
         -5    1    3    3    0  503  0.33411473425E+02 -0.20549351212E+02  0.15316803524E+02  0.42370943604E+02  0.47000000000E+01 0.  1.
         11    1    4    4    0    0 -0.74539582491E+01  0.51199899730E+02 -0.15547155234E+02  0.54025042913E+02  0.00000000000E+00 0. -1.
        -12    1    4    4    0    0 -0.71750400550E+00  0.32358275807E+02 -0.11912693255E+03  0.12344553003E+03  0.00000000000E+00 0.  1.
</event>
<event>
12    1  0.8052519E-002  0.1892137E+03  0.7818608E-02  0.1159387E+00
         21   -1    0    0  503  502  0.00000000000E+00  0.00000000000E+00  0.69634170453E+02  0.69634170453E+02  0.00000000000E+00 0.  1.
         21   -1    0    0  501  503 -0.00000000000E+00 -0.00000000000E+00 -0.56743199595E+03  0.56743199595E+03  0.00000000000E+00 0.  1.
          6    2    1    2  501    0  0.37512682437E+02 -0.68501175510E+02 -0.14840726817E+03  0.23973054459E+03  0.17130792269E+03 0.  0.
         24    2    3    3    0    0 -0.29192110051E+02 -0.49602880557E+02 -0.33687465444E+02  0.10560598297E+03  0.81885000230E+02 0.  0.
         -6    2    1    2    0  502 -0.37512682437E+02  0.68501175510E+02 -0.34939055733E+03  0.39733562181E+03  0.17234332716E+03 0.  0.
        -24    2    5    5    0    0 -0.76082785583E+02  0.47707745819E+02 -0.14446752562E+03  0.18772751486E+03  0.79411174295E+02 0.  0.
          5    1    3    3  501    0  0.66704792488E+02 -0.18898294953E+02 -0.11471980272E+03  0.13412456162E+03  0.47000000000E+01 0. -1.
        -13    1    4    4    0    0  0.10988357584E+02 -0.58006612884E+02 -0.20072530835E+02  0.62357177893E+02  0.00000000000E+00 0.  1.
         14    1    4    4    0    0 -0.40180467635E+02  0.84037323267E+01 -0.13614934610E+02  0.43248805080E+02  0.00000000000E+00 0. -1.
         -5    1    5    5    0  502  0.38570103146E+02  0.20793429691E+02 -0.20492303171E+03  0.20960810695E+03  0.47000000000E+01 0.  1.
         13    1    6    6    0    0 -0.74243535475E+02  0.66985626264E+02 -0.12705159474E+03  0.16168266577E+03  0.00000000000E+00 0. -1.
        -14    1    6    6    0    0 -0.18392501076E+01 -0.19277880445E+02 -0.17415930883E+02  0.26044849086E+02  0.00000000000E+00 0.  1.
</event>
<event>
12    1  0.8052519E-002  0.2065903E+03  0.7818608E-02  0.1145405E+00
         21   -1    0    0  503  502  0.00000000000E+00  0.00000000000E+00  0.34934330285E+03  0.34934330285E+03  0.00000000000E+00 0.  1.
         21   -1    0    0  501  503 -0.00000000000E+00 -0.00000000000E+00 -0.26280284192E+03  0.26280284192E+03  0.00000000000E+00 0.  1.
          6    2    1    2  501    0  0.86671944116E+02 -0.59248205793E+02 -0.18339586982E+03  0.27222677741E+03  0.17161292925E+03 0.  0.
         24    2    3    3    0    0 -0.17184244001E+02 -0.11798267047E+02 -0.10519326115E+03  0.13375171648E+03  0.79933735826E+02 0.  0.
         -6    2    1    2    0  502 -0.86671944116E+02  0.59248205793E+02  0.26993633074E+03  0.33991936736E+03  0.17792464097E+03 0.  0.
        -24    2    5    5    0    0 -0.11126930290E+02 -0.10300970095E+02  0.43823685336E+02  0.91538298450E+02  0.78922912541E+02 0.  0.
          5    1    3    3  501    0  0.10385618812E+03 -0.47449938746E+02 -0.78202608668E+02  0.13847506093E+03  0.47000000000E+01 0. -1.
        -11    1    4    4    0    0  0.21333710961E+00 -0.45016871352E+02 -0.54256295970E+02  0.70500424619E+02  0.00000000000E+00 0.  1.
         12    1    4    4    0    0 -0.17397581111E+02  0.33218604306E+02 -0.50936965176E+02  0.63251291860E+02  0.00000000000E+00 0. -1.
         -5    1    5    5    0  502 -0.75545013826E+02  0.69549175887E+02  0.22611264541E+03  0.24838106891E+03  0.47000000000E+01 0.  1.
         13    1    6    6    0    0  0.27129570704E+02  0.63756294765E+00  0.44061720036E+02  0.51747997697E+02  0.00000000000E+00 0. -1.
        -14    1    6    6    0    0 -0.38256500995E+02 -0.10938533042E+02 -0.23803469990E+00  0.39790300753E+02  0.00000000000E+00 0.  1.
</event>
<event>
12    1  0.8052519E-002  0.1804389E+03  0.7818608E-02  0.1167910E+00
         21   -1    0    0  503  502  0.00000000000E+00  0.00000000000E+00  0.10100916774E+04  0.10100916774E+04  0.00000000000E+00 0. -1.
         21   -1    0    0  501  503 -0.00000000000E+00 -0.00000000000E+00 -0.31894839382E+02  0.31894839382E+02  0.00000000000E+00 0. -1.
          6    2    1    2  501    0  0.45861414036E+02  0.80156758466E+01  0.46516060706E+03  0.49814428151E+03  0.17206340252E+03 0.  0.
         24    2    3    3    0    0  0.75190006744E+02  0.38029067560E+01  0.45287333614E+03  0.46572544748E+03  0.78344971919E+02 0.  0.
         -6    2    1    2    0  502 -0.45861414036E+02 -0.80156758466E+01  0.51303623098E+03  0.54384223529E+03  0.17432923516E+03 0.  0.
        -24    2    5    5    0    0  0.21098368125E+02 -0.45191761994E+02  0.19134875177E+03  0.21312997653E+03  0.79514813748E+02 0.  0.
          5    1    3    3  501    0 -0.29328592708E+02  0.42127690906E+01  0.12287270915E+02  0.32418834035E+02  0.47000000000E+01 0. -1.
        -11    1    4    4    0    0  0.31569155611E+02 -0.15036441816E+02  0.56018144176E+02  0.66035889071E+02  0.00000000000E+00 0.  1.
         12    1    4    4    0    0  0.43620851133E+02  0.18839348572E+02  0.39685519197E+03  0.39968955841E+03  0.00000000000E+00 0. -1.
         -5    1    5    5    0  502 -0.66959782161E+02  0.37176086147E+02  0.32168747922E+03  0.33071225876E+03  0.47000000000E+01 0.  1.
         13    1    6    6    0    0 -0.25168761028E+02  0.10904962022E+01  0.31031047055E+02  0.39969758505E+02  0.00000000000E+00 0. -1.
        -14    1    6    6    0    0  0.46267129154E+02 -0.46282258196E+02  0.16031770471E+03  0.17316021803E+03  0.00000000000E+00 0.  1.
</event>
<event>
12    1  0.8052519E-002  0.1769764E+03  0.7818608E-02  0.1171734E+00
         21   -1    0    0  501  502  0.00000000000E+00  0.00000000000E+00  0.49379733602E+03  0.49379733602E+03  0.00000000000E+00 0.  1.
         21   -1    0    0  502  503 -0.00000000000E+00 -0.00000000000E+00 -0.79433024542E+02  0.79433024542E+02  0.00000000000E+00 0.  1.
         -6    2    1    2    0  503 -0.27010503507E+02 -0.16572150769E+02  0.71291375695E+02  0.18719970220E+03  0.17016775480E+03 0.  0.
        -24    2    3    3    0    0 -0.77081335638E+02 -0.39496562783E+02  0.44380427690E+02  0.12572689505E+03  0.79599742470E+02 0.  0.
          6    2    1    2  501    0  0.27010503507E+02  0.16572150769E+02  0.34307293579E+03  0.38603065837E+03  0.17411612920E+03 0.  0.
         24    2    5    5    0    0  0.46256986350E+02 -0.17088158542E+02  0.33222791133E+03  0.34549489539E+03  0.80991504022E+02 0.  0.
          5    1    5    5  501    0 -0.19246482843E+02  0.33660309311E+02  0.10845024456E+02  0.40535762978E+02  0.47000000000E+01 0. -1.
        -11    1    6    6    0    0  0.25974120986E+01 -0.42914689807E+02  0.17890910148E+03  0.18400240146E+03  0.00000000000E+00 0.  1.
         12    1    6    6    0    0  0.43659574252E+02  0.25826531266E+02  0.15331880985E+03  0.16149249393E+03  0.00000000000E+00 0. -1.
         -5    1    3    3    0  503  0.50070832131E+02  0.22924412013E+02  0.26910948004E+02  0.61472807150E+02  0.47000000000E+01 0.  1.
         11    1    4    4    0    0 -0.40967690215E+02 -0.18493785307E+02  0.65087544263E+02  0.79099684922E+02  0.00000000000E+00 0. -1.
        -12    1    4    4    0    0 -0.36113645423E+02 -0.21002777475E+02 -0.20707116573E+02  0.46627210127E+02  0.00000000000E+00 0.  1.
</event>
<event>
12    1  0.8052519E-002  0.1748720E+03  0.7818608E-02  0.1172862E+00
         21   -1    0    0  503  502  0.00000000000E+00  0.00000000000E+00  0.62027777228E+03  0.62027777228E+03  0.00000000000E+00 0.  1.
         21   -1    0    0  501  503 -0.00000000000E+00 -0.00000000000E+00 -0.49571143763E+02  0.49571143763E+02  0.00000000000E+00 0.  1.
          6    2    1    2  501    0  0.18497343602E+02  0.22058240082E+02  0.31018632524E+03  0.35607981402E+03  0.17247770845E+03 0.  0.
         24    2    3    3    0    0  0.47201830451E+02  0.43222696678E+02  0.30178168344E+03  0.31913918880E+03  0.81739972208E+02 0.  0.
         -6    2    1    2    0  502 -0.18497343602E+02 -0.22058240082E+02  0.26052030328E+03  0.31376910202E+03  0.17248624087E+03 0.  0.
        -24    2    5    5    0    0  0.50079551685E+02 -0.69285424572E+01  0.91469621251E+02  0.13065186796E+03  0.78404418191E+02 0.  0.
          5    1    3    3  501    0 -0.28704486849E+02 -0.21164456596E+02  0.84046417936E+01  0.36940625224E+02  0.47000000000E+01 0. -1.
        -13    1    4    4    0    0  0.17256328781E+01 -0.18535906412E+02  0.20964175108E+02  0.28036659453E+02  0.00000000000E+00 0.  1.
         14    1    4    4    0    0  0.45476197573E+02  0.61758603090E+02  0.28081750834E+03  0.29110252934E+03  0.00000000000E+00 0. -1.
         -5    1    5    5    0  502 -0.68576895287E+02 -0.15129697624E+02  0.16905068203E+03  0.18311723407E+03  0.47000000000E+01 0.  1.
         11    1    6    6    0    0  0.41308880870E+02 -0.35164048305E+02  0.28942088730E+02  0.61486408514E+02  0.00000000000E+00 0. -1.
        -12    1    6    6    0    0  0.87706708149E+01  0.28235505848E+02  0.62527532522E+02  0.69165459445E+02  0.00000000000E+00 0.  1.
</event>
<event>
12    1  0.8052519E-002  0.1940080E+03  0.7818608E-02  0.1158653E+00
         21   -1    0    0  501  502  0.00000000000E+00  0.00000000000E+00  0.11314886780E+03  0.11314886780E+03  0.00000000000E+00 0. -1.
         21   -1    0    0  502  503 -0.00000000000E+00 -0.00000000000E+00 -0.39231175996E+03  0.39231175996E+03  0.00000000000E+00 0.  1.
         -6    2    1    2    0  503  0.50358846866E+00 -0.90758722407E+02 -0.25379121472E+03  0.30980064313E+03  0.15273852991E+03 0.  0.
        -24    2    3    3    0    0  0.32418734998E+02 -0.15847371025E+02 -0.85149676017E+02  0.12247113205E+03  0.80290705018E+02 0.  0.
          6    2    1    2  501    0 -0.50358846866E+00  0.90758722407E+02 -0.25371677442E+02  0.19565998464E+03  0.17146926336E+03 0.  0.
         24    2    5    5    0    0 -0.20683450351E+02 -0.15847221866E+02 -0.24114204336E+02  0.87051856861E+02  0.79483277317E+02 0.  0.
          5    1    5    5  501    0  0.20179861882E+02  0.10660594427E+03 -0.12574731054E+01  0.10860812777E+03  0.47000000000E+01 0. -1.
        -11    1    6    6    0    0  0.72771295447E+01 -0.42907516651E+02 -0.53338208507E+01  0.43845880587E+02  0.00000000000E+00 0.  1.
         12    1    6    6    0    0 -0.27960579895E+02  0.27060294785E+02 -0.18780383486E+02  0.43205976274E+02  0.00000000000E+00 0. -1.
         -5    1    3    3    0  503 -0.31915146530E+02 -0.74911351383E+02 -0.16864153870E+03  0.18732951108E+03  0.47000000000E+01 0.  1.
         11    1    4    4    0    0 -0.25125925553E+02 -0.16452998923E+02 -0.23490768815E+02  0.38129116538E+02  0.00000000000E+00 0. -1.
        -12    1    4    4    0    0  0.57544660551E+02  0.60562789810E+00 -0.61658907202E+02  0.84342015511E+02  0.00000000000E+00 0.  1.
</event>
<event>
12    1  0.8052519E-002  0.1753394E+03  0.7818608E-02  0.1172406E+00
         21   -1    0    0  501  502  0.00000000000E+00  0.00000000000E+00  0.36645418564E+03  0.36645418564E+03  0.00000000000E+00 0.  1.
         21   -1    0    0  502  503 -0.00000000000E+00 -0.00000000000E+00 -0.85521297831E+02  0.85521297831E+02  0.00000000000E+00 0.  1.
         -6    2    1    2    0  503 -0.14254301631E+02  0.32891864375E+02  0.10906923426E+03  0.20649459636E+03  0.17163583719E+03 0.  0.
        -24    2    3    3    0    0  0.47838444051E+02 -0.10911993110E+02  0.35714001633E+02  0.10077152816E+03  0.80447639190E+02 0.  0.
          6    2    1    2  501    0  0.14254301631E+02 -0.32891864375E+02  0.17186365355E+03  0.24548088711E+03  0.17157706918E+03 0.  0.
         24    2    5    5    0    0  0.53836525239E+02 -0.68750692666E+02  0.96704188957E+02  0.15315730881E+03  0.80501129736E+02 0.  0.
          5    1    5    5  501    0 -0.39582223609E+02  0.35858828290E+02  0.75159464597E+02  0.92323578303E+02  0.47000000000E+01 0. -1.
        -11    1    6    6    0    0  0.60374536155E+02 -0.12233886925E+02  0.45096892808E+02  0.76344497812E+02  0.00000000000E+00 0.  1.
         12    1    6    6    0    0 -0.65380109160E+01 -0.56516805741E+02  0.51607296149E+02  0.76812811000E+02  0.00000000000E+00 0. -1.
         -5    1    3    3    0  503 -0.62092745682E+02  0.43803857485E+02  0.73355232626E+02  0.10572306820E+03  0.47000000000E+01 0.  1.
         13    1    4    4    0    0  0.15103195008E+02 -0.28593311650E+02  0.51131110992E+02  0.60498549420E+02  0.00000000000E+00 0. -1.
        -14    1    4    4    0    0  0.32735249043E+02  0.17681318540E+02 -0.15417109360E+02  0.40272978736E+02  0.00000000000E+00 0.  1.
</event>
<event>
12    1  0.8052519E-002  0.1737149E+03  0.7818608E-02  0.1174689E+00
         21   -1    0    0  501  502  0.00000000000E+00  0.00000000000E+00  0.15476674335E+04  0.15476674335E+04  0.00000000000E+00 0. -1.
         21   -1    0    0  502  503 -0.00000000000E+00 -0.00000000000E+00 -0.22754109381E+02  0.22754109381E+02  0.00000000000E+00 0. -1.
         -6    2    1    2    0  503  0.30829009682E+02  0.14943561018E+02  0.44769316504E+03  0.47928446111E+03  0.16766241912E+03 0.  0.
        -24    2    3    3    0    0  0.28463454543E+02 -0.49168435238E+02  0.33666887950E+03  0.35097068206E+03  0.81282113488E+02 0.  0.
          6    2    1    2  501    0 -0.30829009682E+02 -0.14943561018E+02  0.10772201591E+04  0.10911370818E+04  0.17030303061E+03 0.  0.
         24    2    5    5    0    0 -0.84014802142E+01 -0.71539951772E+02  0.71455820666E+03  0.72337095057E+03  0.86507524854E+02 0.  0.
          5    1    5    5  501    0 -0.22427529468E+02  0.56596390754E+02  0.36266195245E+03  0.36776613122E+03  0.47000000000E+01 0. -1.
        -13    1    6    6    0    0  0.29453512738E+02 -0.43211590108E+01  0.11177516725E+03  0.11567138731E+03  0.00000000000E+00 0.  1.
         14    1    6    6    0    0 -0.37854992952E+02 -0.67218792761E+02  0.60278303941E+03  0.60769956326E+03  0.00000000000E+00 0. -1.
         -5    1    3    3    0  503  0.23655551392E+01  0.64111996257E+02  0.11102428554E+03  0.12831377906E+03  0.47000000000E+01 0.  1.
         11    1    4    4    0    0  0.54379353459E+02 -0.26906693435E+02  0.16192777991E+03  0.17292105176E+03  0.00000000000E+00 0. -1.
        -12    1    4    4    0    0 -0.25915898916E+02 -0.22261741804E+02  0.17474109959E+03  0.17804963030E+03  0.00000000000E+00 0.  1.
</event>
<event>
12    1  0.8052519E-002  0.2878590E+03  0.7818608E-02  0.1091513E+00
         21   -1    0    0  503  502  0.00000000000E+00  0.00000000000E+00  0.85531605300E+03  0.85531605300E+03  0.00000000000E+00 0. -1.
         21   -1    0    0  501  503 -0.00000000000E+00 -0.00000000000E+00 -0.99430002688E+02  0.99430002688E+02  0.00000000000E+00 0. -1.
          6    2    1    2  501    0 -0.20682197316E+03  0.10092749642E+03  0.29976089145E+03  0.41538258699E+03  0.17240769535E+03 0.  0.
         24    2    3    3    0    0 -0.10497306166E+03  0.40147596853E+02  0.25236312004E+03  0.28757008486E+03  0.79863860057E+02 0.  0.
         -6    2    1    2    0  502  0.20682197316E+03 -0.10092749642E+03  0.45612515887E+03  0.53936346870E+03  0.17291935318E+03 0.  0.
        -24    2    5    5    0    0  0.73498301997E+02 -0.10656352781E+03  0.20894355800E+03  0.25842254973E+03  0.79793595774E+02 0.  0.
          5    1    3    3  501    0 -0.10184891150E+03  0.60779899563E+02  0.47397771404E+02  0.12781250212E+03  0.47000000000E+01 0. -1.
        -11    1    4    4    0    0 -0.85949246555E+02  0.63754993405E+02  0.18551043355E+03  0.21416370636E+03  0.00000000000E+00 0.  1.
         12    1    4    4    0    0 -0.19023815106E+02 -0.23607396552E+02  0.66852686498E+02  0.73406378504E+02  0.00000000000E+00 0. -1.
         -5    1    5    5    0  502  0.13332367117E+03  0.56360313924E+01  0.24718160087E+03  0.28094091897E+03  0.47000000000E+01 0.  1.
         11    1    6    6    0    0  0.80318517761E+02 -0.56580275949E+02  0.16228254836E+03  0.18970508012E+03  0.00000000000E+00 0. -1.
        -12    1    6    6    0    0 -0.68202157642E+01 -0.49983251860E+02  0.46661009644E+02  0.68717469617E+02  0.00000000000E+00 0.  1.
</event>
<event>
12    1  0.8052519E-002  0.1798923E+03  0.7818608E-02  0.1168031E+00
         21   -1    0    0  503  502  0.00000000000E+00  0.00000000000E+00  0.27065050691E+03  0.27065050691E+03  0.00000000000E+00 0. -1.
         21   -1    0    0  501  503 -0.00000000000E+00 -0.00000000000E+00 -0.18270032259E+03  0.18270032259E+03  0.00000000000E+00 0. -1.
          6    2    1    2  501    0 -0.10413400968E+02 -0.57771901756E+02 -0.89669725248E+02  0.20054644114E+03  0.16950570455E+03 0.  0.
         24    2    3    3    0    0 -0.68138152183E+02 -0.25696206723E+02 -0.32949349637E+02  0.11336680977E+03  0.80394471788E+02 0.  0.
         -6    2    1    2    0  502  0.10413400968E+02  0.57771901756E+02  0.17761990957E+03  0.25280438836E+03  0.17004468515E+03 0.  0.
        -24    2    5    5    0    0 -0.41981168637E+00 -0.25342399914E+02  0.13330168565E+03  0.15787525368E+03  0.80702186179E+02 0.  0.
          5    1    3    3  501    0  0.57724751215E+02 -0.32075695032E+02 -0.56720375611E+02  0.87179631360E+02  0.47000000000E+01 0. -1.
        -13    1    4    4    0    0 -0.54670650760E+02 -0.30905609589E+02  0.13918063144E+02  0.64325339022E+02  0.00000000000E+00 0.  1.
         14    1    4    4    0    0 -0.13467501423E+02  0.52094028654E+01 -0.46867412781E+02  0.49041470753E+02  0.00000000000E+00 0. -1.
         -5    1    5    5    0  502  0.10833212654E+02  0.83114301670E+02  0.44318223920E+02  0.94929134674E+02  0.47000000000E+01 0.  1.
         13    1    6    6    0    0 -0.78075163911E+01  0.74048045028E+01  0.12197057423E+03  0.12244431150E+03  0.00000000000E+00 0. -1.
        -14    1    6    6    0    0  0.73877047047E+01 -0.32747204417E+02  0.11331111422E+02  0.35430942183E+02  0.00000000000E+00 0.  1.
</event>
<event>
12    1  0.8052519E-002  0.2450037E+03  0.7818608E-02  0.1116525E+00
         21   -1    0    0  501  502  0.00000000000E+00  0.00000000000E+00  0.24405180561E+03  0.24405180561E+03  0.00000000000E+00 0.  1.
         21   -1    0    0  502  503 -0.00000000000E+00 -0.00000000000E+00 -0.35236211498E+03  0.35236211498E+03  0.00000000000E+00 0.  1.
         -6    2    1    2    0  503 -0.17416277389E+03 -0.33784094746E+01 -0.21813851190E+03  0.32804148145E+03  0.17228673111E+03 0.  0.
        -24    2    3    3    0    0 -0.16902186446E+03  0.43463146063E+02 -0.14380157283E+03  0.23990164491E+03  0.80102878548E+02 0.  0.
          6    2    1    2  501    0  0.17416277389E+03  0.33784094746E+01  0.10982820252E+03  0.26837243914E+03  0.17209720090E+03 0.  0.
         24    2    5    5    0    0  0.11897880894E+03  0.68388733464E+02  0.71978697671E+02  0.17495784055E+03  0.81217837987E+02 0.  0.
          5    1    5    5  501    0  0.55183964950E+02 -0.65010323989E+02  0.37849504853E+02  0.93414598593E+02  0.47000000000E+01 0. -1.
        -13    1    6    6    0    0  0.98120930605E+02  0.84867683263E+02  0.72007787615E+02  0.14837574654E+03  0.00000000000E+00 0.  1.
         14    1    6    6    0    0  0.20857878340E+02 -0.16478949799E+02 -0.29089943940E-01  0.26582094002E+02  0.00000000000E+00 0. -1.
         -5    1    3    3    0  503 -0.51409094332E+01 -0.46841555538E+02 -0.74336939065E+02  0.88139836536E+02  0.47000000000E+01 0.  1.
         13    1    4    4    0    0 -0.42783901429E+01  0.27465469832E+01 -0.41374514365E+02  0.41685711958E+02  0.00000000000E+00 0. -1.
        -14    1    4    4    0    0 -0.16474347432E+03  0.40716599080E+02 -0.10242705847E+03  0.19821593296E+03  0.00000000000E+00 0.  1.
</event>
<event>
12    1  0.8052519E-002  0.2552695E+03  0.7818608E-02  0.1110028E+00
         21   -1    0    0  503  502  0.00000000000E+00  0.00000000000E+00  0.73614883008E+02  0.73614883008E+02  0.00000000000E+00 0. -1.
         21   -1    0    0  501  503 -0.00000000000E+00 -0.00000000000E+00 -0.16355793585E+04  0.16355793585E+04  0.00000000000E+00 0.  1.
          6    2    1    2  501    0 -0.14447391957E+03  0.12074828649E+03 -0.13599598902E+04  0.13837100290E+04  0.17236495975E+03 0.  0.
         24    2    3    3    0    0 -0.22861564319E+02  0.43954842202E+02 -0.80320844185E+03  0.80866128041E+03  0.79590113150E+02 0.  0.
         -6    2    1    2    0  502  0.14447391957E+03 -0.12074828649E+03 -0.20200458527E+03  0.32548421245E+03  0.17228249464E+03 0.  0.
        -24    2    5    5    0    0  0.13052097199E+03 -0.15133595558E+03 -0.14690250182E+03  0.26076466481E+03  0.80495775013E+02 0.  0.
          5    1    3    3  501    0 -0.12161235525E+03  0.76793444293E+02 -0.55675144833E+03  0.57504874859E+03  0.47000000000E+01 0. -1.
        -13    1    4    4    0    0 -0.51104687292E+02  0.25776632804E+02 -0.59673980725E+03  0.59947854125E+03  0.00000000000E+00 0.  1.
         14    1    4    4    0    0  0.28243122973E+02  0.18178209397E+02 -0.20646863460E+03  0.20918273916E+03  0.00000000000E+00 0. -1.
         -5    1    5    5    0  502  0.13952947579E+02  0.30587669084E+02 -0.55102083451E+02  0.64719547640E+02  0.47000000000E+01 0.  1.
         13    1    6    6    0    0  0.34996128733E+02 -0.94126194482E+02 -0.45824479687E+02  0.11038275433E+03  0.00000000000E+00 0. -1.
        -14    1    6    6    0    0  0.95524843262E+02 -0.57209761096E+02 -0.10107802213E+03  0.15038191049E+03  0.00000000000E+00 0.  1.
</event>
<event>
12    1  0.8052519E-002  0.1731625E+03  0.7818608E-02  0.1175204E+00
         21   -1    0    0  501  502  0.00000000000E+00  0.00000000000E+00  0.37974956311E+02  0.37974956311E+02  0.00000000000E+00 0. -1.
         21   -1    0    0  502  503 -0.00000000000E+00 -0.00000000000E+00 -0.13654585551E+04  0.13654585551E+04  0.00000000000E+00 0. -1.
         -6    2    1    2    0  503 -0.11394916222E+02 -0.16971341577E+02 -0.11263593627E+04  0.11395923193E+04  0.17195164945E+03 0.  0.
        -24    2    3    3    0    0 -0.43892074175E+02  0.19793712714E+02 -0.99655207222E+03  0.10007407541E+04  0.77767082343E+02 0.  0.
          6    2    1    2  501    0  0.11394916222E+02  0.16971341577E+02 -0.20112423605E+03  0.26384119205E+03  0.16953862612E+03 0.  0.
         24    2    5    5    0    0 -0.18367861738E+02  0.64125746157E+02 -0.15530763411E+03  0.19151822311E+03  0.90051534729E+02 0.  0.
          5    1    5    5  501    0  0.29762777960E+02 -0.47154404580E+02 -0.45816601942E+02  0.72322968943E+02  0.47000000000E+01 0. -1.
        -13    1    6    6    0    0  0.22160033318E+02  0.49257812487E+02 -0.36707151024E+02  0.65305544205E+02  0.00000000000E+00 0.  1.
         14    1    6    6    0    0 -0.40527895056E+02  0.14867933670E+02 -0.11860048308E+03  0.12621267891E+03  0.00000000000E+00 0. -1.
         -5    1    3    3    0  503  0.32497157953E+02 -0.36765054291E+02 -0.12980729047E+03  0.13885156518E+03  0.47000000000E+01 0.  1.
         13    1    4    4    0    0 -0.40283818308E+02  0.40255951048E+02 -0.42349023237E+03  0.42730235727E+03  0.00000000000E+00 0. -1.
        -14    1    4    4    0    0 -0.36082558669E+01 -0.20462238333E+02 -0.57306183985E+03  0.57343839686E+03  0.00000000000E+00 0.  1.
</event>
<event>
12    1  0.8052519E-002  0.1819325E+03  0.7818608E-02  0.1167432E+00
         21   -1    0    0  501  502  0.00000000000E+00  0.00000000000E+00  0.28074749257E+04  0.28074749257E+04  0.00000000000E+00 0. -1.
         21   -1    0    0  502  503 -0.00000000000E+00 -0.00000000000E+00 -0.34671110567E+02  0.34671110567E+02  0.00000000000E+00 0. -1.
         -6    2    1    2    0  503  0.33058826763E+02  0.10460551188E+02  0.22993087880E+03  0.29320239042E+03  0.17859765833E+03 0.  0.
        -24    2    3    3    0    0  0.73850969232E+02  0.50002415772E+02  0.11976357815E+03  0.16916013119E+03  0.79483508301E+02 0.  0.
          6    2    1    2  501    0 -0.33058826763E+02 -0.10460551188E+02  0.25428729364E+04  0.25489436459E+04  0.17236191647E+03 0.  0.
         24    2    5    5    0    0 -0.49719072238E+02 -0.41346874631E+02  0.23866941044E+04  0.23888016891E+04  0.76702098395E+02 0.  0.
          5    1    5    5  501    0  0.16660245475E+02  0.30886323442E+02  0.15617883196E+03  0.16014195674E+03  0.47000000000E+01 0. -1.
        -11    1    6    6    0    0  0.37574539104E+01 -0.35509020602E+02  0.47064875888E+03  0.47200133817E+03  0.00000000000E+00 0.  1.
         12    1    6    6    0    0 -0.53476526148E+02 -0.58378540287E+01  0.19160453455E+04  0.19168003510E+04  0.00000000000E+00 0. -1.
         -5    1    3    3    0  503 -0.40792142469E+02 -0.39541864584E+02  0.11016730065E+03  0.12404225923E+03  0.47000000000E+01 0.  1.
         13    1    4    4    0    0  0.38603071955E+02  0.65219204730E+02  0.54168322718E+02  0.93155509853E+02  0.00000000000E+00 0. -1.
        -14    1    4    4    0    0  0.35247897277E+02 -0.15216788958E+02  0.65595255433E+02  0.76004621333E+02  0.00000000000E+00 0.  1.
</event>
<event>
12    1  0.8052519E-002  0.2216052E+03  0.7818608E-02  0.1134011E+00
         21   -1    0    0  501  502  0.00000000000E+00  0.00000000000E+00  0.12986519277E+04  0.12986519277E+04  0.00000000000E+00 0. -1.
         21   -1    0    0  502  503 -0.00000000000E+00 -0.00000000000E+00 -0.70600515086E+03  0.70600515086E+03  0.00000000000E+00 0. -1.
         -6    2    1    2    0  503 -0.37762843244E+02  0.12361809778E+03 -0.67940518785E+03  0.71463295484E+03  0.18000384560E+03 0.  0.
        -24    2    3    3    0    0 -0.67516135242E+02  0.14962282107E+03 -0.59427857499E+03  0.62066416089E+03  0.71495166419E+02 0.  0.
          6    2    1    2  501    0  0.37762843244E+02 -0.12361809778E+03  0.12720519646E+04  0.12900241237E+04  0.17128506208E+03 0.  0.
         24    2    5    5    0    0  0.16477248585E+02 -0.87125828363E+02  0.41693764316E+03  0.43385395655E+03  0.80807472707E+02 0.  0.
          5    1    5    5  501    0  0.21285594660E+02 -0.36492269415E+02  0.85511432148E+03  0.85617016712E+03  0.47000000000E+01 0. -1.
        -11    1    6    6    0    0  0.38026341764E+02 -0.14235244400E+02  0.99990639249E+02  0.10792021492E+03  0.00000000000E+00 0.  1.
         12    1    6    6    0    0 -0.21549093179E+02 -0.72890583963E+02  0.31694700391E+03  0.32593374163E+03  0.00000000000E+00 0. -1.
         -5    1    3    3    0  503  0.29753291997E+02 -0.26004723292E+02 -0.85126612864E+02  0.93968793947E+02  0.47000000000E+01 0.  1.
         13    1    4    4    0    0 -0.52804798155E+02  0.12132815862E+03 -0.34761604028E+03  0.37194862581E+03  0.00000000000E+00 0. -1.
        -14    1    4    4    0    0 -0.14711337086E+02  0.28294662454E+02 -0.24666253471E+03  0.24871553508E+03  0.00000000000E+00 0.  1.
</event>
<event>
12    1  0.8052519E-002  0.2281962E+03  0.7818608E-02  0.1128206E+00
         21   -1    0    0  503  502  0.00000000000E+00  0.00000000000E+00  0.28405469175E+03  0.28405469175E+03  0.00000000000E+00 0.  1.
         21   -1    0    0  501  503 -0.00000000000E+00 -0.00000000000E+00 -0.19402321448E+03  0.19402321448E+03  0.00000000000E+00 0.  1.
          6    2    1    2  501    0 -0.17594228808E+02  0.14716986663E+03 -0.14295063449E+02  0.22864355960E+03  0.17350793058E+03 0.  0.
         24    2    3    3    0    0 -0.68507819445E+02  0.95042782342E+02  0.26067422816E+02  0.14521306801E+03  0.81736606177E+02 0.  0.
         -6    2    1    2    0  502  0.17594228808E+02 -0.14716986663E+03  0.10432654072E+03  0.24943434664E+03  0.17136201344E+03 0.  0.
        -24    2    5    5    0    0 -0.33995180366E+01 -0.57518009340E+01  0.61211338467E+02  0.10003281593E+03  0.78835882491E+02 0.  0.
          5    1    3    3  501    0  0.50913590638E+02  0.52127084292E+02 -0.40362486265E+02  0.83430491583E+02  0.47000000000E+01 0. -1.
        -11    1    4    4    0    0 -0.19163935727E+02  0.52592422678E+02 -0.26133982230E+02  0.61775435108E+02  0.00000000000E+00 0.  1.
         12    1    4    4    0    0 -0.49343883719E+02  0.42450359665E+02  0.52201405046E+02  0.83437632906E+02  0.00000000000E+00 0. -1.
         -5    1    5    5    0  502  0.20993746844E+02 -0.14141806570E+03  0.43115202258E+02  0.14940153071E+03  0.47000000000E+01 0.  1.
         11    1    6    6    0    0 -0.23750429599E+02 -0.47142183256E+01 -0.98252913041E+01  0.26131266900E+02  0.00000000000E+00 0. -1.
        -12    1    6    6    0    0  0.20350911563E+02 -0.10375826084E+01  0.71036629771E+02  0.73901549026E+02  0.00000000000E+00 0.  1.
</event>
<event>
12    1  0.8052519E-002  0.2187447E+03  0.7818608E-02  0.1134940E+00
         21   -1    0    0  501  502  0.00000000000E+00  0.00000000000E+00  0.68437827964E+03  0.68437827964E+03  0.00000000000E+00 0.  1.
         21   -1    0    0  502  503 -0.00000000000E+00 -0.00000000000E+00 -0.77138318160E+02  0.77138318160E+02  0.00000000000E+00 0.  1.
         -6    2    1    2    0  503 -0.13099076096E+03  0.29175563252E+02  0.18590763441E+03  0.28707296476E+03  0.17274097840E+03 0.  0.
        -24    2    3    3    0    0 -0.68099220937E+02 -0.82007144764E+01  0.25536729218E+02  0.11074018512E+03  0.83105405669E+02 0.  0.
          6    2    1    2  501    0  0.13099076096E+03 -0.29175563252E+02  0.42133232706E+03  0.47444363303E+03  0.17194777739E+03 0.  0.
         24    2    5    5    0    0  0.62663044140E+02 -0.63078535542E+02  0.34924964654E+03  0.36939083085E+03  0.81047588249E+02 0.  0.
          5    1    5    5  501    0  0.68327716816E+02  0.33902972290E+02  0.72082680528E+02  0.10505280219E+03  0.47000000000E+01 0. -1.
        -11    1    6    6    0    0  0.40219661143E+02 -0.99507194542E+01  0.25895704575E+03  0.26225062346E+03  0.00000000000E+00 0.  1.
         12    1    6    6    0    0  0.22443382997E+02 -0.53127816088E+02  0.90292600781E+02  0.10714020738E+03  0.00000000000E+00 0. -1.
         -5    1    3    3    0  503 -0.62891540018E+02  0.37376277728E+02  0.16037090520E+03  0.17633277964E+03  0.47000000000E+01 0.  1.
         11    1    4    4    0    0  0.40619137084E+01 -0.28818729816E+02 -0.53371651939E+01  0.29588911157E+02  0.00000000000E+00 0. -1.
        -12    1    4    4    0    0 -0.72161134646E+02  0.20618015339E+02  0.30873894411E+02  0.81151273964E+02  0.00000000000E+00 0.  1.
</event>
<event>
12    1  0.8052519E-002  0.1854034E+03  0.7818608E-02  0.1162912E+00
         21   -1    0    0  503  502  0.00000000000E+00  0.00000000000E+00  0.49432404760E+02  0.49432404760E+02  0.00000000000E+00 0. -1.
         21   -1    0    0  501  503 -0.00000000000E+00 -0.00000000000E+00 -0.71005600723E+03  0.71005600723E+03  0.00000000000E+00 0. -1.
          6    2    1    2  501    0  0.67497902422E+02 -0.21562513165E+02 -0.26990326305E+03  0.32744798645E+03  0.17132864215E+03 0.  0.
         24    2    3    3    0    0  0.87041106781E+02 -0.67249498537E+02 -0.19855012008E+03  0.24036986933E+03  0.79100408192E+02 0.  0.
         -6    2    1    2    0  502 -0.67497902422E+02  0.21562513165E+02 -0.39072033942E+03  0.43204042554E+03  0.17022231598E+03 0.  0.
        -24    2    5    5    0    0 -0.15226530203E+01 -0.22005928732E+02 -0.95452681057E+02  0.12633464748E+03  0.79766217548E+02 0.  0.
          5    1    3    3  501    0 -0.19543204359E+02  0.45686985372E+02 -0.71353142969E+02  0.87078117117E+02  0.47000000000E+01 0. -1.
        -11    1    4    4    0    0 -0.12738017533E+02 -0.22858479981E+02 -0.42235665526E+02  0.49685195382E+02  0.00000000000E+00 0.  1.
         12    1    4    4    0    0  0.99779124314E+02 -0.44391018556E+02 -0.15631445455E+03  0.19068467395E+03  0.00000000000E+00 0. -1.
         -5    1    5    5    0  502 -0.65975249402E+02  0.43568441897E+02 -0.29526765836E+03  0.30570577806E+03  0.47000000000E+01 0.  1.
         11    1    6    6    0    0 -0.12623218533E+02 -0.42253750778E+02 -0.21890188494E+02  0.49233174316E+02  0.00000000000E+00 0. -1.
        -12    1    6    6    0    0  0.11100565512E+02  0.20247822046E+02 -0.73562492563E+02  0.77101473166E+02  0.00000000000E+00 0.  1.
</event>
<event>
12    1  0.8052519E-002  0.2033726E+03  0.7818608E-02  0.1146946E+00
         21   -1    0    0  503  502  0.00000000000E+00  0.00000000000E+00  0.38034517634E+03  0.38034517634E+03  0.00000000000E+00 0. -1.
         21   -1    0    0  501  503 -0.00000000000E+00 -0.00000000000E+00 -0.11310204202E+03  0.11310204202E+03  0.00000000000E+00 0. -1.
          6    2    1    2  501    0  0.10398085276E+03 -0.33462215406E+02  0.84909587605E+02  0.22038610409E+03  0.17154783359E+03 0.  0.
         24    2    3    3    0    0  0.46844791581E+02 -0.12864348448E+02  0.11740669478E+03  0.15134297565E+03  0.82221884808E+02 0.  0.
         -6    2    1    2    0  502 -0.10398085276E+03  0.33462215406E+02  0.18233354671E+03  0.27306111427E+03  0.17142086300E+03 0.  0.
        -24    2    5    5    0    0 -0.11733948133E+03  0.67929300986E+02  0.17515501849E+03  0.23511306804E+03  0.78841172273E+02 0.  0.
          5    1    3    3  501    0  0.57136061177E+02 -0.20597866958E+02 -0.32497107172E+02  0.69043128439E+02  0.47000000000E+01 0. -1.
        -13    1    4    4    0    0 -0.97876744230E+01 -0.30640462787E+02  0.21967322150E+02  0.38951248669E+02  0.00000000000E+00 0.  1.
         14    1    4    4    0    0  0.56632466004E+02  0.17776114339E+02  0.95439372626E+02  0.11239172698E+03  0.00000000000E+00 0. -1.
         -5    1    5    5    0  502  0.13358628576E+02 -0.34467085581E+02  0.71785282171E+01  0.37948046237E+02  0.47000000000E+01 0.  1.
         11    1    6    6    0    0 -0.74750295306E+02  0.80546240208E+02  0.14266827145E+03  0.18008203447E+03  0.00000000000E+00 0. -1.
        -12    1    6    6    0    0 -0.42589186028E+02 -0.12616939221E+02  0.32486747040E+02  0.55031033564E+02  0.00000000000E+00 0.  1.
</event>
<event>
12    1  0.8052519E-002  0.1829729E+03  0.7818608E-02  0.1165001E+00
         21   -1    0    0  501  502  0.00000000000E+00  0.00000000000E+00  0.13825487376E+02  0.13825487376E+02  0.00000000000E+00 0. -1.
         21   -1    0    0  502  503 -0.00000000000E+00 -0.00000000000E+00 -0.24962223527E+04  0.24962223527E+04  0.00000000000E+00 0. -1.
         -6    2    1    2    0  503  0.31568871259E+02  0.53118049682E+02 -0.14612200089E+04  0.14726080785E+04  0.17202475904E+03 0.  0.
        -24    2    3    3    0    0  0.26050394257E+00  0.99102087551E+02 -0.10212484411E+04  0.10291085677E+04  0.79339612607E+02 0.  0.
          6    2    1    2  501    0 -0.31568871259E+02 -0.53118049682E+02 -0.10211768564E+04  0.10374397615E+04  0.17222359273E+03 0.  0.
         24    2    5    5    0    0 -0.69002499326E+02 -0.71048731709E+02 -0.90624642265E+03  0.91515370152E+03  0.80090271851E+02 0.  0.
          5    1    5    5  501    0  0.37433628066E+02  0.17930682027E+02 -0.11493043376E+03  0.12228606001E+03  0.47000000000E+01 0. -1.
        -11    1    6    6    0    0 -0.32979714383E+02 -0.41689866900E+02 -0.75642652761E+03  0.75829202702E+03  0.00000000000E+00 0.  1.
         12    1    6    6    0    0 -0.36022784943E+02 -0.29358864809E+02 -0.14981989504E+03  0.15686167450E+03  0.00000000000E+00 0. -1.
         -5    1    3    3    0  503  0.31308367317E+02 -0.45984037869E+02 -0.43997156779E+03  0.44349951079E+03  0.47000000000E+01 0.  1.
         11    1    4    4    0    0  0.13335839805E+02  0.18218788314E+02 -0.57228246013E+03  0.57272766917E+03  0.00000000000E+00 0. -1.
        -12    1    4    4    0    0 -0.13075335862E+02  0.80883299237E+02 -0.44896598097E+03  0.45638089856E+03  0.00000000000E+00 0.  1.
</event>
<event>
12    1  0.8052519E-002  0.1960267E+03  0.7818608E-02  0.1153272E+00
         21   -1    0    0  501  502  0.00000000000E+00  0.00000000000E+00  0.11994010787E+03  0.11994010787E+03  0.00000000000E+00 0.  1.
         21   -1    0    0  502  503 -0.00000000000E+00 -0.00000000000E+00 -0.32393331309E+03  0.32393331309E+03  0.00000000000E+00 0.  1.
         -6    2    1    2    0  503 -0.87109426482E+02 -0.34435195858E+02 -0.75757453015E+02  0.21015629521E+03  0.17219942460E+03 0.  0.
        -24    2    3    3    0    0 -0.87448759054E+02 -0.70198959905E+01 -0.11318002617E+03  0.16352741152E+03  0.78961583034E+02 0.  0.
          6    2    1    2  501    0  0.87109426482E+02  0.34435195858E+02 -0.12823575220E+03  0.23371712574E+03  0.17148017911E+03 0.  0.
         24    2    5    5    0    0  0.10178169871E+03  0.10938726541E+02 -0.14996192723E+03  0.19819985777E+03  0.79469705379E+02 0.  0.
          5    1    5    5  501    0 -0.14672272225E+02  0.23496469318E+02  0.21726175027E+02  0.35517267969E+02  0.47000000000E+01 0. -1.
        -13    1    6    6    0    0  0.91012351772E+02  0.31831750539E+01 -0.64213460870E+02  0.11143046861E+03  0.00000000000E+00 0.  1.
         14    1    6    6    0    0  0.10769346936E+02  0.77555514866E+01 -0.85748466360E+02  0.86769389161E+02  0.00000000000E+00 0. -1.
         -5    1    3    3    0  503  0.33933257179E+00 -0.27415299868E+02  0.37422573150E+02  0.46628883694E+02  0.47000000000E+01 0.  1.
         11    1    4    4    0    0 -0.87606955908E+01  0.16572946735E+02 -0.66394196515E+02  0.68989866513E+02  0.00000000000E+00 0. -1.
        -12    1    4    4    0    0 -0.78688063463E+02 -0.23592842726E+02 -0.46785829651E+02  0.94537545005E+02  0.00000000000E+00 0.  1.
</event>
<event>
12    1  0.8052519E-002  0.1694064E+03  0.7818608E-02  0.1178526E+00
         21   -1    0    0  503  502  0.00000000000E+00  0.00000000000E+00  0.43374268215E+03  0.43374268215E+03  0.00000000000E+00 0. -1.
         21   -1    0    0  501  503 -0.00000000000E+00 -0.00000000000E+00 -0.18943869284E+03  0.18943869284E+03  0.00000000000E+00 0. -1.
          6    2    1    2  501    0  0.15403652854E+02  0.82893853249E+01 -0.12926151523E+03  0.21308936155E+03  0.16850089096E+03 0.  0.
         24    2    3    3    0    0  0.70752191175E+02  0.21994233584E+02 -0.64094966072E+02  0.12637112420E+03  0.79824040790E+02 0.  0.
         -6    2    1    2    0  502 -0.15403652854E+02 -0.82893853249E+01  0.37356550455E+03  0.41009201344E+03  0.16828038173E+03 0.  0.
        -24    2    5    5    0    0 -0.15416448276E+02  0.46923581228E+02  0.32032696858E+03  0.33324864320E+03  0.77497109884E+02 0.  0.
          5    1    3    3  501    0 -0.55348538321E+02 -0.13704848259E+02 -0.65166549160E+02  0.86718237352E+02  0.47000000000E+01 0. -1.
        -13    1    4    4    0    0 -0.92211562004E+01 -0.12687750474E+02 -0.27856805446E+02  0.31968896500E+02  0.00000000000E+00 0.  1.
         14    1    4    4    0    0  0.79973347375E+02  0.34681984058E+02 -0.36238160626E+02  0.94402227697E+02  0.00000000000E+00 0. -1.
         -5    1    5    5    0  502  0.12795421874E-01 -0.55212966553E+02  0.53238535967E+02  0.76843370249E+02  0.47000000000E+01 0.  1.
         11    1    6    6    0    0 -0.20080188733E+02  0.13830971523E+02  0.27916642854E+03  0.28022920008E+03  0.00000000000E+00 0. -1.
        -12    1    6    6    0    0  0.46637404571E+01  0.33092609705E+02  0.41160540036E+02  0.53019443115E+02  0.00000000000E+00 0.  1.
</event>
<event>
12    1  0.8052519E-002  0.1936100E+03  0.7818608E-02  0.1155305E+00
         21   -1    0    0  501  502  0.00000000000E+00  0.00000000000E+00  0.30687854166E+03  0.30687854166E+03  0.00000000000E+00 0. -1.
         21   -1    0    0  502  503 -0.00000000000E+00 -0.00000000000E+00 -0.12998380815E+03  0.12998380815E+03  0.00000000000E+00 0.  1.
         -6    2    1    2    0  503 -0.28254659292E+02  0.85156011734E+02  0.14271382420E+03  0.24052459744E+03  0.17156623867E+03 0.  0.
        -24    2    3    3    0    0 -0.20899295194E+02 -0.81443476217E+01  0.11695263323E+03  0.14334030140E+03  0.79783536201E+02 0.  0.
          6    2    1    2  501    0  0.28254659292E+02 -0.85156011734E+02  0.34180909309E+02  0.19633775236E+03  0.17126093056E+03 0.  0.
         24    2    5    5    0    0  0.42212357513E+02 -0.78368058443E+02 -0.34125342282E+02  0.12613285470E+03  0.82592507754E+02 0.  0.
          5    1    5    5  501    0 -0.13957698221E+02 -0.67879532912E+01  0.68306251592E+02  0.70204897664E+02  0.47000000000E+01 0. -1.
        -11    1    6    6    0    0  0.62587938011E+02 -0.58815182782E+02 -0.57169941893E+01  0.86076476071E+02  0.00000000000E+00 0.  1.
         12    1    6    6    0    0 -0.20375580498E+02 -0.19552875661E+02 -0.28408348093E+02  0.40056378626E+02  0.00000000000E+00 0. -1.
         -5    1    3    3    0  503 -0.73553640980E+01  0.93300359356E+02  0.25761190969E+02  0.97184296042E+02  0.47000000000E+01 0.  1.
         13    1    4    4    0    0  0.56881333908E+01  0.29014647873E+02  0.77587633659E+02  0.83030389313E+02  0.00000000000E+00 0. -1.
        -14    1    4    4    0    0 -0.26587428585E+02 -0.37158995495E+02  0.39364999571E+02  0.60309912089E+02  0.00000000000E+00 0.  1.
</event>
<event>
12    1  0.8052519E-002  0.1746661E+03  0.7818608E-02  0.1175720E+00
         21   -1    0    0  501  502  0.00000000000E+00  0.00000000000E+00  0.12849179413E+03  0.12849179413E+03  0.00000000000E+00 0. -1.
         21   -1    0    0  502  503 -0.00000000000E+00 -0.00000000000E+00 -0.54213019606E+03  0.54213019606E+03  0.00000000000E+00 0. -1.
         -6    2    1    2    0  503  0.16213118781E+02 -0.23124946195E+02 -0.46629715426E+03  0.49793701108E+03  0.17236763782E+03 0.  0.
        -24    2    3    3    0    0  0.17668941881E+02 -0.73484399108E+02 -0.40146089169E+03  0.41569331915E+03  0.76928145707E+02 0.  0.
          6    2    1    2  501    0 -0.16213118781E+02  0.23124946195E+02  0.52658752340E+02  0.17268497912E+03  0.16201706533E+03 0.  0.
         24    2    5    5    0    0  0.42062018008E+02  0.45413917251E+02  0.34296123981E+02  0.10747711212E+03  0.80891707051E+02 0.  0.
          5    1    5    5  501    0 -0.58275136789E+02 -0.22288971056E+02  0.18362628359E+02  0.65207867001E+02  0.47000000000E+01 0. -1.
        -11    1    6    6    0    0  0.17358665568E+01  0.79993500687E+01 -0.25171023039E+02  0.26468532922E+02  0.00000000000E+00 0.  1.
         12    1    6    6    0    0  0.40326151451E+02  0.37414567182E+02  0.59467147020E+02  0.81008579194E+02  0.00000000000E+00 0. -1.
         -5    1    3    3    0  503 -0.14558231001E+01  0.50359452914E+02 -0.64836262570E+02  0.82243691932E+02  0.47000000000E+01 0.  1.
         13    1    4    4    0    0  0.26429771977E+02 -0.67830205981E+02 -0.18248690585E+03  0.19647122053E+03  0.00000000000E+00 0. -1.
        -14    1    4    4    0    0 -0.87608300956E+01 -0.56541931273E+01 -0.21897398585E+03  0.21922209862E+03  0.00000000000E+00 0.  1.
</event>
<event>
12    1  0.8052519E-002  0.1734109E+03  0.7818608E-02  0.1174483E+00
         21   -1    0    0  501  502  0.00000000000E+00  0.00000000000E+00  0.24432462457E+03  0.24432462457E+03  0.00000000000E+00 0. -1.
         21   -1    0    0  502  503 -0.00000000000E+00 -0.00000000000E+00 -0.12429778721E+03  0.12429778721E+03  0.00000000000E+00 0. -1.
         -6    2    1    2    0  503  0.15360543826E+02 -0.70058954635E+01  0.38830572047E+02  0.17714353539E+03  0.17200869143E+03 0.  0.
        -24    2    3    3    0    0 -0.27342243685E+02 -0.60833278368E+02  0.13237615944E+02  0.10367242125E+03  0.78258867900E+02 0.  0.
          6    2    1    2  501    0 -0.15360543826E+02  0.70058954635E+01  0.81196265310E+02  0.19147887639E+03  0.17258707288E+03 0.  0.
         24    2    5    5    0    0 -0.62383310120E+02  0.21369967647E+02  0.92714093777E+02  0.14076184284E+03  0.82883293343E+02 0.  0.
          5    1    5    5  501    0  0.47022766294E+02 -0.14364072183E+02 -0.11517828467E+02  0.50717033551E+02  0.47000000000E+01 0. -1.
        -13    1    6    6    0    0 -0.17661674053E+02 -0.20434734823E+02 -0.29675947416E+01  0.27172039603E+02  0.00000000000E+00 0.  1.
         14    1    6    6    0    0 -0.44721636067E+02  0.41804702469E+02  0.95681688519E+02  0.11358980323E+03  0.00000000000E+00 0. -1.
         -5    1    3    3    0  503  0.42702787511E+02  0.53827382905E+02  0.25592956103E+02  0.73471114145E+02  0.47000000000E+01 0.  1.
         13    1    4    4    0    0  0.23667239758E+02 -0.42444309007E+02  0.57981036145E+01  0.48941553003E+02  0.00000000000E+00 0. -1.
        -14    1    4    4    0    0 -0.51009483443E+02 -0.18388969361E+02  0.74395123294E+01  0.54730868246E+02  0.00000000000E+00 0.  1.
</event>
<event>
12    1  0.8052519E-002  0.2416293E+03  0.7818608E-02  0.1118780E+00
         21   -1    0    0  501  502  0.00000000000E+00  0.00000000000E+00  0.10352792939E+04  0.10352792939E+04  0.00000000000E+00 0.  1.
         21   -1    0    0  502  503 -0.00000000000E+00 -0.00000000000E+00 -0.56332435376E+02  0.56332435376E+02  0.00000000000E+00 0.  1.
         -6    2    1    2    0  503 -0.39334462411E+01  0.16953636517E+03  0.47596714355E+03  0.53360339982E+03  0.17155120357E+03 0.  0.
        -24    2    3    3    0    0  0.53744962249E+01  0.44577533256E+02  0.10416417973E+03  0.14122490732E+03  0.84132374444E+02 0.  0.
          6    2    1    2  501    0  0.39334462411E+01 -0.16953636517E+03  0.50297971502E+03  0.55800832950E+03  0.17212394069E+03 0.  0.
         24    2    5    5    0    0  0.40708394868E+02 -0.20882806785E+02  0.15548935632E+03  0.17824272198E+03  0.74163757852E+02 0.  0.
          5    1    5    5  501    0 -0.36774948627E+02 -0.14865355838E+03  0.34749035870E+03  0.37976560752E+03  0.47000000000E+01 0. -1.
        -11    1    6    6    0    0  0.25777396154E+02 -0.47188864667E+02  0.75213528231E+02  0.92457222163E+02  0.00000000000E+00 0.  1.
         12    1    6    6    0    0  0.14930998714E+02  0.26306057882E+02  0.80275828085E+02  0.85785499816E+02  0.00000000000E+00 0. -1.
         -5    1    3    3    0  503 -0.93079424659E+01  0.12495883191E+03  0.37180296382E+03  0.39237849249E+03  0.47000000000E+01 0.  1.
         13    1    4    4    0    0 -0.25129370119E+02  0.55473287020E+02  0.53339929633E+02  0.80956277759E+02  0.00000000000E+00 0. -1.
        -14    1    4    4    0    0  0.30503866344E+02 -0.10895753764E+02  0.50824250094E+02  0.60268629565E+02  0.00000000000E+00 0.  1.
</event>
<event>
12    1  0.8052519E-002  0.1954106E+03  0.7818608E-02  0.1154580E+00
         21   -1    0    0  501  502  0.00000000000E+00  0.00000000000E+00  0.30989595900E+03  0.30989595900E+03  0.00000000000E+00 0. -1.
         21   -1    0    0  502  503 -0.00000000000E+00 -0.00000000000E+00 -0.26235567524E+03  0.26235567524E+03  0.00000000000E+00 0.  1.
         -6    2    1    2    0  503  0.36745623513E+02  0.73578423061E+02 -0.18641005471E+03  0.27006296833E+03  0.17726046705E+03 0.  0.
        -24    2    3    3    0    0  0.71262040831E+02 -0.64881285838E+01 -0.11487241271E+03  0.15718356375E+03  0.79941398751E+02 0.  0.
          6    2    1    2  501    0 -0.36745623513E+02 -0.73578423061E+02  0.23395033848E+03  0.30218866591E+03  0.17268816908E+03 0.  0.
         24    2    5    5    0    0  0.37057604232E+00 -0.50785029080E+02  0.23859749215E+03  0.25813373297E+03  0.84409740754E+02 0.  0.
          5    1    5    5  501    0 -0.37116199555E+02 -0.22793393980E+02 -0.46471536693E+01  0.44054932933E+02  0.47000000000E+01 0. -1.
        -11    1    6    6    0    0  0.31825038408E+02 -0.43091664396E+01  0.14892413006E+03  0.15234762387E+03  0.00000000000E+00 0.  1.
         12    1    6    6    0    0 -0.31454462365E+02 -0.46475862641E+02  0.89673362090E+02  0.10578610910E+03  0.00000000000E+00 0. -1.
         -5    1    3    3    0  503 -0.34516417319E+02  0.80066551644E+02 -0.71537642000E+02  0.11287940459E+03  0.47000000000E+01 0.  1.
         11    1    4    4    0    0 -0.15084381500E+02 -0.77737548179E+01 -0.37806199866E+02  0.41440060057E+02  0.00000000000E+00 0. -1.
        -12    1    4    4    0    0  0.86346422331E+02  0.12856262341E+01 -0.77066212845E+02  0.11574350369E+03  0.00000000000E+00 0.  1.
</event>
<event>
12    1  0.8052519E-002  0.2102523E+03  0.7818608E-02  0.1141591E+00
         21   -1    0    0  501  502  0.00000000000E+00  0.00000000000E+00  0.22057242041E+03  0.22057242041E+03  0.00000000000E+00 0. -1.
         21   -1    0    0  502  503 -0.00000000000E+00 -0.00000000000E+00 -0.43507693287E+03  0.43507693287E+03  0.00000000000E+00 0.  1.
         -6    2    1    2    0  503  0.10137659331E+03  0.61962908797E+02 -0.34842990227E+03  0.40636629992E+03  0.17208590056E+03 0.  0.
        -24    2    3    3    0    0  0.12221658796E+03  0.18974805441E+02 -0.18470868643E+03  0.23575267524E+03  0.78518070706E+02 0.  0.
          6    2    1    2  501    0 -0.10137659331E+03 -0.61962908797E+02  0.13392538980E+03  0.24928305336E+03  0.17346300736E+03 0.  0.
         24    2    5    5    0    0 -0.15417603212E+02 -0.83682982517E+02  0.10222318590E+03  0.15500776862E+03  0.79607063409E+02 0.  0.
          5    1    5    5  501    0 -0.85958990100E+02  0.21720073720E+02  0.31702203898E+02  0.94275284743E+02  0.47000000000E+01 0. -1.
        -11    1    6    6    0    0 -0.31492736702E-01 -0.99542089189E+01 -0.13597517206E+02  0.16851698465E+02  0.00000000000E+00 0.  1.
         12    1    6    6    0    0 -0.15386110475E+02 -0.73728773599E+02  0.11582070311E+03  0.13815607016E+03  0.00000000000E+00 0. -1.
         -5    1    3    3    0  503 -0.20839994649E+02  0.42988103356E+02 -0.16372121584E+03  0.17061362468E+03  0.47000000000E+01 0.  1.
         11    1    4    4    0    0  0.73564515631E+02  0.41950456121E+02 -0.14833648679E+03  0.17080776341E+03  0.00000000000E+00 0. -1.
        -12    1    4    4    0    0  0.48652072330E+02 -0.22975650680E+02 -0.36372199641E+02  0.64944911832E+02  0.00000000000E+00 0.  1.
</event>
<event>
12    1  0.8052519E-002  0.1854724E+03  0.7818608E-02  0.1162749E+00
         21   -1    0    0  503  502  0.00000000000E+00  0.00000000000E+00  0.30020978302E+03  0.30020978302E+03  0.00000000000E+00 0.  1.
         21   -1    0    0  501  503 -0.00000000000E+00 -0.00000000000E+00 -0.11548549292E+03  0.11548549292E+03  0.00000000000E+00 0. -1.
          6    2    1    2  501    0  0.13642703816E+02  0.67861936114E+02  0.11398965720E+03  0.21719240309E+03  0.17142792151E+03 0.  0.
         24    2    3    3    0    0  0.61445677070E+02 -0.19398120389E+01  0.61521266452E+02  0.11753082411E+03  0.79052478075E+02 0.  0.
         -6    2    1    2    0  502 -0.13642703816E+02 -0.67861936114E+02  0.70734632903E+02  0.19850287284E+03  0.17207160281E+03 0.  0.
        -24    2    5    5    0    0 -0.42189875980E+02 -0.32270398371E+02 -0.20015915154E+02  0.96819783936E+02  0.78435128965E+02 0.  0.
          5    1    3    3  501    0 -0.47802973254E+02  0.69801748152E+02  0.52468390750E+02  0.99661578981E+02  0.47000000000E+01 0. -1.
        -13    1    4    4    0    0  0.53048675293E+02  0.11347307890E+02  0.22273502160E+00  0.54249174718E+02  0.00000000000E+00 0.  1.
         14    1    4    4    0    0  0.83970017767E+01 -0.13287119929E+02  0.61298531430E+02  0.63281649396E+02  0.00000000000E+00 0. -1.
         -5    1    5    5    0  502  0.28547172163E+02 -0.35591537743E+02  0.90750548057E+02  0.10168308891E+03  0.47000000000E+01 0.  1.
         13    1    6    6    0    0  0.20028488330E+02  0.62210540535E+01 -0.90441442348E+01  0.22839404617E+02  0.00000000000E+00 0. -1.
        -14    1    6    6    0    0 -0.62218364309E+02 -0.38491452425E+02 -0.10971770919E+02  0.73980379319E+02  0.00000000000E+00 0.  1.
</event>
<event>
12    1  0.8052519E-002  0.3853774E+03  0.7818608E-02  0.1048964E+00
         21   -1    0    0  503  502  0.00000000000E+00  0.00000000000E+00  0.15326944088E+04  0.15326944088E+04  0.00000000000E+00 0.  1.
         21   -1    0    0  501  503 -0.00000000000E+00 -0.00000000000E+00 -0.10011655263E+03  0.10011655263E+03  0.00000000000E+00 0. -1.
          6    2    1    2  501    0 -0.33086450861E+03  0.97259380443E+02  0.86267217220E+03  0.94483693921E+03  0.17199667109E+03 0.  0.
         24    2    3    3    0    0 -0.27312288541E+03  0.62588610066E+02  0.80920043566E+03  0.85871218100E+03  0.63779464386E+02 0.  0.
         -6    2    1    2    0  502  0.33086450861E+03 -0.97259380443E+02  0.56990568401E+03  0.68797402227E+03  0.17200307122E+03 0.  0.
        -24    2    5    5    0    0  0.28442956849E+03 -0.24745898885E+02  0.47606628916E+03  0.56052861946E+03  0.77721828425E+02 0.  0.
          5    1    3    3  501    0 -0.57741623198E+02  0.34670770377E+02  0.53471736535E+02  0.86124758207E+02  0.47000000000E+01 0. -1.
        -11    1    4    4    0    0 -0.19486603492E+03  0.46741508285E+02  0.48382722316E+03  0.52368532730E+03  0.00000000000E+00 0.  1.
         12    1    4    4    0    0 -0.78256850486E+02  0.15847101781E+02  0.32537321251E+03  0.33502685370E+03  0.00000000000E+00 0. -1.
         -5    1    5    5    0  502  0.46434940111E+02 -0.72513481558E+02  0.93839394848E+02  0.12744540281E+03  0.47000000000E+01 0.  1.
         13    1    6    6    0    0  0.15322715202E+03  0.86268331856E+01  0.19156429767E+03  0.24545847410E+03  0.00000000000E+00 0. -1.
        -14    1    6    6    0    0  0.13120241648E+03 -0.33372732071E+02  0.28450199149E+03  0.31507014536E+03  0.00000000000E+00 0.  1.
</event>
<event>
12    1  0.8052519E-002  0.2070765E+03  0.7818608E-02  0.1146138E+00
         21   -1    0    0  503  502  0.00000000000E+00  0.00000000000E+00  0.11769790479E+03  0.11769790479E+03  0.00000000000E+00 0. -1.
         21   -1    0    0  501  503 -0.00000000000E+00 -0.00000000000E+00 -0.51880225239E+03  0.51880225239E+03  0.00000000000E+00 0. -1.
          6    2    1    2  501    0 -0.70202209793E+02  0.61700645277E+02 -0.38081578195E+03  0.42843212348E+03  0.17262127553E+03 0.  0.
         24    2    3    3    0    0 -0.10525732616E+02  0.50616459107E+02 -0.34649754841E+03  0.35854670108E+03  0.76304448234E+02 0.  0.
         -6    2    1    2    0  502  0.70202209793E+02 -0.61700645277E+02 -0.20288565653E+02  0.20806803370E+03  0.18478463373E+03 0.  0.
        -24    2    5    5    0    0  0.25497338553E+02 -0.10489664124E+03  0.17597328750E+02  0.13511701880E+03  0.79331728682E+02 0.  0.
          5    1    3    3  501    0 -0.59676477177E+02  0.11084186169E+02 -0.34318233532E+02  0.69885422400E+02  0.47000000000E+01 0. -1.
        -13    1    4    4    0    0  0.26814253159E+02 -0.47612470758E+00 -0.71563914029E+02  0.76423979603E+02  0.00000000000E+00 0.  1.
         14    1    4    4    0    0 -0.37339985775E+02  0.51092583815E+02 -0.27493363438E+03  0.28212272148E+03  0.00000000000E+00 0. -1.
         -5    1    5    5    0  502  0.44704871240E+02  0.43195995959E+02 -0.37885894404E+02  0.72951014895E+02  0.47000000000E+01 0.  1.
         11    1    6    6    0    0  0.53318714313E+02 -0.66983686546E+02  0.22253092755E+01  0.85642580301E+02  0.00000000000E+00 0. -1.
        -12    1    6    6    0    0 -0.27821375760E+02 -0.37912954689E+02  0.15372019475E+02  0.49474438503E+02  0.00000000000E+00 0.  1.
</event>
<event>
12    1  0.8052519E-002  0.1867485E+03  0.7818608E-02  0.1161466E+00
         21   -1    0    0  503  502  0.00000000000E+00  0.00000000000E+00  0.30039980886E+03  0.30039980886E+03  0.00000000000E+00 0.  1.
         21   -1    0    0  501  503 -0.00000000000E+00 -0.00000000000E+00 -0.12025884817E+03  0.12025884817E+03  0.00000000000E+00 0.  1.
          6    2    1    2  501    0 -0.68187858051E+00 -0.71406294051E+02  0.50485260200E+02  0.19345217781E+03  0.17255625116E+03 0.  0.
         24    2    3    3    0    0  0.23277636644E+02  0.23102354745E+02  0.44878474885E+01  0.85545759821E+02  0.78881994687E+02 0.  0.
         -6    2    1    2    0  502  0.68187858051E+00  0.71406294051E+02  0.12965570049E+03  0.22720647922E+03  0.17237418525E+03 0.  0.
        -24    2    5    5    0    0 -0.31468916299E+01  0.10656960370E+03  0.55675521389E+02  0.14507077002E+03  0.81109686675E+02 0.  0.
          5    1    3    3  501    0 -0.23959515224E+02 -0.94508648796E+02  0.45997412711E+02  0.10790641799E+03  0.47000000000E+01 0. -1.
        -11    1    4    4    0    0  0.23909810533E+02 -0.24764404930E+02 -0.94322013718E+01  0.35692032920E+02  0.00000000000E+00 0.  1.
         12    1    4    4    0    0 -0.63217388948E+00  0.47866759675E+02  0.13920048860E+02  0.49853726900E+02  0.00000000000E+00 0. -1.
         -5    1    5    5    0  502  0.38287702104E+01 -0.35163309646E+02  0.73980179099E+02  0.82135709202E+02  0.47000000000E+01 0.  1.
         13    1    6    6    0    0  0.23853667440E+02  0.52895382698E+02 -0.67643088266E+01  0.58418103658E+02  0.00000000000E+00 0. -1.
        -14    1    6    6    0    0 -0.27000559069E+02  0.53674220999E+02  0.62439830216E+02  0.86652666360E+02  0.00000000000E+00 0.  1.
</event>
<event>
12    1  0.8052519E-002  0.2433960E+03  0.7818608E-02  0.1117623E+00
         21   -1    0    0  501  502  0.00000000000E+00  0.00000000000E+00  0.68646100061E+02  0.68646100061E+02  0.00000000000E+00 0.  1.
         21   -1    0    0  502  503 -0.00000000000E+00 -0.00000000000E+00 -0.12800373467E+04  0.12800373467E+04  0.00000000000E+00 0.  1.
         -6    2    1    2    0  503 -0.89587772032E+02 -0.14558629730E+03 -0.99095464400E+03  0.10203027046E+04  0.17264172035E+03 0.  0.
        -24    2    3    3    0    0  0.13575154692E+02 -0.93117430088E+02 -0.59839514646E+03  0.61100987469E+03  0.80007343695E+02 0.  0.
          6    2    1    2  501    0  0.89587772032E+02  0.14558629730E+03 -0.22043660268E+03  0.32838074224E+03  0.17326360614E+03 0.  0.
         24    2    5    5    0    0  0.89434050653E+02  0.92663118969E+02 -0.22985309025E+03  0.27442106587E+03  0.76743568231E+02 0.  0.
          5    1    5    5  501    0  0.15372137910E+00  0.52923178336E+02  0.94164875696E+01  0.53959676367E+02  0.47000000000E+01 0. -1.
        -11    1    6    6    0    0  0.47068309485E+02  0.28969952553E+02 -0.16540581811E+03  0.17439543736E+03  0.00000000000E+00 0.  1.
         12    1    6    6    0    0  0.42365741169E+02  0.63693166415E+02 -0.64447272141E+02  0.10002562851E+03  0.00000000000E+00 0. -1.
         -5    1    3    3    0  503 -0.10316292672E+03 -0.52468867217E+02 -0.39255949753E+03  0.40929282987E+03  0.47000000000E+01 0.  1.
         11    1    4    4    0    0  0.19915237743E+02 -0.42261294372E+02 -0.10456107497E+03  0.11452358751E+03  0.00000000000E+00 0. -1.
        -12    1    4    4    0    0 -0.63400830511E+01 -0.50856135716E+02 -0.49383407149E+03  0.49648628718E+03  0.00000000000E+00 0.  1.
</event>
<event>
12    1  0.8052519E-002  0.1802864E+03  0.7818608E-02  0.1168373E+00
         21   -1    0    0  501  502  0.00000000000E+00  0.00000000000E+00  0.57914477649E+02  0.57914477649E+02  0.00000000000E+00 0.  1.
         21   -1    0    0  502  503 -0.00000000000E+00 -0.00000000000E+00 -0.21251077337E+04  0.21251077337E+04  0.00000000000E+00 0.  1.
         -6    2    1    2    0  503 -0.50825051850E+02  0.22214287016E+02 -0.19757527837E+04  0.19839612552E+04  0.17154165455E+03 0.  0.
        -24    2    3    3    0    0 -0.58904935053E+01  0.54055274371E+02 -0.71924437778E+03  0.72623774534E+03  0.84570190901E+02 0.  0.
          6    2    1    2  501    0  0.50825051850E+02 -0.22214287016E+02 -0.91440472311E+02  0.19906095615E+03  0.16789057103E+03 0.  0.
         24    2    5    5    0    0  0.90033443594E+02  0.10072437225E+02 -0.42005470215E+02  0.12802828776E+03  0.80120584014E+02 0.  0.
          5    1    5    5  501    0 -0.39208391744E+02 -0.32286724241E+02 -0.49435002096E+02  0.71032668382E+02  0.47000000000E+01 0. -1.
        -13    1    6    6    0    0 -0.87939042060E+01  0.17453027570E+02 -0.16797281406E+02  0.25769935684E+02  0.00000000000E+00 0.  1.
         14    1    6    6    0    0  0.98827347800E+02 -0.73805903450E+01 -0.25208188810E+02  0.10225835208E+03  0.00000000000E+00 0. -1.
         -5    1    3    3    0  503 -0.44934558345E+02 -0.31840987355E+02 -0.12565084060E+04  0.12577235099E+04  0.47000000000E+01 0.  1.
         13    1    4    4    0    0 -0.39996220217E+02  0.33370694088E+02 -0.54511974735E+03  0.54760281209E+03  0.00000000000E+00 0. -1.
        -14    1    4    4    0    0  0.34105726712E+02  0.20684580283E+02 -0.17412463043E+03  0.17863493325E+03  0.00000000000E+00 0.  1.
</event>
<event>
12    1  0.8052519E-002  0.2031201E+03  0.7818608E-02  0.1148267E+00
         21   -1    0    0  503  502  0.00000000000E+00  0.00000000000E+00  0.60954937866E+03  0.60954937866E+03  0.00000000000E+00 0.  1.
         21   -1    0    0  501  503 -0.00000000000E+00 -0.00000000000E+00 -0.66326513137E+02  0.66326513137E+02  0.00000000000E+00 0.  1.
          6    2    1    2  501    0  0.77777561177E+02 -0.69792818561E+02  0.24075731431E+03  0.31153648356E+03  0.16784072702E+03 0.  0.
         24    2    3    3    0    0  0.11874279019E+03 -0.65595316055E+02  0.19557511979E+03  0.25022343668E+03  0.77198089833E+02 0.  0.
         -6    2    1    2    0  502 -0.77777561177E+02  0.69792818561E+02  0.30246555121E+03  0.36433940823E+03  0.17417637090E+03 0.  0.
        -24    2    5    5    0    0 -0.12594444297E+03  0.68131026578E+02  0.23176031324E+03  0.27864150435E+03  0.58518421523E+02 0.  0.
          5    1    3    3  501    0 -0.40965229014E+02 -0.41975025055E+01  0.45182194525E+02  0.61313046878E+02  0.47000000000E+01 0. -1.
        -13    1    4    4    0    0  0.11943402804E+01 -0.34451229093E+02  0.42177376203E+02  0.54472421445E+02  0.00000000000E+00 0.  1.
         14    1    4    4    0    0  0.11754844991E+03 -0.31144086962E+02  0.15339774359E+03  0.19575101524E+03  0.00000000000E+00 0. -1.
         -5    1    5    5    0  502  0.48166881789E+02  0.16617919821E+01  0.70705237968E+02  0.85697903883E+02  0.47000000000E+01 0.  1.
         13    1    6    6    0    0 -0.83372067269E+02  0.12154589417E+02  0.12112173335E+03  0.14754358655E+03  0.00000000000E+00 0. -1.
        -14    1    6    6    0    0 -0.42572375697E+02  0.55976437162E+02  0.11063857989E+03  0.13109791780E+03  0.00000000000E+00 0.  1.
</event>
<event>
12    1  0.8052519E-002  0.2004516E+03  0.7818608E-02  0.1149716E+00
         21   -1    0    0  503  502  0.00000000000E+00  0.00000000000E+00  0.64960429411E+03  0.64960429411E+03  0.00000000000E+00 0. -1.
         21   -1    0    0  501  503 -0.00000000000E+00 -0.00000000000E+00 -0.15081340384E+03  0.15081340384E+03  0.00000000000E+00 0. -1.
          6    2    1    2  501    0 -0.99367426282E+02 -0.82687711173E+01 -0.58442994367E+02  0.20879761416E+03  0.17389250158E+03 0.  0.
         24    2    3    3    0    0  0.14921458415E+02 -0.20685413118E+02 -0.11158841172E+02  0.84403067221E+02  0.79679494118E+02 0.  0.
         -6    2    1    2    0  502  0.99367426282E+02  0.82687711173E+01  0.55723388464E+03  0.59162008380E+03  0.17193738217E+03 0.  0.
        -24    2    5    5    0    0  0.51737528439E+02  0.54080494772E+02  0.46699586946E+03  0.47967228090E+03  0.79993019704E+02 0.  0.
          5    1    3    3  501    0 -0.11428888470E+03  0.12416642001E+02 -0.47284153196E+02  0.12439454694E+03  0.47000000000E+01 0. -1.
        -13    1    4    4    0    0 -0.11685296582E+01  0.48253835973E+01  0.31649549812E+02  0.32036600814E+02  0.00000000000E+00 0.  1.
         14    1    4    4    0    0  0.16089988073E+02 -0.25510796715E+02 -0.42808390984E+02  0.52366466406E+02  0.00000000000E+00 0. -1.
         -5    1    5    5    0  502  0.47629897844E+02 -0.45811723655E+02  0.90238015175E+02  0.11194780291E+03  0.47000000000E+01 0.  1.
         13    1    6    6    0    0  0.53387192358E+02  0.72607655083E+02  0.40703052592E+03  0.41688836985E+03  0.00000000000E+00 0. -1.
        -14    1    6    6    0    0 -0.16496639193E+01 -0.18527160311E+02  0.59965343545E+02  0.62783911050E+02  0.00000000000E+00 0.  1.
</event>
<event>
12    1  0.8052519E-002  0.2640092E+03  0.7818608E-02  0.1104936E+00
         21   -1    0    0  503  502  0.00000000000E+00  0.00000000000E+00  0.34774746074E+03  0.34774746074E+03  0.00000000000E+00 0. -1.
         21   -1    0    0  501  503 -0.00000000000E+00 -0.00000000000E+00 -0.20075903896E+03  0.20075903896E+03  0.00000000000E+00 0. -1.
          6    2    1    2  501    0 -0.48568491003E+02 -0.19101892178E+03  0.51803513090E+02  0.26786256346E+03  0.17383791916E+03 0.  0.
         24    2    3    3    0    0 -0.23564439709E+01 -0.17452620453E+02 -0.35030407272E+01  0.79868629669E+02  0.77824031777E+02 0.  0.
         -6    2    1    2    0  502  0.48568491003E+02  0.19101892178E+03  0.95184908694E+02  0.28064393624E+03  0.17565228524E+03 0.  0.
        -24    2    5    5    0    0 -0.29701038875E+02  0.74497897796E+02  0.82410902719E+02  0.13961722400E+03  0.79179062034E+02 0.  0.
          5    1    3    3  501    0 -0.46212047032E+02 -0.17356630132E+03  0.55306553817E+02  0.18799393379E+03  0.47000000000E+01 0. -1.
        -13    1    4    4    0    0  0.64574750769E+01 -0.20331351913E+02 -0.38309472369E+02  0.43848358329E+02  0.00000000000E+00 0.  1.
         14    1    4    4    0    0 -0.88139190478E+01  0.28787314593E+01  0.34806431642E+02  0.36020271340E+02  0.00000000000E+00 0. -1.
         -5    1    5    5    0  502  0.78269529877E+02  0.11652102398E+03  0.12774005975E+02  0.14102671224E+03  0.47000000000E+01 0.  1.
         11    1    6    6    0    0 -0.20946495185E+02  0.16982838024E+01 -0.86318803968E+01  0.22718916955E+02  0.00000000000E+00 0. -1.
        -12    1    6    6    0    0 -0.87545436894E+01  0.72799613994E+02  0.91042783116E+02  0.11689830705E+03  0.00000000000E+00 0.  1.
</event>
<event>
12    1  0.8052519E-002  0.2599044E+03  0.7818608E-02  0.1107301E+00
         21   -1    0    0  503  502  0.00000000000E+00  0.00000000000E+00  0.26124804304E+03  0.26124804304E+03  0.00000000000E+00 0. -1.
         21   -1    0    0  501  503 -0.00000000000E+00 -0.00000000000E+00 -0.26536153177E+03  0.26536153177E+03  0.00000000000E+00 0. -1.
          6    2    1    2  501    0  0.21009908987E+02  0.19276985424E+03  0.42081447529E+02  0.26328913423E+03  0.17305688949E+03 0.  0.
         24    2    3    3    0    0 -0.31369700882E+02  0.44724094046E+02 -0.88331924956E+01  0.98135989514E+02  0.81045323286E+02 0.  0.
         -6    2    1    2    0  502 -0.21009908987E+02 -0.19276985424E+03 -0.46194936258E+02  0.26332044059E+03  0.17205246094E+03 0.  0.
        -24    2    5    5    0    0  0.90746670638E+01 -0.13473609531E+03 -0.95823216913E+02  0.18111304960E+03  0.73373584321E+02 0.  0.
          5    1    3    3  501    0  0.52379609869E+02  0.14804576019E+03  0.50914640025E+02  0.16515314472E+03  0.47000000000E+01 0. -1.
        -13    1    4    4    0    0  0.18781498430E+02  0.42946658573E+02  0.15111820108E+01  0.46898228505E+02  0.00000000000E+00 0.  1.
         14    1    4    4    0    0 -0.50151199311E+02  0.17774354730E+01 -0.10344374506E+02  0.51237761008E+02  0.00000000000E+00 0. -1.
         -5    1    5    5    0  502 -0.30084576051E+02 -0.58033758930E+02  0.49628280654E+02  0.82207390984E+02  0.47000000000E+01 0.  1.
         11    1    6    6    0    0 -0.13874724888E+02 -0.86416671716E+02 -0.22532505762E+02  0.90377336524E+02  0.00000000000E+00 0. -1.
        -12    1    6    6    0    0  0.22949391951E+02 -0.48319423592E+02 -0.73290711151E+02  0.90735713080E+02  0.00000000000E+00 0.  1.
</event>
<event>
12    1  0.8052519E-002  0.4051416E+03  0.7818608E-02  0.1042058E+00
         21   -1    0    0  501  502  0.00000000000E+00  0.00000000000E+00  0.17412145212E+03  0.17412145212E+03  0.00000000000E+00 0. -1.
         21   -1    0    0  502  503 -0.00000000000E+00 -0.00000000000E+00 -0.10039262571E+04  0.10039262571E+04  0.00000000000E+00 0.  1.
         -6    2    1    2    0  503 -0.33943528724E+03  0.13841858642E+03 -0.56207729072E+03  0.69287129854E+03  0.17252169807E+03 0.  0.
        -24    2    3    3    0    0 -0.10110976230E+03  0.86815883221E+02 -0.16238461361E+03  0.22464248594E+03  0.79594611241E+02 0.  0.
          6    2    1    2  501    0  0.33943528724E+03 -0.13841858642E+03 -0.26772751427E+03  0.48517641069E+03  0.17129538319E+03 0.  0.
         24    2    5    5    0    0  0.21860043109E+03 -0.15058944099E+03 -0.14575969637E+03  0.31299211767E+03  0.79087599691E+02 0.  0.
          5    1    5    5  501    0  0.12083485614E+03  0.12170854568E+02 -0.12196781790E+03  0.17218429302E+03  0.47000000000E+01 0. -1.
        -11    1    6    6    0    0  0.75174683158E+01 -0.36030209332E+02 -0.20185653395E+02  0.41977957518E+02  0.00000000000E+00 0.  1.
         12    1    6    6    0    0  0.21108296278E+03 -0.11455923165E+03 -0.12557404298E+03  0.27101416015E+03  0.00000000000E+00 0. -1.
         -5    1    3    3    0  503 -0.23832552494E+03  0.51602703196E+02 -0.39969267711E+03  0.46822881260E+03  0.47000000000E+01 0.  1.
         13    1    4    4    0    0 -0.84452708453E+02  0.21777559204E+02 -0.79830203370E+02  0.11823444261E+03  0.00000000000E+00 0. -1.
        -14    1    4    4    0    0 -0.16657053847E+02  0.65038324017E+02 -0.82554410239E+02  0.10640804332E+03  0.00000000000E+00 0.  1.
</event>
<event>
12    1  0.8052519E-002  0.1905574E+03  0.7818608E-02  0.1158366E+00
         21   -1    0    0  501  502  0.00000000000E+00  0.00000000000E+00  0.52330807830E+03  0.52330807830E+03  0.00000000000E+00 0. -1.
         21   -1    0    0  502  503 -0.00000000000E+00 -0.00000000000E+00 -0.12109633931E+03  0.12109633931E+03  0.00000000000E+00 0. -1.
         -6    2    1    2    0  503 -0.80038534780E+02 -0.41867109029E+01 -0.10219078956E+02  0.19083118619E+03  0.17288266671E+03 0.  0.
        -24    2    3    3    0    0  0.26481280841E+02  0.97488951483E+01  0.62321822420E+01  0.82049725310E+02  0.76792044746E+02 0.  0.
          6    2    1    2  501    0  0.80038534780E+02  0.41867109029E+01  0.41243081795E+03  0.45357323142E+03  0.17089704816E+03 0.  0.
         24    2    5    5    0    0  0.26920247213E+02 -0.58129339493E+02  0.27844480166E+03  0.29647712972E+03  0.79142030874E+02 0.  0.
          5    1    5    5  501    0  0.53118287567E+02  0.62316050396E+02  0.13398601628E+03  0.15709610170E+03  0.47000000000E+01 0. -1.
        -13    1    6    6    0    0  0.25521905545E+02 -0.66158591020E+02  0.13230087852E+03  0.15010612674E+03  0.00000000000E+00 0.  1.
         14    1    6    6    0    0  0.13983416687E+01  0.80292515268E+01  0.14614392315E+03  0.14637100298E+03  0.00000000000E+00 0. -1.
         -5    1    3    3    0  503 -0.10651981562E+03 -0.13935606051E+02 -0.16451261198E+02  0.10878146088E+03  0.47000000000E+01 0.  1.
         13    1    4    4    0    0 -0.19461570311E+02  0.56243174851E-01 -0.20296575728E+02  0.28119510460E+02  0.00000000000E+00 0. -1.
        -14    1    4    4    0    0  0.45942851152E+02  0.96926519734E+01  0.26528757970E+02  0.53930214849E+02  0.00000000000E+00 0.  1.
</event>
<event>
12    1  0.8052519E-002  0.1730403E+03  0.7818608E-02  0.1174965E+00
         21   -1    0    0  501  502  0.00000000000E+00  0.00000000000E+00  0.36312583119E+03  0.36312583119E+03  0.00000000000E+00 0. -1.
         21   -1    0    0  502  503 -0.00000000000E+00 -0.00000000000E+00 -0.83301771974E+02  0.83301771974E+02  0.00000000000E+00 0. -1.
         -6    2    1    2    0  503  0.67722580434E+01 -0.18235972406E+01  0.11230591248E+03  0.20628997564E+03  0.17289808295E+03 0.  0.
        -24    2    3    3    0    0  0.72330992896E+02 -0.98885918287E+01  0.77764413009E+02  0.13160264714E+03  0.77086938079E+02 0.  0.
          6    2    1    2  501    0 -0.67722580434E+01  0.18235972406E+01  0.16751814674E+03  0.24013762752E+03  0.17191440219E+03 0.  0.
         24    2    5    5    0    0 -0.96826978360E+01 -0.28031404908E+02  0.17237724565E+02  0.86820677701E+02  0.79756984834E+02 0.  0.
          5    1    5    5  501    0  0.29104397926E+01  0.29855002148E+02  0.15028042218E+03  0.15331694982E+03  0.47000000000E+01 0. -1.
        -13    1    6    6    0    0  0.21229345305E+02  0.17676096648E+02 -0.35579352581E+01  0.27852978263E+02  0.00000000000E+00 0.  1.
         14    1    6    6    0    0 -0.30912043141E+02 -0.45707501556E+02  0.20795659823E+02  0.58967699439E+02  0.00000000000E+00 0. -1.
         -5    1    3    3    0  503 -0.65558734853E+02  0.80649945882E+01  0.34541499467E+02  0.74687328501E+02  0.47000000000E+01 0.  1.
         13    1    4    4    0    0  0.17945753530E+02 -0.39508910974E+02  0.40318767667E+02  0.59233496793E+02  0.00000000000E+00 0. -1.
        -14    1    4    4    0    0  0.54385239366E+02  0.29620319145E+02  0.37445645342E+02  0.72369150349E+02  0.00000000000E+00 0.  1.
</event>
<event>
12    1  0.8052519E-002  0.1753274E+03  0.7818608E-02  0.1172462E+00
         21   -1    0    0  501  502  0.00000000000E+00  0.00000000000E+00  0.21445881605E+03  0.21445881605E+03  0.00000000000E+00 0.  1.
         21   -1    0    0  502  503 -0.00000000000E+00 -0.00000000000E+00 -0.16443083461E+03  0.16443083461E+03  0.00000000000E+00 0.  1.
         -6    2    1    2    0  503  0.23714950131E+02  0.17531185672E+02  0.93158343240E+02  0.19833512610E+03  0.17259375423E+03 0.  0.
        -24    2    3    3    0    0 -0.21042273251E+02 -0.41730338419E+02  0.21858100922E+02  0.95277123802E+02  0.80098410321E+02 0.  0.
          6    2    1    2  501    0 -0.23714950131E+02 -0.17531185672E+02 -0.43130361794E+02  0.18055452456E+03  0.17282929989E+03 0.  0.
         24    2    5    5    0    0 -0.20639179503E+02 -0.77069585813E+02 -0.13055188901E+02  0.11361509313E+03  0.79826403158E+02 0.  0.
          5    1    5    5  501    0 -0.30757706278E+01  0.59538400141E+02 -0.30075172893E+02  0.66939431435E+02  0.47000000000E+01 0. -1.
        -11    1    6    6    0    0  0.24786668995E+02 -0.58610714274E+02 -0.10664305240E+02  0.64523811061E+02  0.00000000000E+00 0.  1.
         12    1    6    6    0    0 -0.45425848498E+02 -0.18458871539E+02 -0.23908836614E+01  0.49091282067E+02  0.00000000000E+00 0. -1.
         -5    1    3    3    0  503  0.44757223382E+02  0.59261524092E+02  0.71300242319E+02  0.10305800230E+03  0.47000000000E+01 0.  1.
         13    1    4    4    0    0  0.61597794938E+01 -0.16495723674E+02 -0.28030995786E+02  0.33102696381E+02  0.00000000000E+00 0. -1.
        -14    1    4    4    0    0 -0.27202052745E+02 -0.25234614746E+02  0.49889096707E+02  0.62174427422E+02  0.00000000000E+00 0.  1.
</event>
<event>
12    1  0.8052519E-002  0.1956852E+03  0.7818608E-02  0.1153668E+00
         21   -1    0    0  503  502  0.00000000000E+00  0.00000000000E+00  0.17639610692E+03  0.17639610692E+03  0.00000000000E+00 0.  1.
         21   -1    0    0  501  503 -0.00000000000E+00 -0.00000000000E+00 -0.26096687340E+03  0.26096687340E+03  0.00000000000E+00 0.  1.
          6    2    1    2  501    0 -0.91884811787E+02  0.24143703669E+02 -0.13328200933E+03  0.23676316197E+03  0.17107590067E+03 0.  0.
         24    2    3    3    0    0 -0.78359651747E+02  0.72220623653E+02 -0.13166475646E+03  0.18657326562E+03  0.78217145468E+02 0.  0.
         -6    2    1    2    0  502  0.91884811787E+02 -0.24143703669E+02  0.48711242850E+02  0.20059981834E+03  0.16982863385E+03 0.  0.
        -24    2    5    5    0    0  0.35137580075E+02 -0.73605939826E+02  0.92715741979E+01  0.11548613803E+03  0.81231779977E+02 0.  0.
          5    1    3    3  501    0 -0.13525160040E+02 -0.48076919984E+02 -0.16172528681E+01  0.50189896355E+02  0.47000000000E+01 0. -1.
        -13    1    4    4    0    0 -0.43525937245E+02 -0.84285308963E+01 -0.44878519848E+02  0.63084299868E+02  0.00000000000E+00 0.  1.
         14    1    4    4    0    0 -0.34833714503E+02  0.80649154549E+02 -0.86786236616E+02  0.12348896575E+03  0.00000000000E+00 0. -1.
         -5    1    5    5    0  502  0.56747231713E+02  0.49462236158E+02  0.39439668652E+02  0.85113680312E+02  0.47000000000E+01 0.  1.
         11    1    6    6    0    0  0.13237877174E+02 -0.66654589074E+01 -0.30995080360E+02  0.34356436676E+02  0.00000000000E+00 0. -1.
        -12    1    6    6    0    0  0.21899702901E+02 -0.66940480919E+02  0.40266654558E+02  0.81129701356E+02  0.00000000000E+00 0.  1.
</event>
<event>
12    1  0.8052519E-002  0.1747518E+03  0.7818608E-02  0.1173257E+00
         21   -1    0    0  503  502  0.00000000000E+00  0.00000000000E+00  0.37522546295E+03  0.37522546295E+03  0.00000000000E+00 0. -1.
         21   -1    0    0  501  503 -0.00000000000E+00 -0.00000000000E+00 -0.81121544995E+02  0.81121544995E+02  0.00000000000E+00 0. -1.
          6    2    1    2  501    0 -0.24422840978E+02 -0.23226726084E+02  0.13501452886E+03  0.22083275417E+03  0.17147077403E+03 0.  0.
         24    2    3    3    0    0  0.18943016886E+02  0.40168594694E+02  0.10096085104E+03  0.13668225033E+03  0.80725400109E+02 0.  0.
         -6    2    1    2    0  502  0.24422840978E+02  0.23226726084E+02  0.15908938910E+03  0.23551425377E+03  0.17035719545E+03 0.  0.
        -24    2    5    5    0    0 -0.25159775644E+02 -0.11347095069E+02  0.51077344880E+02  0.11164950222E+03  0.95367422685E+02 0.  0.
          5    1    3    3  501    0 -0.43365857864E+02 -0.63395320778E+02  0.34053677814E+02  0.84150503846E+02  0.47000000000E+01 0. -1.
        -13    1    4    4    0    0 -0.12562296611E+02  0.33824873229E+02  0.97972861940E+02  0.10440601047E+03  0.00000000000E+00 0.  1.
         14    1    4    4    0    0  0.31505313497E+02  0.63437214646E+01  0.29879891029E+01  0.32276239859E+02  0.00000000000E+00 0. -1.
         -5    1    5    5    0  502  0.49582616622E+02  0.34573821153E+02  0.10801204422E+03  0.12386475155E+03  0.47000000000E+01 0.  1.
         11    1    6    6    0    0  0.84427564236E+01  0.37418815003E+02  0.10208472606E+02  0.39694593652E+02  0.00000000000E+00 0. -1.
        -12    1    6    6    0    0 -0.33602532068E+02 -0.48765910071E+02  0.40868872274E+02  0.71954908571E+02  0.00000000000E+00 0.  1.
</event>
<event>
12    1  0.8052519E-002  0.2043606E+03  0.7818608E-02  0.1146597E+00
         21   -1    0    0  501  502  0.00000000000E+00  0.00000000000E+00  0.69476915373E+03  0.69476915373E+03  0.00000000000E+00 0.  1.
         21   -1    0    0  502  503 -0.00000000000E+00 -0.00000000000E+00 -0.72749029723E+02  0.72749029723E+02  0.00000000000E+00 0. -1.
         -6    2    1    2    0  503 -0.67267796057E+02 -0.85755581327E+02  0.14822560924E+03  0.25245614198E+03  0.17287075020E+03 0.  0.
        -24    2    3    3    0    0  0.61747218419E+01  0.12517746722E+02  0.65380684930E+02  0.10434529860E+03  0.80115455476E+02 0.  0.
          6    2    1    2  501    0  0.67267796057E+02  0.85755581327E+02  0.47379451477E+03  0.51506204147E+03  0.17008435622E+03 0.  0.
         24    2    5    5    0    0 -0.64147122592E+01  0.56851733917E+02  0.37836058718E+03  0.39098839817E+03  0.80261605974E+02 0.  0.
          5    1    5    5  501    0  0.73682508316E+02  0.28903847410E+02  0.95433927586E+02  0.12407364330E+03  0.47000000000E+01 0. -1.
        -13    1    6    6    0    0  0.32467499032E+02  0.37988105464E+02  0.13790318566E+03  0.14667829855E+03  0.00000000000E+00 0.  1.
         14    1    6    6    0    0 -0.38882211292E+02  0.18863628454E+02  0.24045740152E+03  0.24431009962E+03  0.00000000000E+00 0. -1.
         -5    1    3    3    0  503 -0.73442517899E+02 -0.98273328049E+02  0.82844924310E+02  0.14811084337E+03  0.47000000000E+01 0.  1.
         11    1    4    4    0    0  0.42239199164E+02  0.60661653990E+01  0.46560193574E+02  0.63156946841E+02  0.00000000000E+00 0. -1.
        -12    1    4    4    0    0 -0.36064477322E+02  0.64515813230E+01  0.18820491356E+02  0.41188351763E+02  0.00000000000E+00 0.  1.
</event>
<event>
12    1  0.8052519E-002  0.2020937E+03  0.7818608E-02  0.1149160E+00
         21   -1    0    0  503  502  0.00000000000E+00  0.00000000000E+00  0.82914740004E+03  0.82914740004E+03  0.00000000000E+00 0. -1.
         21   -1    0    0  501  503 -0.00000000000E+00 -0.00000000000E+00 -0.12079088190E+03  0.12079088190E+03  0.00000000000E+00 0. -1.
          6    2    1    2  501    0 -0.45172053864E+02  0.86610496676E+02 -0.16706214918E+02  0.19723791295E+03  0.17053387964E+03 0.  0.
         24    2    3    3    0    0 -0.50844421238E+02 -0.66914374109E+01 -0.27984105726E+02  0.10296857819E+03  0.84790845115E+02 0.  0.
         -6    2    1    2    0  502  0.45172053864E+02 -0.86610496676E+02  0.72506273305E+03  0.75270036899E+03  0.17691802063E+03 0.  0.
        -24    2    5    5    0    0 -0.10003879663E+02  0.17074602970E+02  0.35617827815E+03  0.36554043486E+03  0.79782354003E+02 0.  0.
          5    1    3    3  501    0  0.56723673746E+01  0.93301934087E+02  0.11277890808E+02  0.94269334765E+02  0.47000000000E+01 0. -1.
        -11    1    4    4    0    0 -0.26366125564E+02 -0.38102707095E+02 -0.40169117952E+02  0.61323298201E+02  0.00000000000E+00 0.  1.
         12    1    4    4    0    0 -0.24478295674E+02  0.31411269684E+02  0.12185012227E+02  0.41645279988E+02  0.00000000000E+00 0. -1.
         -5    1    5    5    0  502  0.55175933526E+02 -0.10368509965E+03  0.36888445490E+03  0.38715993413E+03  0.47000000000E+01 0.  1.
         13    1    6    6    0    0 -0.10049164046E+02  0.49388237544E+01  0.35275269995E+03  0.35293036848E+03  0.00000000000E+00 0. -1.
        -14    1    6    6    0    0  0.45284383614E-01  0.12135779216E+02  0.34255782083E+01  0.12610066372E+02  0.00000000000E+00 0.  1.
</event>
<event>
12    1  0.8052519E-002  0.2195637E+03  0.7818608E-02  0.1134273E+00
         21   -1    0    0  503  502  0.00000000000E+00  0.00000000000E+00  0.16910778979E+03  0.16910778979E+03  0.00000000000E+00 0.  1.
         21   -1    0    0  501  503 -0.00000000000E+00 -0.00000000000E+00 -0.33068917501E+03  0.33068917501E+03  0.00000000000E+00 0. -1.
          6    2    1    2  501    0 -0.13446149236E+03  0.22036657711E+02 -0.17400050697E+03  0.27988231867E+03  0.17173359796E+03 0.  0.
         24    2    3    3    0    0 -0.39610547717E+02 -0.27721033889E+02 -0.27877390791E+02  0.98646051180E+02  0.81341522520E+02 0.  0.
         -6    2    1    2    0  502  0.13446149236E+03 -0.22036657711E+02  0.12419121747E+02  0.21991464613E+03  0.17217058340E+03 0.  0.
        -24    2    5    5    0    0  0.13903701724E+03 -0.67852475763E+02  0.60556978726E+01  0.17319625815E+03  0.77621013463E+02 0.  0.
          5    1    3    3  501    0 -0.94850944639E+02  0.49757691600E+02 -0.14612311618E+03  0.18123626749E+03  0.47000000000E+01 0. -1.
        -13    1    4    4    0    0 -0.27084831317E+02 -0.56752387815E+02 -0.20907219321E+02  0.66268645904E+02  0.00000000000E+00 0.  1.
         14    1    4    4    0    0 -0.12525716400E+02  0.29031353926E+02 -0.69701714700E+01  0.32377405276E+02  0.00000000000E+00 0. -1.
         -5    1    5    5    0  502 -0.45755248871E+01  0.45815818051E+02  0.63634238741E+01  0.46718387976E+02  0.47000000000E+01 0.  1.
         11    1    6    6    0    0  0.73084642624E+02 -0.76627958919E+02 -0.36673338141E+01  0.10595592675E+03  0.00000000000E+00 0. -1.
        -12    1    6    6    0    0  0.65952374620E+02  0.87754831562E+01  0.97230316867E+01  0.67240331408E+02  0.00000000000E+00 0.  1.
</event>
<event>
12    1  0.8052519E-002  0.3117981E+03  0.7818608E-02  0.1079573E+00
         21   -1    0    0  503  502  0.00000000000E+00  0.00000000000E+00  0.20340020611E+03  0.20340020611E+03  0.00000000000E+00 0.  1.
         21   -1    0    0  501  503 -0.00000000000E+00 -0.00000000000E+00 -0.84304773425E+03  0.84304773425E+03  0.00000000000E+00 0.  1.
          6    2    1    2  501    0 -0.12148765788E+03  0.22987042236E+03 -0.66487250151E+03  0.73435243003E+03  0.17209993068E+03 0.  0.
         24    2    3    3    0    0 -0.95987963346E+02  0.22684403817E+03 -0.46146510625E+03  0.52927670775E+03  0.80696234855E+02 0.  0.
         -6    2    1    2    0  502  0.12148765788E+03 -0.22987042236E+03  0.25224973363E+02  0.31209551033E+03  0.17078538051E+03 0.  0.
        -24    2    5    5    0    0  0.67223775329E+02 -0.53683459461E+02  0.44525504399E+02  0.12667432669E+03  0.81626678920E+02 0.  0.
          5    1    3    3  501    0 -0.25499694532E+02  0.30263841812E+01 -0.20340739526E+03  0.20507572228E+03  0.47000000000E+01 0. -1.
        -11    1    4    4    0    0 -0.77028728295E+02  0.22393736043E+03 -0.44459698232E+03  0.50373390105E+03  0.00000000000E+00 0.  1.
         12    1    4    4    0    0 -0.18959235052E+02  0.29066777473E+01 -0.16868123923E+02  0.25542806697E+02  0.00000000000E+00 0. -1.
         -5    1    5    5    0  502  0.54263882549E+02 -0.17618696289E+03 -0.19300531036E+02  0.18542118364E+03  0.47000000000E+01 0.  1.
         13    1    6    6    0    0  0.35763937984E+02 -0.13819626991E+02 -0.21046171066E+02  0.43737657309E+02  0.00000000000E+00 0. -1.
        -14    1    6    6    0    0  0.31459837345E+02 -0.39863832470E+02  0.65571675465E+02  0.82936669383E+02  0.00000000000E+00 0.  1.
</event>
<event>
12    1  0.8052519E-002  0.1908497E+03  0.7818608E-02  0.1157826E+00
         21   -1    0    0  503  502  0.00000000000E+00  0.00000000000E+00  0.71796502796E+02  0.71796502796E+02  0.00000000000E+00 0. -1.
         21   -1    0    0  501  503 -0.00000000000E+00 -0.00000000000E+00 -0.52844132748E+03  0.52844132748E+03  0.00000000000E+00 0.  1.
          6    2    1    2  501    0  0.44187263732E+02 -0.69614069190E+02 -0.16652601887E+03  0.25328741101E+03  0.17211904227E+03 0.  0.
         24    2    3    3    0    0  0.87569520672E+02 -0.58890946762E+02 -0.71342091576E+02  0.14803022320E+03  0.75410134514E+02 0.  0.
         -6    2    1    2    0  502 -0.44187263732E+02  0.69614069190E+02 -0.29011880582E+03  0.34695041927E+03  0.17148480701E+03 0.  0.
        -24    2    5    5    0    0  0.10661271499E+02 -0.21068253005E+02 -0.13983891480E+03  0.16299993402E+03  0.80352488488E+02 0.  0.
          5    1    3    3  501    0 -0.43382256940E+02 -0.10723122428E+02 -0.95183927292E+02  0.10525718781E+03  0.47000000000E+01 0. -1.
        -13    1    4    4    0    0  0.72549514047E+02 -0.26255087919E+02 -0.79929085760E+02  0.11109194562E+03  0.00000000000E+00 0.  1.
         14    1    4    4    0    0  0.15020006625E+02 -0.32635858843E+02  0.85869941842E+01  0.36938277580E+02  0.00000000000E+00 0. -1.
         -5    1    5    5    0  502 -0.54848535231E+02  0.90682322195E+02 -0.15027989103E+03  0.18395048525E+03  0.47000000000E+01 0.  1.
         11    1    6    6    0    0 -0.32814207012E+02 -0.22571599164E+02 -0.75019199156E+02  0.84936031887E+02  0.00000000000E+00 0. -1.
        -12    1    6    6    0    0  0.43475478511E+02  0.15033461590E+01 -0.64819715639E+02  0.78063902138E+02  0.00000000000E+00 0.  1.
</event>
<event>
12    1  0.8052519E-002  0.1862504E+03  0.7818608E-02  0.1162157E+00
         21   -1    0    0  503  502  0.00000000000E+00  0.00000000000E+00  0.50582363419E+03  0.50582363419E+03  0.00000000000E+00 0. -1.
         21   -1    0    0  501  503 -0.00000000000E+00 -0.00000000000E+00 -0.38194161141E+03  0.38194161141E+03  0.00000000000E+00 0. -1.
          6    2    1    2  501    0 -0.13145505419E+02  0.67910341141E+02 -0.34035960560E+03  0.38798695884E+03  0.17292946643E+03 0.  0.
         24    2    3    3    0    0 -0.49791034454E+02  0.86901354714E+02 -0.31361760650E+03  0.33858272916E+03  0.79064965791E+02 0.  0.
         -6    2    1    2    0  502  0.13145505419E+02 -0.67910341141E+02  0.46424162838E+03  0.49977828676E+03  0.17167826783E+03 0.  0.
        -24    2    5    5    0    0 -0.24578920314E+02  0.19974400576E+00  0.11767970608E+03  0.14454685236E+03  0.80256564109E+02 0.  0.
          5    1    3    3  501    0  0.36645529035E+02 -0.18991013573E+02 -0.26741999106E+02  0.49404229687E+02  0.47000000000E+01 0. -1.
        -11    1    4    4    0    0 -0.13067843049E+02 -0.19491233463E+01 -0.31672945141E+01  0.13586734645E+02  0.00000000000E+00 0.  1.
         12    1    4    4    0    0 -0.36723191405E+02  0.88850478061E+02 -0.31045031198E+03  0.32499599451E+03  0.00000000000E+00 0. -1.
         -5    1    5    5    0  502  0.37724425733E+02 -0.68110085147E+02  0.34656192230E+03  0.35523143440E+03  0.47000000000E+01 0.  1.
         13    1    6    6    0    0 -0.72247279867E+01  0.98660510072E+00  0.12534638634E+03  0.12555829981E+03  0.00000000000E+00 0. -1.
        -14    1    6    6    0    0 -0.17354192327E+02 -0.78686109497E+00 -0.76666802560E+01  0.18988552548E+02  0.00000000000E+00 0.  1.
</event>
<event>
12    1  0.8052519E-002  0.1992311E+03  0.7818608E-02  0.1150688E+00
         21   -1    0    0  503  502  0.00000000000E+00  0.00000000000E+00  0.62538066979E+02  0.62538066979E+02  0.00000000000E+00 0. -1.
         21   -1    0    0  501  503 -0.00000000000E+00 -0.00000000000E+00 -0.73702395751E+03  0.73702395751E+03  0.00000000000E+00 0.  1.
          6    2    1    2  501    0  0.49710761561E+02 -0.84330052076E+02 -0.49043909935E+03  0.52936144587E+03  0.17352323391E+03 0.  0.
         24    2    3    3    0    0 -0.14873109334E+02  0.98153280086E+01 -0.15110307912E+03  0.17130355446E+03  0.78709702125E+02 0.  0.
         -6    2    1    2    0  502 -0.49710761561E+02  0.84330052076E+02 -0.18404679119E+03  0.27020057862E+03  0.17190815526E+03 0.  0.
        -24    2    5    5    0    0 -0.31505664331E+02  0.12449813790E+03 -0.13248594674E+03  0.20218946656E+03  0.82678056828E+02 0.  0.
          5    1    3    3  501    0  0.64583870896E+02 -0.94145380084E+02 -0.33933602023E+03  0.35805789141E+03  0.47000000000E+01 0. -1.
        -13    1    4    4    0    0 -0.92384588808E+01  0.26544149780E+02 -0.15105878996E+03  0.15365122530E+03  0.00000000000E+00 0.  1.
         14    1    4    4    0    0 -0.56346504536E+01 -0.16728821771E+02 -0.44289154921E-01  0.17652329170E+02  0.00000000000E+00 0. -1.
         -5    1    5    5    0  502 -0.18205097230E+02 -0.40168085819E+02 -0.51560844448E+02  0.68011112061E+02  0.47000000000E+01 0.  1.
         11    1    6    6    0    0 -0.10488095625E+02  0.29419217898E+02  0.70672036104E+01  0.32022428054E+02  0.00000000000E+00 0. -1.
        -12    1    6    6    0    0 -0.21017568706E+02  0.95078919997E+02 -0.13955315035E+03  0.17016703851E+03  0.00000000000E+00 0.  1.
</event>
<event>
12    1  0.8052519E-002  0.2240800E+03  0.7818608E-02  0.1130952E+00
         21   -1    0    0  501  502  0.00000000000E+00  0.00000000000E+00  0.22148611443E+03  0.22148611443E+03  0.00000000000E+00 0.  1.
         21   -1    0    0  502  503 -0.00000000000E+00 -0.00000000000E+00 -0.23507303113E+03  0.23507303113E+03  0.00000000000E+00 0.  1.
         -6    2    1    2    0  503  0.14109863248E+03  0.10166824882E+02 -0.50911221957E+02  0.22939191625E+03  0.17325273535E+03 0.  0.
        -24    2    3    3    0    0  0.80066938975E+02 -0.20272042771E+02 -0.94014959143E+02  0.14857474954E+03  0.80087285030E+02 0.  0.
          6    2    1    2  501    0 -0.14109863248E+03 -0.10166824882E+02  0.37324305254E+02  0.22716722930E+03  0.17378048766E+03 0.  0.
         24    2    5    5    0    0 -0.12832900998E+03 -0.61813212928E+02  0.52770722639E+02  0.17156961724E+03  0.79763251549E+02 0.  0.
          5    1    5    5  501    0 -0.12769622497E+02  0.51646388046E+02 -0.15446417384E+02  0.55597612061E+02  0.47000000000E+01 0. -1.
        -11    1    6    6    0    0 -0.64038309504E+02 -0.21165454364E+02 -0.15677149792E+02  0.69243444225E+02  0.00000000000E+00 0.  1.
         12    1    6    6    0    0 -0.64290700477E+02 -0.40647758564E+02  0.68447872430E+02  0.10232617302E+03  0.00000000000E+00 0. -1.
         -5    1    3    3    0  503  0.61031693503E+02  0.30438867653E+02  0.43103737185E+02  0.80817166711E+02  0.47000000000E+01 0.  1.
         13    1    4    4    0    0 -0.68117088690E+01 -0.26781631411E+02 -0.18251995872E+02  0.33117827708E+02  0.00000000000E+00 0. -1.
        -14    1    4    4    0    0  0.86878647844E+02  0.65095886407E+01 -0.75762963270E+02  0.11545692183E+03  0.00000000000E+00 0.  1.
</event>
<event>
12    1  0.8052519E-002  0.1823931E+03  0.7818608E-02  0.1165511E+00
         21   -1    0    0  503  502  0.00000000000E+00  0.00000000000E+00  0.42974893587E+03  0.42974893587E+03  0.00000000000E+00 0.  1.
         21   -1    0    0  501  503 -0.00000000000E+00 -0.00000000000E+00 -0.10064393942E+03  0.10064393942E+03  0.00000000000E+00 0.  1.
          6    2    1    2  501    0  0.59607215745E+02 -0.16766091412E+01  0.37109511915E+02  0.18611301598E+03  0.17235169757E+03 0.  0.
         24    2    3    3    0    0  0.65383719244E+02 -0.54885013526E+02 -0.61631055746E+01  0.11712670056E+03  0.79958018125E+02 0.  0.
         -6    2    1    2    0  502 -0.59607215745E+02  0.16766091412E+01  0.29199548454E+03  0.34427985932E+03  0.17237003032E+03 0.  0.
        -24    2    5    5    0    0  0.38568147412E+01  0.38177054460E+02  0.76706459255E+02  0.11683443711E+03  0.79335000449E+02 0.  0.
          5    1    3    3  501    0 -0.57765034984E+01  0.53208404385E+02  0.43272617489E+02  0.68986315413E+02  0.47000000000E+01 0. -1.
        -11    1    4    4    0    0 -0.45642040560E+01 -0.38629371929E+02 -0.20391195287E+02  0.43918802119E+02  0.00000000000E+00 0.  1.
         12    1    4    4    0    0  0.69947923300E+02 -0.16255641597E+02  0.14228089712E+02  0.73207898444E+02  0.00000000000E+00 0. -1.
         -5    1    5    5    0  502 -0.63464030486E+02 -0.36500445318E+02  0.21528902529E+03  0.22744542221E+03  0.47000000000E+01 0.  1.
         11    1    6    6    0    0  0.53120548687E+01 -0.15215061749E+02 -0.69746654814E+01  0.17560238880E+02  0.00000000000E+00 0. -1.
        -12    1    6    6    0    0 -0.14552401276E+01  0.53392116209E+02  0.83681124737E+02  0.99274198230E+02  0.00000000000E+00 0.  1.
</event>
<event>
12    1  0.8052519E-002  0.1729866E+03  0.7818608E-02  0.1174921E+00
         21   -1    0    0  501  502  0.00000000000E+00  0.00000000000E+00  0.54996282547E+02  0.54996282547E+02  0.00000000000E+00 0. -1.
         21   -1    0    0  502  503 -0.00000000000E+00 -0.00000000000E+00 -0.54261049036E+03  0.54261049036E+03  0.00000000000E+00 0. -1.
         -6    2    1    2    0  503 -0.14705989467E+01 -0.20036370666E+02 -0.25115286606E+03  0.30462498145E+03  0.17121623281E+03 0.  0.
        -24    2    3    3    0    0 -0.38234125326E+02 -0.33791067178E+02 -0.24472098131E+03  0.26457241986E+03  0.86640187541E+02 0.  0.
          6    2    1    2  501    0  0.14705989467E+01  0.20036370666E+02 -0.23646134175E+03  0.29298179146E+03  0.17181602130E+03 0.  0.
         24    2    5    5    0    0 -0.23870864902E+02  0.35548668644E+02 -0.53259727424E+02  0.10732688937E+03  0.82758302201E+02 0.  0.
          5    1    5    5  501    0  0.25341463848E+02 -0.15512297978E+02 -0.18320161432E+03  0.18565490209E+03  0.47000000000E+01 0. -1.
        -11    1    6    6    0    0 -0.28326940914E+02 -0.30803152400E+01  0.12353527275E+02  0.31056618613E+02  0.00000000000E+00 0.  1.
         12    1    6    6    0    0  0.44560760127E+01  0.38628983884E+02 -0.65613254699E+02  0.76270270758E+02  0.00000000000E+00 0. -1.
         -5    1    3    3    0  503  0.36763526379E+02  0.13754696512E+02 -0.64318847513E+01  0.40052561583E+02  0.47000000000E+01 0.  1.
         11    1    4    4    0    0 -0.49551976585E+02  0.79478069120E+01 -0.81436429573E+02  0.95658026740E+02  0.00000000000E+00 0. -1.
        -12    1    4    4    0    0  0.11317851259E+02 -0.41738874090E+02 -0.16328455174E+03  0.16891439312E+03  0.00000000000E+00 0.  1.
</event>
<event>
12    1  0.8052519E-002  0.3024929E+03  0.7818608E-02  0.1084222E+00
         21   -1    0    0  503  502  0.00000000000E+00  0.00000000000E+00  0.13168305168E+03  0.13168305168E+03  0.00000000000E+00 0.  1.
         21   -1    0    0  501  503 -0.00000000000E+00 -0.00000000000E+00 -0.11745975641E+04  0.11745975641E+04  0.00000000000E+00 0. -1.
          6    2    1    2  501    0  0.21051901941E+03  0.13144784499E+03 -0.94154167738E+03  0.98894017568E+03  0.17293104793E+03 0.  0.
         24    2    3    3    0    0  0.15907907622E+03  0.11769562288E+03 -0.49554636098E+03  0.53975301689E+03  0.81293980249E+02 0.  0.
         -6    2    1    2    0  502 -0.21051901941E+03 -0.13144784499E+03 -0.10137283507E+03  0.31734044013E+03  0.16979902759E+03 0.  0.
        -24    2    5    5    0    0 -0.12043991527E+03 -0.11542773896E+03 -0.12392507909E+03  0.22299224190E+03  0.80862714572E+02 0.  0.
          5    1    3    3  501    0  0.51439943185E+02  0.13752222114E+02 -0.44599531640E+03  0.44918715879E+03  0.47000000000E+01 0. -1.
        -13    1    4    4    0    0  0.37088218726E+02  0.60962690041E+02 -0.24735621256E+03  0.25744335578E+03  0.00000000000E+00 0.  1.
         14    1    4    4    0    0  0.12199085750E+03  0.56732932836E+02 -0.24819014842E+03  0.28230966111E+03  0.00000000000E+00 0. -1.
         -5    1    5    5    0  502 -0.90079104137E+02 -0.16020106028E+02  0.22552244025E+02  0.94348198233E+02  0.47000000000E+01 0.  1.
         13    1    6    6    0    0 -0.32596752679E+02 -0.78545743049E+02 -0.32770056247E+02  0.91136483489E+02  0.00000000000E+00 0. -1.
        -14    1    6    6    0    0 -0.87843162592E+02 -0.36881995914E+02 -0.91155022844E+02  0.13185575841E+03  0.00000000000E+00 0.  1.
</event>
<event>
12    1  0.8052519E-002  0.2470516E+03  0.7818608E-02  0.1115280E+00
         21   -1    0    0  503  502  0.00000000000E+00  0.00000000000E+00  0.10086192201E+03  0.10086192201E+03  0.00000000000E+00 0.  1.
         21   -1    0    0  501  503 -0.00000000000E+00 -0.00000000000E+00 -0.93173600834E+03  0.93173600834E+03  0.00000000000E+00 0. -1.
          6    2    1    2  501    0  0.12873589762E+03  0.12188871808E+03 -0.72213826836E+03  0.76322878485E+03  0.17206018850E+03 0.  0.
         24    2    3    3    0    0 -0.12082178371E+01  0.61584149327E+02 -0.25167702654E+03  0.27141786163E+03  0.80822414475E+02 0.  0.
         -6    2    1    2    0  502 -0.12873589762E+03 -0.12188871808E+03 -0.10873581797E+03  0.26936914550E+03  0.17119131844E+03 0.  0.
        -24    2    5    5    0    0 -0.21069646215E+02  0.85203051803E+01 -0.32227181651E+02  0.83696863053E+02  0.73824440775E+02 0.  0.
          5    1    3    3  501    0  0.12994411545E+03  0.60304568754E+02 -0.47046124182E+03  0.49181092323E+03  0.47000000000E+01 0. -1.
        -13    1    4    4    0    0  0.16784866988E+02 -0.76808508654E+01 -0.13906009766E+02  0.23110697468E+02  0.00000000000E+00 0.  1.
         14    1    4    4    0    0 -0.17993084826E+02  0.69265000192E+02 -0.23777101678E+03  0.24830716416E+03  0.00000000000E+00 0. -1.
         -5    1    5    5    0  502 -0.10766625140E+03 -0.13040902326E+03 -0.76508636317E+02  0.18567228245E+03  0.47000000000E+01 0.  1.
         11    1    6    6    0    0  0.93117220643E+01 -0.28131310117E+02 -0.12818724471E+02  0.32286196334E+02  0.00000000000E+00 0. -1.
        -12    1    6    6    0    0 -0.30381368279E+02  0.36651615297E+02 -0.19408457180E+02  0.51410666719E+02  0.00000000000E+00 0.  1.
</event>
<event>
12    1  0.8052519E-002  0.1774076E+03  0.7818608E-02  0.1171379E+00
         21   -1    0    0  503  502  0.00000000000E+00  0.00000000000E+00  0.11952093369E+04  0.11952093369E+04  0.00000000000E+00 0.  1.
         21   -1    0    0  501  503 -0.00000000000E+00 -0.00000000000E+00 -0.54941624911E+02  0.54941624911E+02  0.00000000000E+00 0.  1.
          6    2    1    2  501    0 -0.23257466841E+02 -0.35790581662E+02  0.11107955358E+03  0.20578430054E+03  0.16788875968E+03 0.  0.
         24    2    3    3    0    0 -0.29950201518E+01  0.11283766331E+02 -0.35534171203E+01  0.80128544781E+02  0.79193834275E+02 0.  0.
         -6    2    1    2    0  502  0.23257466841E+02  0.35790581662E+02  0.10291881584E+04  0.10443666613E+04  0.17219634798E+03 0.  0.
        -24    2    5    5    0    0 -0.30481787714E+02  0.60284457589E+02  0.82963876890E+03  0.83620829297E+03  0.79877826492E+02 0.  0.
          5    1    3    3  501    0 -0.20262446689E+02 -0.47074347993E+02  0.11463297070E+03  0.12565575576E+03  0.47000000000E+01 0. -1.
        -11    1    4    4    0    0 -0.26457426356E+02 -0.24922792270E+02  0.30794625687E+01  0.36477720236E+02  0.00000000000E+00 0.  1.
         12    1    4    4    0    0  0.23462406204E+02  0.36206558601E+02 -0.66328796890E+01  0.43650824546E+02  0.00000000000E+00 0. -1.
         -5    1    5    5    0  502  0.53739254554E+02 -0.24493875927E+02  0.19954938953E+03  0.20815836831E+03  0.47000000000E+01 0.  1.
         13    1    6    6    0    0 -0.47602994209E+02  0.16483984287E+02  0.57962149458E+03  0.58180653466E+03  0.00000000000E+00 0. -1.
        -14    1    6    6    0    0  0.17121206495E+02  0.43800473302E+02  0.25001727432E+03  0.25440175831E+03  0.00000000000E+00 0.  1.
</event>
<event>
12    1  0.8052519E-002  0.1920146E+03  0.7818608E-02  0.1157468E+00
         21   -1    0    0  503  502  0.00000000000E+00  0.00000000000E+00  0.44310657664E+03  0.44310657664E+03  0.00000000000E+00 0.  1.
         21   -1    0    0  501  503 -0.00000000000E+00 -0.00000000000E+00 -0.77238628308E+03  0.77238628308E+03  0.00000000000E+00 0.  1.
          6    2    1    2  501    0 -0.73331883296E+02 -0.37906894044E+02 -0.73919839976E+03  0.76283077980E+03  0.16935768858E+03 0.  0.
         24    2    3    3    0    0 -0.99973692313E+02 -0.67888920476E+02 -0.63217437783E+03  0.64844136086E+03  0.78918374321E+02 0.  0.
         -6    2    1    2    0  502  0.73331883296E+02  0.37906894044E+02  0.40991869333E+03  0.45266207991E+03  0.17336414200E+03 0.  0.
        -24    2    5    5    0    0 -0.62929887239E+01 -0.28192465640E+02  0.23481935699E+03  0.24921401976E+03  0.78313985992E+02 0.  0.
          5    1    3    3  501    0  0.26641809018E+02  0.29982026432E+02 -0.10702402193E+03  0.11438941894E+03  0.47000000000E+01 0. -1.
        -11    1    4    4    0    0 -0.70222040125E+02 -0.46567082550E+02 -0.57076479379E+03  0.57695067200E+03  0.00000000000E+00 0.  1.
         12    1    4    4    0    0 -0.29751652188E+02 -0.21321837927E+02 -0.61409584043E+02  0.71490688854E+02  0.00000000000E+00 0. -1.
         -5    1    5    5    0  502  0.79624872019E+02  0.66099359684E+02  0.17509933633E+03  0.20344806015E+03  0.47000000000E+01 0.  1.
         11    1    6    6    0    0 -0.12622448596E+02 -0.51740745221E+02  0.11226275293E+03  0.12425520762E+03  0.00000000000E+00 0. -1.
        -12    1    6    6    0    0  0.63294598726E+01  0.23548279581E+02  0.12255660406E+03  0.12495881214E+03  0.00000000000E+00 0.  1.
</event>
<event>
12    1  0.8052519E-002  0.1743955E+03  0.7818608E-02  0.1174116E+00
         21   -1    0    0  503  502  0.00000000000E+00  0.00000000000E+00  0.28211007885E+03  0.28211007885E+03  0.00000000000E+00 0.  1.
         21   -1    0    0  501  503 -0.00000000000E+00 -0.00000000000E+00 -0.34992620875E+03  0.34992620875E+03  0.00000000000E+00 0.  1.
          6    2    1    2  501    0 -0.12694696203E+02  0.21908046644E+02 -0.29769891716E+03  0.34348837717E+03  0.16946534203E+03 0.  0.
         24    2    3    3    0    0  0.25406575320E+01  0.68207336650E+02 -0.11846872927E+03  0.15768931767E+03  0.78564530028E+02 0.  0.
         -6    2    1    2    0  502  0.12694696203E+02 -0.21908046644E+02  0.22988278726E+03  0.28854791044E+03  0.17254762508E+03 0.  0.
        -24    2    5    5    0    0 -0.32643537823E+02 -0.96890937301E+01  0.22443118490E+03  0.24104350808E+03  0.81074884730E+02 0.  0.
          5    1    3    3  501    0 -0.15235353735E+02 -0.46299290007E+02 -0.17923018789E+03  0.18579905950E+03  0.47000000000E+01 0. -1.
        -11    1    4    4    0    0 -0.18901402901E+02  0.36583766828E+02 -0.11148777808E+03  0.11884931505E+03  0.00000000000E+00 0.  1.
         12    1    4    4    0    0  0.21442060432E+02  0.31623569822E+02 -0.69809511904E+01  0.38840002619E+02  0.00000000000E+00 0. -1.
         -5    1    5    5    0  502  0.45338234025E+02 -0.12218952914E+02  0.54516023558E+01  0.47504402355E+02  0.47000000000E+01 0.  1.
         13    1    6    6    0    0  0.20356284625E+02 -0.76877532514E+01  0.19035934387E+02  0.28911012984E+02  0.00000000000E+00 0. -1.
        -14    1    6    6    0    0 -0.52999822447E+02 -0.20013404786E+01  0.20539525052E+03  0.21213249510E+03  0.00000000000E+00 0.  1.
</event>
<event>
12    1  0.8052519E-002  0.1864331E+03  0.7818608E-02  0.1162123E+00
         21   -1    0    0  501  502  0.00000000000E+00  0.00000000000E+00  0.35041851555E+02  0.35041851555E+02  0.00000000000E+00 0.  1.
         21   -1    0    0  502  503 -0.00000000000E+00 -0.00000000000E+00 -0.10861974669E+04  0.10861974669E+04  0.00000000000E+00 0.  1.
         -6    2    1    2    0  503  0.59262927136E+02  0.32957306823E+02 -0.70092409061E+03  0.72529434234E+03  0.17366353568E+03 0.  0.
        -24    2    3    3    0    0 -0.23646968833E+02 -0.64793985601E+01 -0.49665136177E+03  0.50128822115E+03  0.63451901303E+02 0.  0.
          6    2    1    2  501    0 -0.59262927136E+02 -0.32957306823E+02 -0.35023152473E+03  0.39594497611E+03  0.17179064173E+03 0.  0.
         24    2    5    5    0    0  0.15030376808E+02 -0.62994610411E+02 -0.23165527026E+03  0.25275226421E+03  0.77622868127E+02 0.  0.
          5    1    5    5  501    0 -0.74293303944E+02  0.30037303588E+02 -0.11857625448E+03  0.14319271191E+03  0.47000000000E+01 0. -1.
        -13    1    6    6    0    0  0.13942261329E+02 -0.42830474674E+02 -0.40621858400E+02  0.60654526555E+02  0.00000000000E+00 0.  1.
         14    1    6    6    0    0  0.10881154787E+01 -0.20164135737E+02 -0.19103341186E+03  0.19209773765E+03  0.00000000000E+00 0. -1.
         -5    1    3    3    0  503  0.82909895969E+02  0.39436705383E+02 -0.20427272885E+03  0.22400612119E+03  0.47000000000E+01 0.  1.
         13    1    4    4    0    0 -0.11900621506E+02 -0.35017414332E+02 -0.28871953996E+03  0.29107871247E+03  0.00000000000E+00 0. -1.
        -14    1    4    4    0    0 -0.11746347326E+02  0.28538015772E+02 -0.20793182181E+03  0.21020950868E+03  0.00000000000E+00 0.  1.
</event>
<event>
12    1  0.8052519E-002  0.2310142E+03  0.7818608E-02  0.1125933E+00
         21   -1    0    0  501  502  0.00000000000E+00  0.00000000000E+00  0.44387493216E+03  0.44387493216E+03  0.00000000000E+00 0.  1.
         21   -1    0    0  502  503 -0.00000000000E+00 -0.00000000000E+00 -0.12605921692E+03  0.12605921692E+03  0.00000000000E+00 0.  1.
         -6    2    1    2    0  503 -0.40912454595E+02  0.14877850327E+03  0.97561965130E+02  0.25077056165E+03  0.17192633763E+03 0.  0.
        -24    2    3    3    0    0  0.26263134934E+02  0.11692021956E+03  0.10186757097E+03  0.17615060245E+03  0.79321767048E+02 0.  0.
          6    2    1    2  501    0  0.40912454595E+02 -0.14877850327E+03  0.22025375011E+03  0.31916358744E+03  0.17188603530E+03 0.  0.
         24    2    5    5    0    0 -0.17505102228E+02 -0.15184834102E+03  0.15458324697E+03  0.23109123178E+03  0.78376207396E+02 0.  0.
          5    1    5    5  501    0  0.58417556823E+02  0.30698377472E+01  0.65670503141E+02  0.88072355662E+02  0.47000000000E+01 0. -1.
        -13    1    6    6    0    0  0.14055031683E+02 -0.60133492595E+02  0.19435324246E+02  0.64740348129E+02  0.00000000000E+00 0.  1.
         14    1    6    6    0    0 -0.31560133911E+02 -0.91714848427E+02  0.13514792272E+03  0.16635088365E+03  0.00000000000E+00 0. -1.
         -5    1    3    3    0  503 -0.67175589529E+02  0.31858283710E+02 -0.43056058411E+01  0.74619959201E+02  0.47000000000E+01 0.  1.
         13    1    4    4    0    0  0.22093866638E+02  0.39446637759E+00  0.35975485354E+02  0.42220020052E+02  0.00000000000E+00 0. -1.
        -14    1    4    4    0    0  0.41692682961E+01  0.11652575319E+03  0.65892085617E+02  0.13393058240E+03  0.00000000000E+00 0.  1.
</event>
<event>
12    1  0.8052519E-002  0.1796720E+03  0.7818608E-02  0.1169603E+00
         21   -1    0    0  503  502  0.00000000000E+00  0.00000000000E+00  0.36459086001E+03  0.36459086001E+03  0.00000000000E+00 0.  1.
         21   -1    0    0  501  503 -0.00000000000E+00 -0.00000000000E+00 -0.21619802111E+03  0.21619802111E+03  0.00000000000E+00 0.  1.
          6    2    1    2  501    0  0.25677225479E+02  0.64379747398E+01 -0.15198075906E+03  0.23077985316E+03  0.17164038591E+03 0.  0.
         24    2    3    3    0    0 -0.17435166366E+02  0.37213717247E+01 -0.16557077487E+03  0.18525143575E+03  0.81157743452E+02 0.  0.
         -6    2    1    2    0  502 -0.25677225479E+02 -0.64379747398E+01  0.30037359796E+03  0.35000902796E+03  0.17771115294E+03 0.  0.
        -24    2    5    5    0    0 -0.72173346760E+02  0.86470733678E+01  0.11303194946E+03  0.15633809253E+03  0.79885003078E+02 0.  0.
          5    1    3    3  501    0  0.43112391844E+02  0.27166030152E+01  0.13590015813E+02  0.45528417415E+02  0.47000000000E+01 0. -1.
        -13    1    4    4    0    0  0.23271210074E+02 -0.15269806721E+02 -0.11167525792E+03  0.11509161328E+03  0.00000000000E+00 0.  1.
         14    1    4    4    0    0 -0.40706376440E+02  0.18991178446E+02 -0.53895516947E+02  0.70159822467E+02  0.00000000000E+00 0. -1.
         -5    1    5    5    0  502  0.46496121281E+02 -0.15085048108E+02  0.18734164850E+03  0.19367093544E+03  0.47000000000E+01 0.  1.
         13    1    6    6    0    0 -0.55093313538E+01  0.12144105690E+02 -0.97926069770E+01  0.16544702668E+02  0.00000000000E+00 0. -1.
        -14    1    6    6    0    0 -0.66664015406E+02 -0.34970323222E+01  0.12282455643E+03  0.13979338986E+03  0.00000000000E+00 0.  1.
</event>
<event>
12    1  0.8052519E-002  0.1733877E+03  0.7818608E-02  0.1174874E+00
         21   -1    0    0  501  502  0.00000000000E+00  0.00000000000E+00  0.55750601885E+03  0.55750601885E+03  0.00000000000E+00 0. -1.
         21   -1    0    0  502  503 -0.00000000000E+00 -0.00000000000E+00 -0.89600713969E+02  0.89600713969E+02  0.00000000000E+00 0. -1.
         -6    2    1    2    0  503 -0.77499408358E+01  0.25987967581E+01  0.27207287871E+02  0.17352670953E+03  0.17118547566E+03 0.  0.
        -24    2    3    3    0    0  0.89675003020E+00  0.55097999669E+02 -0.23388735044E+02  0.99953758627E+02  0.80044532659E+02 0.  0.
          6    2    1    2  501    0  0.77499408358E+01 -0.25987967581E+01  0.44069801701E+03  0.47358002329E+03  0.17319492180E+03 0.  0.
         24    2    5    5    0    0 -0.27288285828E+02  0.57379970800E+02  0.26888262661E+03  0.28819461863E+03  0.81982679388E+02 0.  0.
          5    1    5    5  501    0  0.35038226663E+02 -0.59978767558E+02  0.17181539039E+03  0.18538540466E+03  0.47000000000E+01 0. -1.
        -13    1    6    6    0    0 -0.22030123007E+02 -0.17548722652E+02  0.85723531813E+02  0.90231967134E+02  0.00000000000E+00 0.  1.
         14    1    6    6    0    0 -0.52581628208E+01  0.74928693452E+02  0.18315909480E+03  0.19796265149E+03  0.00000000000E+00 0. -1.
         -5    1    3    3    0  503 -0.86466908660E+01 -0.52499202911E+02  0.50596022915E+02  0.73572950899E+02  0.47000000000E+01 0.  1.
         13    1    4    4    0    0 -0.25780844405E+02  0.32782221646E+02 -0.43101261953E+02  0.59975368079E+02  0.00000000000E+00 0. -1.
        -14    1    4    4    0    0  0.26677594436E+02  0.22315778023E+02  0.19712526909E+02  0.39978390548E+02  0.00000000000E+00 0.  1.
</event>
<event>
12    1  0.8052519E-002  0.1724493E+03  0.7818608E-02  0.1176670E+00
         21   -1    0    0  501  502  0.00000000000E+00  0.00000000000E+00  0.59539010594E+03  0.59539010594E+03  0.00000000000E+00 0. -1.
         21   -1    0    0  502  503 -0.00000000000E+00 -0.00000000000E+00 -0.59842284354E+02  0.59842284354E+02  0.00000000000E+00 0. -1.
         -6    2    1    2    0  503 -0.39054140113E+02 -0.12482116571E+02  0.40736200953E+03  0.44035950087E+03  0.16214701387E+03 0.  0.
        -24    2    3    3    0    0 -0.80523684846E+02  0.27201824307E+01  0.23504066995E+03  0.26240566666E+03  0.84386931169E+02 0.  0.
          6    2    1    2  501    0  0.39054140113E+02  0.12482116571E+02  0.12818581206E+03  0.21487288942E+03  0.16750440920E+03 0.  0.
         24    2    5    5    0    0  0.73456258521E+02  0.10995971198E+01  0.39442468903E+02  0.11890133919E+03  0.84763135136E+02 0.  0.
          5    1    5    5  501    0 -0.34402118408E+02  0.11382519452E+02  0.88743343155E+02  0.95971550234E+02  0.47000000000E+01 0. -1.
        -13    1    6    6    0    0  0.41923518832E+02  0.33794008220E+02  0.48632046938E+02  0.72558200172E+02  0.00000000000E+00 0.  1.
         14    1    6    6    0    0  0.31532739689E+02 -0.32694411100E+02 -0.91895780349E+01  0.46343139017E+02  0.00000000000E+00 0. -1.
         -5    1    3    3    0  503  0.41469544733E+02 -0.15202299002E+02  0.17232133958E+03  0.17795383421E+03  0.47000000000E+01 0.  1.
         13    1    4    4    0    0 -0.71290114216E+02 -0.14166556108E+02  0.23174918734E+03  0.24287992409E+03  0.00000000000E+00 0. -1.
        -14    1    4    4    0    0 -0.92335706293E+01  0.16886738539E+02  0.32914826143E+01  0.19525742568E+02  0.00000000000E+00 0.  1.
</event>
<event>
12    1  0.8052519E-002  0.1724814E+03  0.7818608E-02  0.1175301E+00
         21   -1    0    0  503  502  0.00000000000E+00  0.00000000000E+00  0.19037856348E+03  0.19037856348E+03  0.00000000000E+00 0.  1.
         21   -1    0    0  501  503 -0.00000000000E+00 -0.00000000000E+00 -0.25880858484E+03  0.25880858484E+03  0.00000000000E+00 0.  1.
          6    2    1    2  501    0  0.10873484592E+02  0.22024927289E+02 -0.17563054097E+03  0.24616235571E+03  0.17072342651E+03 0.  0.
         24    2    3    3    0    0  0.49395227595E+02 -0.59486713767E+01 -0.41562393578E+02  0.10381487575E+03  0.81085267879E+02 0.  0.
         -6    2    1    2    0  502 -0.10873484592E+02 -0.22024927289E+02  0.10720051961E+03  0.20302479261E+03  0.17065692169E+03 0.  0.
        -24    2    5    5    0    0  0.56267882343E+02 -0.11442907322E+02  0.87329189219E+02  0.13205365713E+03  0.80714102610E+02 0.  0.
          5    1    3    3  501    0 -0.38521743003E+02  0.27973598666E+02 -0.13406814739E+03  0.14234747996E+03  0.47000000000E+01 0. -1.
        -11    1    4    4    0    0 -0.16872715320E+02 -0.49524709143E+01 -0.32460357493E+02  0.36917344149E+02  0.00000000000E+00 0.  1.
         12    1    4    4    0    0  0.66267942915E+02 -0.99620046236E+00 -0.91020360845E+01  0.66897531602E+02  0.00000000000E+00 0. -1.
         -5    1    5    5    0  502 -0.67141366935E+02 -0.10582019967E+02  0.19871330390E+02  0.70971135484E+02  0.47000000000E+01 0.  1.
         11    1    6    6    0    0  0.41966167712E+02 -0.30307413493E+02  0.12063472946E+02  0.53152854341E+02  0.00000000000E+00 0. -1.
        -12    1    6    6    0    0  0.14301714631E+02  0.18864506171E+02  0.75265716272E+02  0.78900802787E+02  0.00000000000E+00 0.  1.
</event>
<event>
12    1  0.8052519E-002  0.2101156E+03  0.7818608E-02  0.1142565E+00
         21   -1    0    0  503  502  0.00000000000E+00  0.00000000000E+00  0.48118636392E+02  0.48118636392E+02  0.00000000000E+00 0.  1.
         21   -1    0    0  501  503 -0.00000000000E+00 -0.00000000000E+00 -0.90556845658E+03  0.90556845658E+03  0.00000000000E+00 0.  1.
          6    2    1    2  501    0  0.97340918646E+02  0.52568229530E+02 -0.48838930164E+03  0.53166969113E+03  0.17863336002E+03 0.  0.
         24    2    3    3    0    0  0.72576197597E+02  0.10349095334E+03 -0.39399882044E+03  0.42149678997E+03  0.80291914701E+02 0.  0.
         -6    2    1    2    0  502 -0.97340918646E+02 -0.52568229530E+02 -0.36906051855E+03  0.42201740184E+03  0.17220437831E+03 0.  0.
        -24    2    5    5    0    0  0.34841435883E+02  0.55650234778E+00 -0.12188739522E+03  0.13669117648E+03  0.51124409666E+02 0.  0.
          5    1    3    3  501    0  0.24764721049E+02 -0.50922723809E+02 -0.94390481201E+02  0.11017290116E+03  0.47000000000E+01 0. -1.
        -13    1    4    4    0    0  0.48443865877E+02  0.32012980409E+02 -0.27142810485E+03  0.27756955012E+03  0.00000000000E+00 0.  1.
         14    1    4    4    0    0  0.24132331720E+02  0.71477972930E+02 -0.12257071559E+03  0.14392723984E+03  0.00000000000E+00 0. -1.
         -5    1    5    5    0  502 -0.13218235453E+03 -0.53124731878E+02 -0.24717312333E+03  0.28532622536E+03  0.47000000000E+01 0.  1.
         13    1    6    6    0    0  0.10024226176E+02 -0.18666670769E+02 -0.87930817990E+02  0.90447545353E+02  0.00000000000E+00 0. -1.
        -14    1    6    6    0    0  0.24817209706E+02  0.19223173117E+02 -0.33956577230E+02  0.46243631123E+02  0.00000000000E+00 0.  1.
</event>
<event>
12    1  0.8052519E-002  0.2276451E+03  0.7818608E-02  0.1128573E+00
         21   -1    0    0  503  502  0.00000000000E+00  0.00000000000E+00  0.15500114651E+03  0.15500114651E+03  0.00000000000E+00 0.  1.
         21   -1    0    0  501  503 -0.00000000000E+00 -0.00000000000E+00 -0.14565198421E+04  0.14565198421E+04  0.00000000000E+00 0. -1.
          6    2    1    2  501    0  0.12951102192E+03  0.71781052297E+02 -0.13582196363E+04  0.13769207153E+04  0.17095160524E+03 0.  0.
         24    2    3    3    0    0  0.10732229075E+03  0.41602096899E+02 -0.53240208968E+03  0.55024071702E+03  0.77872029701E+02 0.  0.
         -6    2    1    2    0  502 -0.12951102192E+03 -0.71781052297E+02  0.56700940701E+02  0.23460027339E+03  0.17290652773E+03 0.  0.
        -24    2    5    5    0    0 -0.11236807729E+03 -0.85082041147E+02 -0.10255036319E+02  0.16405957794E+03  0.83335711591E+02 0.  0.
          5    1    3    3  501    0  0.22188731165E+02  0.30178955398E+02 -0.82581754666E+03  0.82667999825E+03  0.47000000000E+01 0. -1.
        -13    1    4    4    0    0 -0.51435118512E+01  0.24029451486E+02 -0.76903137628E+02  0.80733901367E+02  0.00000000000E+00 0.  1.
         14    1    4    4    0    0  0.11246580261E+03  0.17572645413E+02 -0.45549895205E+03  0.46950681565E+03  0.00000000000E+00 0. -1.
         -5    1    5    5    0  502 -0.17142944631E+02  0.13300988850E+02  0.66955977020E+02  0.70540695444E+02  0.47000000000E+01 0.  1.
         11    1    6    6    0    0 -0.72989769912E+01 -0.34045830107E+02  0.24050070283E+02  0.42317838950E+02  0.00000000000E+00 0. -1.
        -12    1    6    6    0    0 -0.10506910030E+03 -0.51036211040E+02 -0.34305106602E+02  0.12174173899E+03  0.00000000000E+00 0.  1.
</event>
<event>
12    1  0.8052519E-002  0.2155503E+03  0.7818608E-02  0.1137814E+00
         21   -1    0    0  503  502  0.00000000000E+00  0.00000000000E+00  0.19520534017E+03  0.19520534017E+03  0.00000000000E+00 0. -1.
         21   -1    0    0  501  503 -0.00000000000E+00 -0.00000000000E+00 -0.53941196340E+03  0.53941196340E+03  0.00000000000E+00 0. -1.
          6    2    1    2  501    0 -0.11158976940E+03  0.67316832811E+02 -0.44762207676E+03  0.49554263998E+03  0.16796771065E+03 0.  0.
         24    2    3    3    0    0 -0.14519321059E+03  0.49164917249E+02 -0.38500867424E+03  0.42204970513E+03  0.79975101568E+02 0.  0.
         -6    2    1    2    0  502  0.11158976940E+03 -0.67316832811E+02  0.10341545353E+03  0.23907466359E+03  0.17169189301E+03 0.  0.
        -24    2    5    5    0    0  0.17782494000E+02 -0.71763560323E+02  0.10198650475E+03  0.14503366084E+03  0.71883864256E+02 0.  0.
          5    1    3    3  501    0  0.33603441185E+02  0.18151915562E+02 -0.62613402512E+02  0.73492934846E+02  0.47000000000E+01 0. -1.
        -11    1    4    4    0    0 -0.39107805079E+02 -0.22270074734E+02 -0.10072557937E+03  0.11032234129E+03  0.00000000000E+00 0.  1.
         12    1    4    4    0    0 -0.10608540551E+03  0.71434991983E+02 -0.28428309487E+03  0.31172736385E+03  0.00000000000E+00 0. -1.
         -5    1    5    5    0  502  0.93807275405E+02  0.44467275120E+01  0.14289487773E+01  0.94041002754E+02  0.47000000000E+01 0.  1.
         13    1    6    6    0    0  0.39341001148E+02 -0.54697045494E+02  0.95342588313E+02  0.11674626462E+03  0.00000000000E+00 0. -1.
        -14    1    6    6    0    0 -0.21558507148E+02 -0.17066514829E+02  0.66439164413E+01  0.28287396214E+02  0.00000000000E+00 0.  1.
</event>
<event>
12    1  0.8052519E-002  0.1956949E+03  0.7818608E-02  0.1154483E+00
         21   -1    0    0  501  502  0.00000000000E+00  0.00000000000E+00  0.19027199116E+03  0.19027199116E+03  0.00000000000E+00 0.  1.
         21   -1    0    0  502  503 -0.00000000000E+00 -0.00000000000E+00 -0.51955343589E+03  0.51955343589E+03  0.00000000000E+00 0.  1.
         -6    2    1    2    0  503  0.37425495390E+02  0.84924410113E+02 -0.44378505258E+03  0.48309301656E+03  0.16679588308E+03 0.  0.
        -24    2    3    3    0    0 -0.21877317603E+02  0.95030839361E+02 -0.24804834096E+03  0.27826647087E+03  0.79967317711E+02 0.  0.
          6    2    1    2  501    0 -0.37425495390E+02 -0.84924410113E+02  0.11450360786E+03  0.22673241050E+03  0.17228954298E+03 0.  0.
         24    2    5    5    0    0  0.32063611348E+02 -0.81488493859E+02  0.10198254488E+03  0.15588462652E+03  0.78937491235E+02 0.  0.
          5    1    5    5  501    0 -0.69489106738E+02 -0.34359162540E+01  0.12521062978E+02  0.70847783972E+02  0.47000000000E+01 0. -1.
        -11    1    6    6    0    0  0.52319238740E+00 -0.12036161757E+02  0.73470100209E+02  0.74451316609E+02  0.00000000000E+00 0.  1.
         12    1    6    6    0    0  0.31540418961E+02 -0.69452332102E+02  0.28512444670E+02  0.81433309915E+02  0.00000000000E+00 0. -1.
         -5    1    3    3    0  503  0.59302812993E+02 -0.10106429248E+02 -0.19573671163E+03  0.20482654569E+03  0.47000000000E+01 0.  1.
         13    1    4    4    0    0  0.19891159527E+01 -0.68928760157E+01  0.17814436062E+01  0.73920134851E+01  0.00000000000E+00 0. -1.
        -14    1    4    4    0    0 -0.23866433556E+02  0.10192371538E+03 -0.24982978456E+03  0.27087445738E+03  0.00000000000E+00 0.  1.
</event>
<event>
12    1  0.8052519E-002  0.2299926E+03  0.7818608E-02  0.1126803E+00
         21   -1    0    0  501  502  0.00000000000E+00  0.00000000000E+00  0.37814010217E+03  0.37814010217E+03  0.00000000000E+00 0. -1.
         21   -1    0    0  502  503 -0.00000000000E+00 -0.00000000000E+00 -0.17392152429E+03  0.17392152429E+03  0.00000000000E+00 0. -1.
         -6    2    1    2    0  503  0.64351493847E+02  0.13795880254E+03 -0.20810862951E+02  0.23093222762E+03  0.17240317799E+03 0.  0.
        -24    2    3    3    0    0  0.32048336335E+02  0.63143867825E+01  0.26920991957E+02  0.87147088758E+02  0.76176820154E+02 0.  0.
          6    2    1    2  501    0 -0.64351493847E+02 -0.13795880254E+03  0.22502944083E+03  0.32112939883E+03  0.17120775566E+03 0.  0.
         24    2    5    5    0    0 -0.20331894881E+02 -0.11829263305E+03  0.23162241596E+03  0.27224135698E+03  0.77845230353E+02 0.  0.
          5    1    5    5  501    0 -0.44019598965E+02 -0.19666169487E+02 -0.65929751354E+01  0.48888041856E+02  0.47000000000E+01 0. -1.
        -11    1    6    6    0    0  0.13034159362E+02 -0.18843265152E+02  0.10663487984E+03  0.10906858186E+03  0.00000000000E+00 0.  1.
         12    1    6    6    0    0 -0.33366054244E+02 -0.99449367902E+02  0.12498753612E+03  0.16317277511E+03  0.00000000000E+00 0. -1.
         -5    1    3    3    0  503  0.32303157512E+02  0.13164441576E+03 -0.47731854907E+02  0.14378513887E+03  0.47000000000E+01 0.  1.
         13    1    4    4    0    0  0.16420880314E+02  0.36183961294E+02 -0.58129042909E+01  0.40158613291E+02  0.00000000000E+00 0. -1.
        -14    1    4    4    0    0  0.15627456021E+02 -0.29869574511E+02  0.32733896247E+02  0.46988475467E+02  0.00000000000E+00 0.  1.
</event>
<event>
12    1  0.8052519E-002  0.3858814E+03  0.7818608E-02  0.1048797E+00
         21   -1    0    0  501  502  0.00000000000E+00  0.00000000000E+00  0.86604567694E+03  0.86604567694E+03  0.00000000000E+00 0.  1.
         21   -1    0    0  502  503 -0.00000000000E+00 -0.00000000000E+00 -0.22091284176E+03  0.22091284176E+03  0.00000000000E+00 0. -1.
         -6    2    1    2    0  503 -0.92290883977E+02  0.33227550213E+03  0.66521672990E+02  0.39157323334E+03  0.17314689575E+03 0.  0.
        -24    2    3    3    0    0 -0.99771945814E+02  0.26440140825E+03 -0.30215217794E+01  0.29399657196E+03  0.81008079074E+02 0.  0.
          6    2    1    2  501    0  0.92290883977E+02 -0.33227550213E+03  0.57861116219E+03  0.69538528536E+03  0.17275763803E+03 0.  0.
         24    2    5    5    0    0  0.36207476333E+02 -0.15118752874E+03  0.39365291627E+03  0.43048937098E+03  0.78675471712E+02 0.  0.
          5    1    5    5  501    0  0.56083407644E+02 -0.18108797339E+03  0.18495824592E+03  0.26489591437E+03  0.47000000000E+01 0. -1.
        -11    1    6    6    0    0  0.39370191972E+02 -0.15956323214E+03  0.36135210888E+03  0.39697075920E+03  0.00000000000E+00 0.  1.
         12    1    6    6    0    0 -0.31627156389E+01  0.83757033989E+01  0.32300807393E+02  0.33518611784E+02  0.00000000000E+00 0. -1.
         -5    1    3    3    0  503  0.74810618370E+01  0.67874093880E+02  0.69543194769E+02  0.97576661374E+02  0.47000000000E+01 0.  1.
         11    1    4    4    0    0 -0.12430745240E+02  0.35846855904E+02 -0.29268308693E+02  0.47918205300E+02  0.00000000000E+00 0. -1.
        -12    1    4    4    0    0 -0.87341200574E+02  0.22855455235E+03  0.26246786913E+02  0.24607836666E+03  0.00000000000E+00 0.  1.
</event>
<event>
12    1  0.8052519E-002  0.2012484E+03  0.7818608E-02  0.1148710E+00
         21   -1    0    0  501  502  0.00000000000E+00  0.00000000000E+00  0.23394710655E+02  0.23394710655E+02  0.00000000000E+00 0.  1.
         21   -1    0    0  502  503 -0.00000000000E+00 -0.00000000000E+00 -0.22874681093E+04  0.22874681093E+04  0.00000000000E+00 0. -1.
         -6    2    1    2    0  503  0.13687690980E+01 -0.10454780360E+03 -0.17024514813E+04  0.17143050999E+04  0.17195584502E+03 0.  0.
        -24    2    3    3    0    0  0.43039510066E+02 -0.79809690670E+01 -0.99592978325E+03  0.99998262091E+03  0.78568528515E+02 0.  0.
          6    2    1    2  501    0 -0.13687690980E+01  0.10454780360E+03 -0.56162191729E+03  0.59655771999E+03  0.17184242355E+03 0.  0.
         24    2    5    5    0    0 -0.22696022473E+02 -0.11392471368E+01 -0.15914041083E+03  0.17985871894E+03  0.80666480648E+02 0.  0.
          5    1    5    5  501    0  0.21327253375E+02  0.10568705074E+03 -0.40248150647E+03  0.41669900105E+03  0.47000000000E+01 0. -1.
        -13    1    6    6    0    0  0.62201418482E+01 -0.31519628545E+02 -0.29552005414E+02  0.43652012236E+02  0.00000000000E+00 0.  1.
         14    1    6    6    0    0 -0.28916164321E+02  0.30380381409E+02 -0.12958840541E+03  0.13620670670E+03  0.00000000000E+00 0. -1.
         -5    1    3    3    0  503 -0.41670740968E+02 -0.96566834536E+02 -0.70652169808E+03  0.71432247902E+03  0.47000000000E+01 0.  1.
         13    1    4    4    0    0 -0.85194791017E+01 -0.31950313265E+02 -0.37494171102E+03  0.37639698551E+03  0.00000000000E+00 0. -1.
        -14    1    4    4    0    0  0.51558989168E+02  0.23969344198E+02 -0.62098807223E+03  0.62358563540E+03  0.00000000000E+00 0.  1.
</event>
<event>
12    1  0.8052519E-002  0.2614264E+03  0.7818608E-02  0.1106350E+00
         21   -1    0    0  503  502  0.00000000000E+00  0.00000000000E+00  0.50159367133E+03  0.50159367133E+03  0.00000000000E+00 0. -1.
         21   -1    0    0  501  503 -0.00000000000E+00 -0.00000000000E+00 -0.27387680423E+03  0.27387680423E+03  0.00000000000E+00 0. -1.
          6    2    1    2  501    0 -0.17245215330E+03 -0.93387300015E+02 -0.16116509660E+03  0.30711229411E+03  0.17286653769E+03 0.  0.
         24    2    3    3    0    0 -0.63674015406E+02 -0.25617773557E+02 -0.14272120272E+03  0.17754509448E+03  0.80263742176E+02 0.  0.
         -6    2    1    2    0  502  0.17245215330E+03  0.93387300015E+02  0.38888196370E+03  0.46835818145E+03  0.17224770380E+03 0.  0.
        -24    2    5    5    0    0  0.50995961674E+02  0.49586723535E+02  0.27905073019E+03  0.29878493227E+03  0.79647313047E+02 0.  0.
          5    1    3    3  501    0 -0.10877813789E+03 -0.67769526458E+02 -0.18443893883E+02  0.12956719964E+03  0.47000000000E+01 0. -1.
        -11    1    4    4    0    0  0.27499471965E+01  0.22827534457E+02 -0.37896013964E+02  0.44325685706E+02  0.00000000000E+00 0.  1.
         12    1    4    4    0    0 -0.66423962602E+02 -0.48445308013E+02 -0.10482518875E+03  0.13321940877E+03  0.00000000000E+00 0. -1.
         -5    1    5    5    0  502  0.12145619162E+03  0.43800576480E+02  0.10983123351E+03  0.16957324918E+03  0.47000000000E+01 0.  1.
         11    1    6    6    0    0  0.63697038824E+02  0.48343961798E+02  0.15819402538E+03  0.17725631459E+03  0.00000000000E+00 0. -1.
        -12    1    6    6    0    0 -0.12701077150E+02  0.12427617367E+01  0.12085670481E+03  0.12152861768E+03  0.00000000000E+00 0.  1.
</event>
<event>
12    1  0.8052519E-002  0.2230477E+03  0.7818608E-02  0.1132040E+00
         21   -1    0    0  503  502  0.00000000000E+00  0.00000000000E+00  0.37400726142E+03  0.37400726142E+03  0.00000000000E+00 0.  1.
         21   -1    0    0  501  503 -0.00000000000E+00 -0.00000000000E+00 -0.39066997545E+03  0.39066997545E+03  0.00000000000E+00 0.  1.
          6    2    1    2  501    0  0.85919767979E+02 -0.10779707487E+03 -0.31960927843E+03  0.38847664905E+03  0.17251550689E+03 0.  0.
         24    2    3    3    0    0  0.70535977549E+02 -0.83357179222E+02 -0.10502912890E+03  0.17191095444E+03  0.81231243273E+02 0.  0.
         -6    2    1    2    0  502 -0.85919767979E+02  0.10779707487E+03  0.30294656440E+03  0.37620058782E+03  0.17535063591E+03 0.  0.
        -24    2    5    5    0    0 -0.43300391515E+02  0.14120124817E+03  0.21422207711E+03  0.27215072146E+03  0.79763403160E+02 0.  0.
          5    1    3    3  501    0  0.15383790429E+02 -0.24439895652E+02 -0.21458014953E+03  0.21656569461E+03  0.47000000000E+01 0. -1.
        -13    1    4    4    0    0  0.88920646836E+02 -0.68067195113E+02 -0.90019169119E+02  0.14367837448E+03  0.00000000000E+00 0.  1.
         14    1    4    4    0    0 -0.18384669286E+02 -0.15289984109E+02 -0.15009959783E+02  0.28232579965E+02  0.00000000000E+00 0. -1.
         -5    1    5    5    0  502 -0.42619376464E+02 -0.33404173292E+02  0.88724487293E+02  0.10404986636E+03  0.47000000000E+01 0.  1.
         11    1    6    6    0    0 -0.58096728336E+01  0.33273971646E+02  0.11811876070E+03  0.12285337243E+03  0.00000000000E+00 0. -1.
        -12    1    6    6    0    0 -0.37490718681E+02  0.10792727652E+03  0.96103316404E+02  0.14929734903E+03  0.00000000000E+00 0.  1.
</event>
<event>
12    1  0.8052519E-002  0.2020744E+03  0.7818608E-02  0.1150195E+00
         21   -1    0    0  501  502  0.00000000000E+00  0.00000000000E+00  0.47907997981E+02  0.47907997981E+02  0.00000000000E+00 0. -1.
         21   -1    0    0  502  503 -0.00000000000E+00 -0.00000000000E+00 -0.10156396288E+04  0.10156396288E+04  0.00000000000E+00 0. -1.
         -6    2    1    2    0  503  0.95196699864E+02  0.14339114852E+02 -0.25447819167E+03  0.32495106376E+03  0.17766829183E+03 0.  0.
        -24    2    3    3    0    0  0.22205625508E+01 -0.31159774172E+02 -0.60457498400E+02  0.10499463528E+03  0.79955624570E+02 0.  0.
          6    2    1    2  501    0 -0.95196699864E+02 -0.14339114852E+02 -0.71325343917E+03  0.73859656304E+03  0.16591079703E+03 0.  0.
         24    2    5    5    0    0 -0.25711680226E+02 -0.30698014596E+02 -0.58595517143E+03  0.59257354936E+03  0.78717786278E+02 0.  0.
          5    1    5    5  501    0 -0.69485019638E+02  0.16358899745E+02 -0.12729826774E+03  0.14602301368E+03  0.47000000000E+01 0. -1.
        -13    1    6    6    0    0  0.22180907854E+02  0.87295439911E+01 -0.10733491838E+03  0.10994990820E+03  0.00000000000E+00 0.  1.
         14    1    6    6    0    0 -0.47892588079E+02 -0.39427558588E+02 -0.47862025306E+03  0.48262364116E+03  0.00000000000E+00 0. -1.
         -5    1    3    3    0  503  0.92976137313E+02  0.45498889023E+02 -0.19402069327E+03  0.21995642848E+03  0.47000000000E+01 0.  1.
         13    1    4    4    0    0  0.23330452243E+02  0.16692770781E+02 -0.39111743109E+02  0.48504505433E+02  0.00000000000E+00 0. -1.
        -14    1    4    4    0    0 -0.21109889692E+02 -0.47852544953E+02 -0.21345755291E+02  0.56490129848E+02  0.00000000000E+00 0.  1.
</event>
<event>
12    1  0.8052519E-002  0.3325291E+03  0.7818608E-02  0.1070319E+00
         21   -1    0    0  501  502  0.00000000000E+00  0.00000000000E+00  0.16834833712E+04  0.16834833712E+04  0.00000000000E+00 0. -1.
         21   -1    0    0  502  503 -0.00000000000E+00 -0.00000000000E+00 -0.81621340483E+02  0.81621340483E+02  0.00000000000E+00 0. -1.
         -6    2    1    2    0  503  0.41487479317E+02  0.28136263433E+03  0.40709893136E+03  0.52564734149E+03  0.17230625284E+03 0.  0.
        -24    2    3    3    0    0  0.43593852553E+02  0.21182584309E+03  0.39170621025E+03  0.45424126326E+03  0.78299159153E+02 0.  0.
          6    2    1    2  501    0 -0.41487479317E+02 -0.28136263433E+03  0.11947630994E+04  0.12394573702E+04  0.16706156348E+03 0.  0.
         24    2    5    5    0    0  0.18965668951E+01 -0.13329115694E+03  0.36895045121E+03  0.39934073678E+03  0.74689083021E+02 0.  0.
          5    1    5    5  501    0 -0.43384046212E+02 -0.14807147739E+03  0.82581264819E+03  0.84011663345E+03  0.47000000000E+01 0. -1.
        -11    1    6    6    0    0 -0.33186565571E+02 -0.92259173775E+02  0.21822660987E+03  0.23924037396E+03  0.00000000000E+00 0.  1.
         12    1    6    6    0    0  0.35083132466E+02 -0.41031983165E+02  0.15072384134E+03  0.16010036282E+03  0.00000000000E+00 0. -1.
         -5    1    3    3    0  503 -0.21063732363E+01  0.69536791247E+02  0.15392721110E+02  0.71406078230E+02  0.47000000000E+01 0.  1.
         11    1    4    4    0    0  0.63473113537E+02  0.12630880518E+03  0.26021631733E+03  0.29613389237E+03  0.00000000000E+00 0. -1.
        -12    1    4    4    0    0 -0.19879260984E+02  0.85517037909E+02  0.13148989292E+03  0.15810737089E+03  0.00000000000E+00 0.  1.
</event>
<event>
12    1  0.8052519E-002  0.1774929E+03  0.7818608E-02  0.1170352E+00
         21   -1    0    0  501  502  0.00000000000E+00  0.00000000000E+00  0.53883141335E+02  0.53883141335E+02  0.00000000000E+00 0.  1.
         21   -1    0    0  502  503 -0.00000000000E+00 -0.00000000000E+00 -0.70933570625E+03  0.70933570625E+03  0.00000000000E+00 0.  1.
         -6    2    1    2    0  503  0.29134517785E+02 -0.29921072076E+02 -0.48825640637E+03  0.51937811855E+03  0.17209073477E+03 0.  0.
        -24    2    3    3    0    0  0.83060763734E+01 -0.73020372740E+02 -0.18870255271E+03  0.21598732283E+03  0.75105955055E+02 0.  0.
          6    2    1    2  501    0 -0.29134517785E+02  0.29921072076E+02 -0.16719615855E+03  0.24384072903E+03  0.17250986934E+03 0.  0.
         24    2    5    5    0    0  0.44696288236E+02  0.39461950232E+02 -0.77690924076E+02  0.12732766851E+03  0.81372303557E+02 0.  0.
          5    1    5    5  501    0 -0.73830806020E+02 -0.95408781554E+01 -0.89505234472E+02  0.11651306052E+03  0.47000000000E+01 0. -1.
        -11    1    6    6    0    0  0.51321484858E+02  0.27593319632E+02 -0.11041083480E+02  0.59305915562E+02  0.00000000000E+00 0.  1.
         12    1    6    6    0    0 -0.66251966220E+01  0.11868630600E+02 -0.66649840596E+02  0.68021752947E+02  0.00000000000E+00 0. -1.
         -5    1    3    3    0  503  0.20828441411E+02  0.43099300664E+02 -0.29955385366E+03  0.30339079572E+03  0.47000000000E+01 0.  1.
         11    1    4    4    0    0  0.33264240606E+02 -0.23269873706E+02 -0.39088106415E+02  0.56354918051E+02  0.00000000000E+00 0. -1.
        -12    1    4    4    0    0 -0.24958164232E+02 -0.49750499035E+02 -0.14961444629E+03  0.15963240478E+03  0.00000000000E+00 0.  1.
</event>
<event>
12    1  0.8052519E-002  0.1768332E+03  0.7818608E-02  0.1171231E+00
         21   -1    0    0  503  502  0.00000000000E+00  0.00000000000E+00  0.25866159891E+03  0.25866159891E+03  0.00000000000E+00 0.  1.
         21   -1    0    0  501  503 -0.00000000000E+00 -0.00000000000E+00 -0.22594188586E+03  0.22594188586E+03  0.00000000000E+00 0.  1.
          6    2    1    2  501    0  0.38598616549E+02 -0.61737121369E+01 -0.14952963116E+03  0.23157958942E+03  0.17245877108E+03 0.  0.
         24    2    3    3    0    0  0.83740012078E+01  0.44590348354E+02 -0.14648826091E+03  0.17223435252E+03  0.78405602749E+02 0.  0.
         -6    2    1    2    0  502 -0.38598616549E+02  0.61737121369E+01  0.18224934421E+03  0.25302389535E+03  0.17110903024E+03 0.  0.
        -24    2    5    5    0    0  0.12119471243E+02  0.34035746865E+02  0.32854388601E+02  0.92744264172E+02  0.78846522045E+02 0.  0.
          5    1    3    3  501    0  0.30224615342E+02 -0.50764060491E+02 -0.30413702507E+01  0.59345236903E+02  0.47000000000E+01 0. -1.
        -11    1    4    4    0    0  0.58704717006E+01 -0.10850653135E+02 -0.97290972276E+02  0.98070038227E+02  0.00000000000E+00 0.  1.
         12    1    4    4    0    0  0.25035295071E+01  0.55441001489E+02 -0.49197288629E+02  0.74164314293E+02  0.00000000000E+00 0. -1.
         -5    1    5    5    0  502 -0.50718087793E+02 -0.27862034728E+02  0.14939495561E+03  0.16027963117E+03  0.47000000000E+01 0.  1.
         11    1    6    6    0    0 -0.27842096572E+01  0.17507965827E+02 -0.25062499905E+02  0.30698690400E+02  0.00000000000E+00 0. -1.
        -12    1    6    6    0    0  0.14903680900E+02  0.16527781038E+02  0.57916888506E+02  0.62045573771E+02  0.00000000000E+00 0.  1.
</event>
<event>
12    1  0.8052519E-002  0.1860686E+03  0.7818608E-02  0.1162082E+00
         21   -1    0    0  501  502  0.00000000000E+00  0.00000000000E+00  0.17937324659E+03  0.17937324659E+03  0.00000000000E+00 0. -1.
         21   -1    0    0  502  503 -0.00000000000E+00 -0.00000000000E+00 -0.23041656911E+03  0.23041656911E+03  0.00000000000E+00 0. -1.
         -6    2    1    2    0  503 -0.57222249267E+02  0.36541631429E+02 -0.10819846884E+03  0.21514083497E+03  0.17311554977E+03 0.  0.
        -24    2    3    3    0    0 -0.66359444821E+02  0.40570041909E+02 -0.14113880652E+03  0.18040076761E+03  0.81084955635E+02 0.  0.
          6    2    1    2  501    0  0.57222249267E+02 -0.36541631429E+02  0.57155146319E+02  0.19464898074E+03  0.17323925165E+03 0.  0.
         24    2    5    5    0    0  0.15234720217E+02 -0.81717390236E+02  0.62250366022E+02  0.13258568205E+03  0.82425884581E+02 0.  0.
          5    1    5    5  501    0  0.41987529049E+02  0.45175758807E+02 -0.50952197021E+01  0.62063298682E+02  0.47000000000E+01 0. -1.
        -11    1    6    6    0    0  0.30412701257E+02 -0.26582774721E+02 -0.88407425860E+01  0.41348942418E+02  0.00000000000E+00 0.  1.
         12    1    6    6    0    0 -0.15177981040E+02 -0.55134615515E+02  0.71091108608E+02  0.91236739636E+02  0.00000000000E+00 0. -1.
         -5    1    3    3    0  503  0.91371955542E+01 -0.40284104804E+01  0.32940337679E+02  0.34740067357E+02  0.47000000000E+01 0.  1.
         11    1    4    4    0    0  0.34213290721E+01 -0.14169116481E+02 -0.10710299437E+01  0.14615623819E+02  0.00000000000E+00 0. -1.
        -12    1    4    4    0    0 -0.69780773893E+02  0.54739158390E+02 -0.14006777658E+03  0.16578514379E+03  0.00000000000E+00 0.  1.
</event>
<event>
12    1  0.8052519E-002  0.1900415E+03  0.7818608E-02  0.1159678E+00
         21   -1    0    0  503  502  0.00000000000E+00  0.00000000000E+00  0.45243154650E+03  0.45243154650E+03  0.00000000000E+00 0. -1.
         21   -1    0    0  501  503 -0.00000000000E+00 -0.00000000000E+00 -0.20760390232E+03  0.20760390232E+03  0.00000000000E+00 0. -1.
          6    2    1    2  501    0  0.51112868721E+02  0.64183676337E+02 -0.13811982741E+03  0.23493157835E+03  0.17141671484E+03 0.  0.
         24    2    3    3    0    0 -0.19303773926E+02  0.59225472360E+02 -0.32876861674E+02  0.10811967361E+03  0.82028553102E+02 0.  0.
         -6    2    1    2    0  502 -0.51112868721E+02 -0.64183676337E+02  0.38294747158E+03  0.42510387046E+03  0.16532533089E+03 0.  0.
        -24    2    5    5    0    0 -0.64707046921E+02 -0.59672233964E+02  0.38966137497E+03  0.40860171024E+03  0.85857981842E+02 0.  0.
          5    1    3    3  501    0  0.70416642647E+02  0.49582039770E+01 -0.10524296573E+03  0.12681190474E+03  0.47000000000E+01 0. -1.
        -11    1    4    4    0    0 -0.18758479224E+02 -0.17492370012E+02 -0.13527242606E+02  0.28997410987E+02  0.00000000000E+00 0.  1.
         12    1    4    4    0    0 -0.54529470165E+00  0.76717842372E+02 -0.19349619068E+02  0.79122262623E+02  0.00000000000E+00 0. -1.
         -5    1    5    5    0  502  0.13594178200E+02 -0.45114423733E+01 -0.67139033843E+01  0.16502160219E+02  0.47000000000E+01 0.  1.
         11    1    6    6    0    0 -0.44353157917E+02  0.47813448266E+01  0.24370837804E+03  0.24775761826E+03  0.00000000000E+00 0. -1.
        -12    1    6    6    0    0 -0.20353889004E+02 -0.64453578790E+02  0.14595299692E+03  0.16084409199E+03  0.00000000000E+00 0.  1.
</event>
<event>
12    1  0.8052519E-002  0.2108813E+03  0.7818608E-02  0.1141009E+00
         21   -1    0    0  501  502  0.00000000000E+00  0.00000000000E+00  0.10902860638E+04  0.10902860638E+04  0.00000000000E+00 0.  1.
         21   -1    0    0  502  503 -0.00000000000E+00 -0.00000000000E+00 -0.82283524039E+02  0.82283524039E+02  0.00000000000E+00 0. -1.
         -6    2    1    2    0  503  0.47178937909E+02 -0.11178706612E+03  0.87393000531E+02  0.22827275489E+03  0.17247815442E+03 0.  0.
        -24    2    3    3    0    0 -0.27942799583E+02 -0.29773997100E+02  0.72525558182E+02  0.11596714606E+03  0.80753522671E+02 0.  0.
          6    2    1    2  501    0 -0.47178937909E+02  0.11178706612E+03  0.92060953922E+03  0.94429683294E+03  0.17161697077E+03 0.  0.
         24    2    5    5    0    0  0.32665088540E+02  0.81638007691E+02  0.42369447118E+03  0.44008387284E+03  0.80156334221E+02 0.  0.
          5    1    5    5  501    0 -0.79844026449E+02  0.30149058427E+02  0.49691506804E+03  0.50421296010E+03  0.47000000000E+01 0. -1.
        -11    1    6    6    0    0  0.41473296501E+02  0.77771317618E+02  0.42095313751E+03  0.43008133667E+03  0.00000000000E+00 0.  1.
         12    1    6    6    0    0 -0.88082079614E+01  0.38666900725E+01  0.27413336664E+01  0.10002536172E+02  0.00000000000E+00 0. -1.
         -5    1    3    3    0  503  0.75121737493E+02 -0.82013069017E+02  0.14867442349E+02  0.11230560883E+03  0.47000000000E+01 0.  1.
         13    1    4    4    0    0 -0.21361097415E+02 -0.34531752698E+02 -0.23308293526E+01  0.40671503447E+02  0.00000000000E+00 0. -1.
        -14    1    4    4    0    0 -0.65817021679E+01  0.47577555975E+01  0.74856387535E+02  0.75295642613E+02  0.00000000000E+00 0.  1.
</event>
<event>
12    1  0.8052519E-002  0.2219103E+03  0.7818608E-02  0.1132923E+00
         21   -1    0    0  503  502  0.00000000000E+00  0.00000000000E+00  0.20216390959E+02  0.20216390959E+02  0.00000000000E+00 0. -1.
         21   -1    0    0  501  503 -0.00000000000E+00 -0.00000000000E+00 -0.24089167564E+04  0.24089167564E+04  0.00000000000E+00 0.  1.
          6    2    1    2  501    0  0.71276896360E+02 -0.11720362900E+03 -0.11884976818E+04  0.12085879203E+04  0.17129195796E+03 0.  0.
         24    2    3    3    0    0  0.52090416374E+02 -0.14229577806E+03 -0.76562949075E+03  0.78451559869E+03  0.79465134194E+02 0.  0.
         -6    2    1    2    0  502 -0.71276896360E+02  0.11720362900E+03 -0.12002026837E+04  0.12205452271E+04  0.17443360587E+03 0.  0.
        -24    2    5    5    0    0 -0.61917313959E+02  0.11325053971E+02 -0.80453052899E+03  0.81081797827E+03  0.78704581747E+02 0.  0.
          5    1    3    3  501    0  0.19186479986E+02  0.25092149057E+02 -0.42286819103E+03  0.42407232160E+03  0.47000000000E+01 0. -1.
        -11    1    4    4    0    0 -0.93614943821E+00 -0.10598697586E+03 -0.51347965211E+03  0.52430474779E+03  0.00000000000E+00 0.  1.
         12    1    4    4    0    0  0.53026565812E+02 -0.36308802202E+02 -0.25214983864E+03  0.26021085090E+03  0.00000000000E+00 0. -1.
         -5    1    5    5    0  502 -0.93595824011E+01  0.10587857503E+03 -0.39567215471E+03  0.40972724885E+03  0.47000000000E+01 0.  1.
         13    1    6    6    0    0  0.94065429258E+01 -0.18122563463E+02 -0.99231404610E+02  0.10131032532E+03  0.00000000000E+00 0. -1.
        -14    1    6    6    0    0 -0.71323856885E+02  0.29447617434E+02 -0.70529912438E+03  0.70950765294E+03  0.00000000000E+00 0.  1.
</event>
<event>
12    1  0.8052519E-002  0.1840241E+03  0.7818608E-02  0.1165269E+00
         21   -1    0    0  501  502  0.00000000000E+00  0.00000000000E+00  0.10836128682E+04  0.10836128682E+04  0.00000000000E+00 0.  1.
         21   -1    0    0  502  503 -0.00000000000E+00 -0.00000000000E+00 -0.96115310850E+02  0.96115310850E+02  0.00000000000E+00 0. -1.
         -6    2    1    2    0  503 -0.64122693758E+02  0.18636146927E+02  0.34228011469E+01  0.17859481573E+03  0.16560605910E+03 0.  0.
        -24    2    3    3    0    0 -0.10513487967E+03 -0.20265100459E+00  0.14317486704E+02  0.13192915519E+03  0.78402344184E+02 0.  0.
          6    2    1    2  501    0  0.64122693758E+02 -0.18636146927E+02  0.98407475620E+03  0.10011333633E+04  0.17148136787E+03 0.  0.
         24    2    5    5    0    0  0.20466799659E+02  0.45410133052E+02  0.33513392301E+03  0.34756312375E+03  0.77488118857E+02 0.  0.
          5    1    5    5  501    0  0.43655894099E+02 -0.64046279979E+02  0.64894083319E+03  0.65357023957E+03  0.47000000000E+01 0. -1.
        -11    1    6    6    0    0  0.21929173268E+02  0.95754544509E+01  0.22392448699E+02  0.32771935050E+02  0.00000000000E+00 0.  1.
         12    1    6    6    0    0 -0.14623736087E+01  0.35834678601E+02  0.31274147431E+03  0.31479118870E+03  0.00000000000E+00 0. -1.
         -5    1    3    3    0  503  0.41012185909E+02  0.18838797932E+02 -0.10894685557E+02  0.46665660543E+02  0.47000000000E+01 0.  1.
         11    1    4    4    0    0 -0.80867001873E+02 -0.35429173733E+02  0.74043073402E+01  0.88597528806E+02  0.00000000000E+00 0. -1.
        -12    1    4    4    0    0 -0.24267877793E+02  0.35226522728E+02  0.69131793634E+01  0.43331626383E+02  0.00000000000E+00 0.  1.
</event>
<event>
12    1  0.8052519E-002  0.4098259E+03  0.7818608E-02  0.1040495E+00
         21   -1    0    0  501  502  0.00000000000E+00  0.00000000000E+00  0.18811278900E+04  0.18811278900E+04  0.00000000000E+00 0.  1.
         21   -1    0    0  502  503 -0.00000000000E+00 -0.00000000000E+00 -0.93946164850E+02  0.93946164850E+02  0.00000000000E+00 0. -1.
         -6    2    1    2    0  503 -0.12574344052E+03  0.35001828508E+03  0.67044622563E+03  0.78578328964E+03  0.17214245289E+03 0.  0.
        -24    2    3    3    0    0 -0.37647540920E+02  0.28465685239E+03  0.45784733259E+03  0.54650649651E+03  0.81229980983E+02 0.  0.
          6    2    1    2  501    0  0.12574344052E+03 -0.35001828508E+03  0.11167354995E+04  0.11892907652E+04  0.17026489833E+03 0.  0.
         24    2    5    5    0    0  0.14831845181E+03 -0.30666929078E+03  0.85956424597E+03  0.92747420711E+03  0.72892351139E+02 0.  0.
          5    1    5    5  501    0 -0.22575011291E+02 -0.43348994301E+02  0.25717125354E+03  0.26181655809E+03  0.47000000000E+01 0. -1.
        -13    1    6    6    0    0  0.12209855479E+03 -0.23031317367E+03  0.72630034598E+03  0.77166340306E+03  0.00000000000E+00 0.  1.
         14    1    6    6    0    0  0.26219897025E+02 -0.76356117109E+02  0.13326389999E+03  0.15581080406E+03  0.00000000000E+00 0. -1.
         -5    1    3    3    0  503 -0.88095899603E+02  0.65361432689E+02  0.21259889304E+03  0.23927679313E+03  0.47000000000E+01 0.  1.
         13    1    4    4    0    0 -0.53977636861E+02  0.19015804538E+03  0.25968350262E+03  0.32635745592E+03  0.00000000000E+00 0. -1.
        -14    1    4    4    0    0  0.16330095941E+02  0.94498807015E+02  0.19816382998E+03  0.22014904059E+03  0.00000000000E+00 0.  1.
</event>
<event>
12    1  0.8052519E-002  0.1935393E+03  0.7818608E-02  0.1156177E+00
         21   -1    0    0  503  502  0.00000000000E+00  0.00000000000E+00  0.23890423030E+02  0.23890423030E+02  0.00000000000E+00 0. -1.
         21   -1    0    0  501  503 -0.00000000000E+00 -0.00000000000E+00 -0.18909910481E+04  0.18909910481E+04  0.00000000000E+00 0.  1.
          6    2    1    2  501    0  0.88632090954E+02 -0.34933083089E+01 -0.13558645737E+04  0.13696080485E+04  0.17201631800E+03 0.  0.
         24    2    3    3    0    0  0.52433391431E+02  0.52330209802E+02 -0.10925522220E+04  0.10979794499E+04  0.80005020404E+02 0.  0.
         -6    2    1    2    0  502 -0.88632090954E+02  0.34933083089E+01 -0.51123605137E+03  0.54527342259E+03  0.16760952960E+03 0.  0.
        -24    2    5    5    0    0 -0.10339365513E+03 -0.44657612274E+02 -0.41412914272E+03  0.43578252508E+03  0.75623488812E+02 0.  0.
          5    1    3    3  501    0  0.36198699523E+02 -0.55823518111E+02 -0.26331235170E+03  0.27162859860E+03  0.47000000000E+01 0. -1.
        -11    1    4    4    0    0  0.50328208566E+02  0.22883797615E+02 -0.31141162653E+03  0.31628120068E+03  0.00000000000E+00 0.  1.
         12    1    4    4    0    0  0.21051828648E+01  0.29446412187E+02 -0.78114059548E+03  0.78169824926E+03  0.00000000000E+00 0. -1.
         -5    1    5    5    0  502  0.14761564180E+02  0.48150920582E+02 -0.97106908646E+02  0.10949089751E+03  0.47000000000E+01 0.  1.
         11    1    6    6    0    0 -0.79590460820E+02 -0.88485158631E+01 -0.17027183222E+03  0.18816331878E+03  0.00000000000E+00 0. -1.
        -12    1    6    6    0    0 -0.23803194314E+02 -0.35809096410E+02 -0.24385731050E+03  0.24761920630E+03  0.00000000000E+00 0.  1.
</event>
<event>
12    1  0.8052519E-002  0.2437543E+03  0.7818608E-02  0.1117382E+00
         21   -1    0    0  503  502  0.00000000000E+00  0.00000000000E+00  0.29702231816E+03  0.29702231816E+03  0.00000000000E+00 0.  1.
         21   -1    0    0  501  503 -0.00000000000E+00 -0.00000000000E+00 -0.21558398430E+03  0.21558398430E+03  0.00000000000E+00 0. -1.
          6    2    1    2  501    0 -0.17150510495E+03  0.18487280945E+02 -0.28799047813E+02  0.24544964572E+03  0.17222184195E+03 0.  0.
         24    2    3    3    0    0 -0.18331445724E+03 -0.16813576340E+02 -0.46870447021E+01  0.20085043025E+03  0.80200002249E+02 0.  0.
         -6    2    1    2    0  502  0.17150510495E+03 -0.18487280945E+02  0.11023738167E+03  0.26715665675E+03  0.17165260949E+03 0.  0.
        -24    2    5    5    0    0  0.52625440085E+02  0.48660640884E+02  0.60111194369E+02  0.12163709525E+03  0.77749162936E+02 0.  0.
          5    1    3    3  501    0  0.11809352285E+02  0.35300857284E+02 -0.24112003111E+02  0.44599215469E+02  0.47000000000E+01 0. -1.
        -11    1    4    4    0    0 -0.98842435901E+02  0.97055186042E+01  0.32956871884E+02  0.10464310599E+03  0.00000000000E+00 0.  1.
         12    1    4    4    0    0 -0.84472021335E+02 -0.26519094944E+02 -0.37643916586E+02  0.96207324259E+02  0.00000000000E+00 0. -1.
         -5    1    5    5    0  502  0.11887966487E+03 -0.67147921829E+02  0.50126187306E+02  0.14551956150E+03  0.47000000000E+01 0.  1.
         13    1    6    6    0    0  0.95894514225E+01  0.43007370164E+02 -0.39668273874E+01  0.44241690593E+02  0.00000000000E+00 0. -1.
        -14    1    6    6    0    0  0.43035988662E+02  0.56532707198E+01  0.64078021756E+02  0.77395404658E+02  0.00000000000E+00 0.  1.
</event>
<event>
12    1  0.8052519E-002  0.1721685E+03  0.7818608E-02  0.1175613E+00
         21   -1    0    0  503  502  0.00000000000E+00  0.00000000000E+00  0.71962982323E+02  0.71962982323E+02  0.00000000000E+00 0.  1.
         21   -1    0    0  501  503 -0.00000000000E+00 -0.00000000000E+00 -0.76063065677E+03  0.76063065677E+03  0.00000000000E+00 0.  1.
          6    2    1    2  501    0 -0.11304719195E+02 -0.21362872982E+02 -0.62625652536E+03  0.64949152376E+03  0.17046358809E+03 0.  0.
         24    2    3    3    0    0  0.54683212777E+02 -0.37357112712E+02 -0.32570962918E+03  0.34133450262E+03  0.77696026369E+02 0.  0.
         -6    2    1    2    0  502  0.11304719195E+02  0.21362872982E+02 -0.62411149081E+02  0.18310211533E+03  0.17043199256E+03 0.  0.
        -24    2    5    5    0    0 -0.10404998408E+02 -0.51493371644E+02 -0.27620100638E+02  0.99365317732E+02  0.79691687733E+02 0.  0.
          5    1    3    3  501    0 -0.65987931972E+02  0.15994239730E+02 -0.30054689619E+03  0.30815702114E+03  0.47000000000E+01 0. -1.
        -11    1    4    4    0    0 -0.66473110752E+01 -0.14902078840E+02 -0.19028420873E+03  0.19098256148E+03  0.00000000000E+00 0.  1.
         12    1    4    4    0    0  0.61330523852E+02 -0.22455033872E+02 -0.13542542045E+03  0.15035194115E+03  0.00000000000E+00 0. -1.
         -5    1    5    5    0  502  0.21709717603E+02  0.72856244626E+02 -0.34791048443E+02  0.83736797593E+02  0.47000000000E+01 0.  1.
         11    1    6    6    0    0 -0.38815232424E+02 -0.41260408909E+02 -0.37099204323E+02  0.67715541590E+02  0.00000000000E+00 0. -1.
        -12    1    6    6    0    0  0.28410234016E+02 -0.10232962735E+02  0.94791036853E+01  0.31649776142E+02  0.00000000000E+00 0.  1.
</event>
<event>
12    1  0.8052519E-002  0.3077769E+03  0.7818608E-02  0.1081521E+00
         21   -1    0    0  501  502  0.00000000000E+00  0.00000000000E+00  0.33256149315E+03  0.33256149315E+03  0.00000000000E+00 0.  1.
         21   -1    0    0  502  503 -0.00000000000E+00 -0.00000000000E+00 -0.29237754276E+03  0.29237754276E+03  0.00000000000E+00 0.  1.
         -6    2    1    2    0  503 -0.11198263786E+02  0.25456792609E+03 -0.32636110440E+02  0.30950236888E+03  0.17261625221E+03 0.  0.
        -24    2    3    3    0    0 -0.73218100713E+02  0.14693249974E+03 -0.15479470619E+02  0.18401019594E+03  0.81670609440E+02 0.  0.
          6    2    1    2  501    0  0.11198263786E+02 -0.25456792609E+03  0.72820060838E+02  0.31543666704E+03  0.17107688196E+03 0.  0.
         24    2    5    5    0    0  0.25671882007E+02 -0.27027070864E+03  0.58401284840E+02  0.28924403247E+03  0.80907964829E+02 0.  0.
          5    1    5    5  501    0 -0.14473618221E+02  0.15702782549E+02  0.14418775997E+02  0.26192634565E+02  0.47000000000E+01 0. -1.
        -11    1    6    6    0    0  0.31890471944E+02 -0.11986957958E+03  0.62000272266E+02  0.13867138158E+03  0.00000000000E+00 0.  1.
         12    1    6    6    0    0 -0.62185899368E+01 -0.15040112907E+03 -0.35989874261E+01  0.15057265089E+03  0.00000000000E+00 0. -1.
         -5    1    3    3    0  503  0.62019836927E+02  0.10763542635E+03 -0.17156639821E+02  0.12549217294E+03  0.47000000000E+01 0.  1.
         13    1    4    4    0    0  0.13156473288E+02  0.10323771043E+02 -0.14879244121E+02  0.22384479970E+02  0.00000000000E+00 0. -1.
        -14    1    4    4    0    0 -0.86374574000E+02  0.13660872870E+03 -0.60022649836E+00  0.16162571597E+03  0.00000000000E+00 0.  1.
</event>
<event>
12    1  0.8052519E-002  0.4197010E+03  0.7818608E-02  0.1037224E+00
         21   -1    0    0  503  502  0.00000000000E+00  0.00000000000E+00  0.95951986942E+03  0.95951986942E+03  0.00000000000E+00 0.  1.
         21   -1    0    0  501  503 -0.00000000000E+00 -0.00000000000E+00 -0.21317723960E+03  0.21317723960E+03  0.00000000000E+00 0. -1.
          6    2    1    2  501    0 -0.23391428602E+03 -0.30288688277E+03  0.15321959518E+03  0.44609964066E+03  0.17050597669E+03 0.  0.
         24    2    3    3    0    0 -0.24864620738E+03 -0.26570279182E+03  0.15145742837E+03  0.40578982351E+03  0.96452673518E+02 0.  0.
         -6    2    1    2    0  502  0.23391428602E+03  0.30288688277E+03  0.59312303464E+03  0.72659746836E+03  0.17231537900E+03 0.  0.
        -24    2    5    5    0    0  0.23529396340E+02  0.10202351681E+03  0.16315157130E+03  0.20745833202E+03  0.73878913307E+02 0.  0.
          5    1    3    3  501    0  0.14731921356E+02 -0.37184090954E+02  0.17621668142E+01  0.40309817152E+02  0.47000000000E+01 0. -1.
        -13    1    4    4    0    0 -0.20327911662E+03 -0.16033525071E+03  0.12751070562E+03  0.28859794165E+03  0.00000000000E+00 0.  1.
         14    1    4    4    0    0 -0.45367090758E+02 -0.10536754111E+03  0.23946722746E+02  0.11719188186E+03  0.00000000000E+00 0. -1.
         -5    1    5    5    0  502  0.21038488968E+03  0.20086336596E+03  0.42997146334E+03  0.51913913634E+03  0.47000000000E+01 0.  1.
         11    1    6    6    0    0 -0.20688410303E+02  0.31056515889E+02  0.85748349610E+02  0.93516292489E+02  0.00000000000E+00 0. -1.
        -12    1    6    6    0    0  0.44217806642E+02  0.70967000922E+02  0.77403221693E+02  0.11394203953E+03  0.00000000000E+00 0.  1.
</event>
<event>
12    1  0.8052519E-002  0.2436495E+03  0.7818608E-02  0.1117407E+00
         21   -1    0    0  503  502  0.00000000000E+00  0.00000000000E+00  0.52413215222E+02  0.52413215222E+02  0.00000000000E+00 0.  1.
         21   -1    0    0  501  503 -0.00000000000E+00 -0.00000000000E+00 -0.14849101576E+04  0.14849101576E+04  0.00000000000E+00 0.  1.
          6    2    1    2  501    0  0.98427356679E+02  0.13977619195E+03 -0.10911114093E+04  0.11179844363E+04  0.17360807613E+03 0.  0.
         24    2    3    3    0    0  0.31210626802E+02  0.51164775244E+02 -0.79799629346E+03  0.80444236092E+03  0.82082216205E+02 0.  0.
         -6    2    1    2    0  502 -0.98427356679E+02 -0.13977619195E+03 -0.34138553308E+03  0.41933893645E+03  0.17342356543E+03 0.  0.
        -24    2    5    5    0    0 -0.73405391819E+02 -0.12201108441E+02 -0.20130186919E+03  0.22816617807E+03  0.77460594366E+02 0.  0.
          5    1    3    3  501    0  0.67216729876E+02  0.88611416707E+02 -0.29311511580E+03  0.31354207542E+03  0.47000000000E+01 0. -1.
        -13    1    4    4    0    0  0.34365864967E+02  0.62169931078E+02 -0.77921869187E+03  0.78244992349E+03  0.00000000000E+00 0.  1.
         14    1    4    4    0    0 -0.31552381651E+01 -0.11005155834E+02 -0.18777601588E+02  0.21992437432E+02  0.00000000000E+00 0. -1.
         -5    1    5    5    0  502 -0.25021964860E+02 -0.12757508351E+03 -0.14008366390E+03  0.19117275838E+03  0.47000000000E+01 0.  1.
         11    1    6    6    0    0 -0.83874213507E+02 -0.26547710533E+02 -0.18061379757E+03  0.20090049402E+03  0.00000000000E+00 0. -1.
        -12    1    6    6    0    0  0.10468821688E+02  0.14346602091E+02 -0.20688071621E+02  0.27265684046E+02  0.00000000000E+00 0.  1.
</event>
<event>
12    1  0.8052519E-002  0.2190769E+03  0.7818608E-02  0.1134655E+00
         21   -1    0    0  503  502  0.00000000000E+00  0.00000000000E+00  0.11674972931E+03  0.11674972931E+03  0.00000000000E+00 0.  1.
         21   -1    0    0  501  503 -0.00000000000E+00 -0.00000000000E+00 -0.79755419144E+03  0.79755419144E+03  0.00000000000E+00 0.  1.
          6    2    1    2  501    0  0.51892826578E+02  0.12638655333E+03 -0.65913880389E+03  0.69459241949E+03  0.17125489805E+03 0.  0.
         24    2    3    3    0    0  0.85456046467E+00  0.80097568637E+01 -0.35900290897E+03  0.36790967435E+03  0.80059686210E+02 0.  0.
         -6    2    1    2    0  502 -0.51892826578E+02 -0.12638655333E+03 -0.21665658250E+02  0.21971150126E+03  0.17069656331E+03 0.  0.
        -24    2    5    5    0    0 -0.72673254974E+02 -0.40959761666E+02 -0.52054051266E+02  0.12657124483E+03  0.79696622889E+02 0.  0.
          5    1    3    3  501    0  0.51038266113E+02  0.11837679647E+03 -0.30013589492E+03  0.32668274514E+03  0.47000000000E+01 0. -1.
        -13    1    4    4    0    0  0.33694822700E+02  0.24090789819E+02 -0.23520507857E+03  0.23882448831E+03  0.00000000000E+00 0.  1.
         14    1    4    4    0    0 -0.32840262235E+02 -0.16081032955E+02 -0.12379783039E+03  0.12908518604E+03  0.00000000000E+00 0. -1.
         -5    1    5    5    0  502  0.20780428396E+02 -0.85426791663E+02  0.30388393017E+02  0.93140256432E+02  0.47000000000E+01 0.  1.
         11    1    6    6    0    0  0.93078016934E+01 -0.27845610740E+02 -0.15661765802E+01  0.29401804688E+02  0.00000000000E+00 0. -1.
        -12    1    6    6    0    0 -0.81981056668E+02 -0.13114150926E+02 -0.50487874686E+02  0.97169440140E+02  0.00000000000E+00 0.  1.
</event>
<event>
12    1  0.8052519E-002  0.1818218E+03  0.7818608E-02  0.1166072E+00
         21   -1    0    0  503  502  0.00000000000E+00  0.00000000000E+00  0.21513004390E+02  0.21513004390E+02  0.00000000000E+00 0.  1.
         21   -1    0    0  501  503 -0.00000000000E+00 -0.00000000000E+00 -0.18765305595E+04  0.18765305595E+04  0.00000000000E+00 0.  1.
          6    2    1    2  501    0  0.57199263282E+02 -0.57908897441E+01 -0.52304980505E+03  0.55372319475E+03  0.17240356062E+03 0.  0.
         24    2    3    3    0    0  0.37105427576E+02 -0.69165131472E+02 -0.37695681748E+03  0.39314515215E+03  0.79410580191E+02 0.  0.
         -6    2    1    2    0  502 -0.57199263282E+02  0.57908897441E+01 -0.13319677501E+04  0.13443203691E+04  0.17249312324E+03 0.  0.
        -24    2    5    5    0    0 -0.27963496352E+01 -0.17666088953E+02 -0.11509698840E+04  0.11538151871E+04  0.78980389059E+02 0.  0.
          5    1    3    3  501    0  0.20093835706E+02  0.63374241728E+02 -0.14609298757E+03  0.16057804260E+03  0.47000000000E+01 0. -1.
        -11    1    4    4    0    0  0.42264748284E+01 -0.32213450089E+02 -0.35493666831E+02  0.48118290090E+02  0.00000000000E+00 0.  1.
         12    1    4    4    0    0  0.32878952748E+02 -0.36951681384E+02 -0.34146315065E+03  0.34502686206E+03  0.00000000000E+00 0. -1.
         -5    1    5    5    0  502 -0.54402913647E+02  0.23456978698E+02 -0.18099786602E+03  0.19050518200E+03  0.47000000000E+01 0.  1.
         13    1    6    6    0    0  0.90350548839E+01 -0.31443373866E+01 -0.15660588614E+02  0.18351378969E+02  0.00000000000E+00 0. -1.
        -14    1    6    6    0    0 -0.11831404519E+02 -0.14521751567E+02 -0.11353092954E+04  0.11354638082E+04  0.00000000000E+00 0.  1.
</event>
<event>
12    1  0.8052519E-002  0.2498452E+03  0.7818608E-02  0.1113428E+00
         21   -1    0    0  501  502  0.00000000000E+00  0.00000000000E+00  0.78005738227E+03  0.78005738227E+03  0.00000000000E+00 0.  1.
         21   -1    0    0  502  503 -0.00000000000E+00 -0.00000000000E+00 -0.10344423930E+03  0.10344423930E+03  0.00000000000E+00 0. -1.
         -6    2    1    2    0  503 -0.14235874782E+03 -0.11202012604E+03  0.12796412764E+03  0.28070878607E+03  0.17206999418E+03 0.  0.
        -24    2    3    3    0    0 -0.50005928903E+02 -0.24048176743E+02 -0.28807724821E+01  0.97923160511E+02  0.80633360244E+02 0.  0.
          6    2    1    2  501    0  0.14235874782E+03  0.11202012604E+03  0.54864901533E+03  0.60279283550E+03  0.17183986380E+03 0.  0.
         24    2    5    5    0    0  0.10351896356E+03  0.13412006696E+03  0.51275542026E+03  0.54528304158E+03  0.75571861507E+02 0.  0.
          5    1    5    5  501    0  0.38839784259E+02 -0.22099940918E+02  0.35893595072E+02  0.57509793922E+02  0.47000000000E+01 0. -1.
        -11    1    6    6    0    0  0.95956329198E+02  0.71440757315E+02  0.28874948201E+03  0.31255025561E+03  0.00000000000E+00 0.  1.
         12    1    6    6    0    0  0.75626343632E+01  0.62679309640E+02  0.22400593825E+03  0.23273278597E+03  0.00000000000E+00 0. -1.
         -5    1    3    3    0  503 -0.92352818917E+02 -0.87971949294E+02  0.13084490012E+03  0.18278562556E+03  0.47000000000E+01 0.  1.
         11    1    4    4    0    0 -0.65816888540E+02  0.20803679180E+01  0.59882561336E+01  0.66121478804E+02  0.00000000000E+00 0. -1.
        -12    1    4    4    0    0  0.15810959637E+02 -0.26128544661E+02 -0.88690286157E+01  0.31801681706E+02  0.00000000000E+00 0.  1.
</event>
<event>
12    1  0.8052519E-002  0.1851418E+03  0.7818608E-02  0.1163128E+00
         21   -1    0    0  501  502  0.00000000000E+00  0.00000000000E+00  0.19561698742E+03  0.19561698742E+03  0.00000000000E+00 0.  1.
         21   -1    0    0  502  503 -0.00000000000E+00 -0.00000000000E+00 -0.47697000475E+03  0.47697000475E+03  0.00000000000E+00 0.  1.
         -6    2    1    2    0  503 -0.57850453749E+02  0.40503556129E+02 -0.40840753847E+03  0.44804223764E+03  0.17017025643E+03 0.  0.
        -24    2    3    3    0    0  0.31933262481E+02  0.31643131184E+02 -0.17150236143E+03  0.19449584004E+03  0.79965935323E+02 0.  0.
          6    2    1    2  501    0  0.57850453749E+02 -0.40503556129E+02  0.12705452113E+03  0.22454475453E+03  0.17114403988E+03 0.  0.
         24    2    5    5    0    0  0.19898128173E+02 -0.57314882546E+02  0.95826927710E+01  0.99866287376E+02  0.78743355831E+02 0.  0.
          5    1    5    5  501    0  0.37952325576E+02  0.16811326418E+02  0.11747182836E+03  0.12467846715E+03  0.47000000000E+01 0. -1.
        -11    1    6    6    0    0 -0.22153757746E+02 -0.74128419000E+01  0.23505516169E+02  0.33139832493E+02  0.00000000000E+00 0.  1.
         12    1    6    6    0    0  0.42051885918E+02 -0.49902040646E+02 -0.13922823398E+02  0.66726454883E+02  0.00000000000E+00 0. -1.
         -5    1    3    3    0  503 -0.89783716230E+02  0.88604249442E+01 -0.23690517704E+03  0.25354639760E+03  0.47000000000E+01 0.  1.
         13    1    4    4    0    0  0.42671812962E+02  0.25323487461E+02 -0.17471799833E+03  0.18162748024E+03  0.00000000000E+00 0. -1.
        -14    1    4    4    0    0 -0.10738550481E+02  0.63196437230E+01  0.32156368977E+01  0.12868359798E+02  0.00000000000E+00 0.  1.
</event>
<event>
12    1  0.8052519E-002  0.2733018E+03  0.7818608E-02  0.1099492E+00
         21   -1    0    0  503  502  0.00000000000E+00  0.00000000000E+00  0.50797539655E+03  0.50797539655E+03  0.00000000000E+00 0. -1.
         21   -1    0    0  501  503 -0.00000000000E+00 -0.00000000000E+00 -0.14943648657E+03  0.14943648657E+03  0.00000000000E+00 0.  1.
          6    2    1    2  501    0 -0.11389162452E+03  0.18070168998E+03  0.22347499868E+03  0.35255763146E+03  0.16950340871E+03 0.  0.
         24    2    3    3    0    0 -0.70303917176E+02  0.13383187066E+03  0.66495628747E+02  0.18296611994E+03  0.78748473175E+02 0.  0.
         -6    2    1    2    0  502  0.11389162452E+03 -0.18070168998E+03  0.13506391130E+03  0.30485425166E+03  0.17049765899E+03 0.  0.
        -24    2    5    5    0    0  0.33106825196E+02 -0.15017830967E+03  0.13294676774E+03  0.21834163498E+03  0.79678353047E+02 0.  0.
          5    1    3    3  501    0 -0.43587707345E+02  0.46869819325E+02  0.15697936993E+03  0.16959151152E+03  0.47000000000E+01 0. -1.
        -13    1    4    4    0    0  0.25749655898E+01  0.51068929988E+02  0.49900487876E+02  0.71447356482E+02  0.00000000000E+00 0.  1.
         14    1    4    4    0    0 -0.72878882766E+02  0.82762940671E+02  0.16595140870E+02  0.11151876345E+03  0.00000000000E+00 0. -1.
         -5    1    5    5    0  502  0.80784799325E+02 -0.30523380313E+02  0.21171435606E+01  0.86512616678E+02  0.47000000000E+01 0.  1.
         11    1    6    6    0    0  0.25194407294E+02 -0.23195093901E+02 -0.10920506837E+00  0.34245911664E+02  0.00000000000E+00 0. -1.
        -12    1    6    6    0    0  0.79124179025E+01 -0.12698321577E+03  0.13305597280E+03  0.18409572332E+03  0.00000000000E+00 0.  1.
</event>
<event>
12    1  0.8052519E-002  0.2124164E+03  0.7818608E-02  0.1140306E+00
         21   -1    0    0  501  502  0.00000000000E+00  0.00000000000E+00  0.22973203901E+03  0.22973203901E+03  0.00000000000E+00 0. -1.
         21   -1    0    0  502  503 -0.00000000000E+00 -0.00000000000E+00 -0.19526426992E+03  0.19526426992E+03  0.00000000000E+00 0. -1.
         -6    2    1    2    0  503 -0.11725892111E+03 -0.13726251712E+02 -0.35940505634E+01  0.20919682733E+03  0.17266247653E+03 0.  0.
        -24    2    3    3    0    0 -0.10279468393E+03 -0.71919891264E+02  0.23925641573E+01  0.14875145202E+03  0.79887748183E+02 0.  0.
          6    2    1    2  501    0  0.11725892111E+03  0.13726251712E+02  0.38061819650E+02  0.21579948159E+03  0.17658609677E+03 0.  0.
         24    2    5    5    0    0  0.78664179040E+02 -0.24543128528E+02 -0.42618201829E+02  0.11840617871E+03  0.73575089589E+02 0.  0.
          5    1    5    5  501    0  0.38594742073E+02  0.38269380240E+02  0.80680021479E+02  0.97393302878E+02  0.47000000000E+01 0. -1.
        -13    1    6    6    0    0  0.28113317505E+02 -0.35114402318E+02  0.84584292979E+01  0.45770349544E+02  0.00000000000E+00 0.  1.
         14    1    6    6    0    0  0.50550861535E+02  0.10571273790E+02 -0.51076631127E+02  0.72635829167E+02  0.00000000000E+00 0. -1.
         -5    1    3    3    0  503 -0.14464237183E+02  0.58193639552E+02 -0.59866147207E+01  0.60445375319E+02  0.47000000000E+01 0.  1.
         11    1    4    4    0    0 -0.57101412656E+02  0.70100455611E+01  0.10024699046E+01  0.57538830471E+02  0.00000000000E+00 0. -1.
        -12    1    4    4    0    0 -0.45693271274E+02 -0.78929936825E+02  0.13900942527E+01  0.91212621544E+02  0.00000000000E+00 0.  1.
</event>
<event>
12    1  0.8052519E-002  0.2358882E+03  0.7818608E-02  0.1122615E+00
         21   -1    0    0  503  502  0.00000000000E+00  0.00000000000E+00  0.71356080712E+03  0.71356080712E+03  0.00000000000E+00 0.  1.
         21   -1    0    0  501  503 -0.00000000000E+00 -0.00000000000E+00 -0.11969677996E+03  0.11969677996E+03  0.00000000000E+00 0. -1.
          6    2    1    2  501    0  0.86473578554E+02  0.13568627293E+03  0.50798336067E+02  0.24129591412E+03  0.17249580509E+03 0.  0.
         24    2    3    3    0    0 -0.72283586136E+01  0.65114124235E+02  0.67537523237E+02  0.12270935676E+03  0.78766559194E+02 0.  0.
         -6    2    1    2    0  502 -0.86473578554E+02 -0.13568627293E+03  0.54306569110E+03  0.59196167297E+03  0.17207507946E+03 0.  0.
        -24    2    5    5    0    0 -0.61518668587E+02 -0.13517229042E+03  0.26914607143E+03  0.31686703517E+03  0.76870121163E+02 0.  0.
          5    1    3    3  501    0  0.93701937168E+02  0.70572148690E+02 -0.16739187171E+02  0.11858655736E+03  0.47000000000E+01 0. -1.
        -13    1    4    4    0    0  0.33616087333E+02  0.13012910911E+02  0.27526022650E+02  0.45354813426E+02  0.00000000000E+00 0.  1.
         14    1    4    4    0    0 -0.40844445947E+02  0.52101213323E+02  0.40011500587E+02  0.77354543329E+02  0.00000000000E+00 0. -1.
         -5    1    5    5    0  502 -0.24954909967E+02 -0.51398250335E+00  0.27391961967E+03  0.27509463780E+03  0.47000000000E+01 0.  1.
         13    1    6    6    0    0 -0.76217631766E+02 -0.11612866526E+03  0.25048045440E+03  0.28641831702E+03  0.00000000000E+00 0. -1.
        -14    1    6    6    0    0  0.14698963179E+02 -0.19043625161E+02  0.18665617026E+02  0.30448718146E+02  0.00000000000E+00 0.  1.
</event>
<event>
12    1  0.8052519E-002  0.3965369E+03  0.7818608E-02  0.1045265E+00
         21   -1    0    0  501  502  0.00000000000E+00  0.00000000000E+00  0.26019014605E+03  0.26019014605E+03  0.00000000000E+00 0. -1.
         21   -1    0    0  502  503 -0.00000000000E+00 -0.00000000000E+00 -0.65864579322E+03  0.65864579322E+03  0.00000000000E+00 0.  1.
         -6    2    1    2    0  503 -0.35644171232E+03  0.15384877716E+02 -0.62287633305E+02  0.40139908303E+03  0.17307248728E+03 0.  0.
        -24    2    3    3    0    0 -0.14088890222E+03 -0.47166844015E+02 -0.62117602031E+02  0.17690442665E+03  0.73226946842E+02 0.  0.
          6    2    1    2  501    0  0.35644171232E+03 -0.15384877716E+02 -0.33616801387E+03  0.51743685624E+03  0.16566405132E+03 0.  0.
         24    2    5    5    0    0  0.36915319265E+03 -0.20918872370E+02 -0.32887893698E+03  0.50108364643E+03  0.78814888611E+02 0.  0.
          5    1    5    5  501    0 -0.12711480331E+02  0.55339946545E+01 -0.72890768937E+01  0.16353209807E+02  0.47000000000E+01 0. -1.
        -13    1    6    6    0    0  0.73185171912E+02  0.12765472309E+02 -0.10420288091E+03  0.12797369676E+03  0.00000000000E+00 0.  1.
         14    1    6    6    0    0  0.29596802074E+03 -0.33684344679E+02 -0.22467605607E+03  0.37310994967E+03  0.00000000000E+00 0. -1.
         -5    1    3    3    0  503 -0.21555281010E+03  0.62551721731E+02 -0.17003127346E+00  0.22449465638E+03  0.47000000000E+01 0.  1.
         11    1    4    4    0    0 -0.97636500862E+02  0.38751714520E+00 -0.18912580676E+02  0.99452109972E+02  0.00000000000E+00 0. -1.
        -12    1    4    4    0    0 -0.43252401356E+02 -0.47554361161E+02 -0.43205021355E+02  0.77452316678E+02  0.00000000000E+00 0.  1.
</event>
<event>
12    1  0.8052519E-002  0.2205340E+03  0.7818608E-02  0.1133829E+00
         21   -1    0    0  501  502  0.00000000000E+00  0.00000000000E+00  0.56839041667E+03  0.56839041667E+03  0.00000000000E+00 0. -1.
         21   -1    0    0  502  503 -0.00000000000E+00 -0.00000000000E+00 -0.13747429991E+03  0.13747429991E+03  0.00000000000E+00 0. -1.
         -6    2    1    2    0  503  0.13570325810E+03  0.27992695989E+02 -0.23348257234E+01  0.22054637477E+03  0.17157006361E+03 0.  0.
        -24    2    3    3    0    0  0.14030015104E+03  0.71229319730E+02  0.68203165669E+01  0.17586479370E+03  0.78257016128E+02 0.  0.
          6    2    1    2  501    0 -0.13570325810E+03 -0.27992695989E+02  0.43325094248E+03  0.48531834181E+03  0.16919972947E+03 0.  0.
         24    2    5    5    0    0 -0.17476311145E+02 -0.61781871983E+01  0.27267636202E+03  0.28466996860E+03  0.79630403578E+02 0.  0.
          5    1    5    5  501    0 -0.11822694696E+03 -0.21814508791E+02  0.16057458046E+03  0.20064837321E+03  0.47000000000E+01 0. -1.
        -13    1    6    6    0    0  0.14961268611E+02 -0.22612054183E+02  0.35230899998E+02  0.44456280406E+02  0.00000000000E+00 0.  1.
         14    1    6    6    0    0 -0.32437579757E+02  0.16433866985E+02  0.23744546202E+03  0.24021368820E+03  0.00000000000E+00 0. -1.
         -5    1    3    3    0  503 -0.45968929360E+01 -0.43236623741E+02 -0.91551422903E+01  0.44681581077E+02  0.47000000000E+01 0.  1.
         13    1    4    4    0    0  0.71400794665E+02  0.19439445597E+02 -0.32870522786E+02  0.80971827151E+02  0.00000000000E+00 0. -1.
        -14    1    4    4    0    0  0.68899356371E+02  0.51789874133E+02  0.39690839352E+02  0.94892966544E+02  0.00000000000E+00 0.  1.
</event>
<event>
12    1  0.8052519E-002  0.2151964E+03  0.7818608E-02  0.1139245E+00
         21   -1    0    0  501  502  0.00000000000E+00  0.00000000000E+00  0.88543068217E+02  0.88543068217E+02  0.00000000000E+00 0. -1.
         21   -1    0    0  502  503 -0.00000000000E+00 -0.00000000000E+00 -0.89786168931E+03  0.89786168931E+03  0.00000000000E+00 0. -1.
         -6    2    1    2    0  503  0.10752232432E+02  0.12683724388E+03 -0.72745334858E+03  0.75616270077E+03  0.16245109643E+03 0.  0.
        -24    2    3    3    0    0  0.11181291021E+02  0.14941796331E+03 -0.70058473696E+03  0.72074963437E+03  0.78805537602E+02 0.  0.
          6    2    1    2  501    0 -0.10752232432E+02 -0.12683724388E+03 -0.81865272512E+02  0.23024205676E+03  0.17351133945E+03 0.  0.
         24    2    5    5    0    0  0.55325385132E+02 -0.39376047092E+02 -0.48293079130E+02  0.11550368194E+03  0.79984421769E+02 0.  0.
          5    1    5    5  501    0 -0.66077617564E+02 -0.87461196793E+02 -0.33572193382E+02  0.11473837482E+03  0.47000000000E+01 0. -1.
        -11    1    6    6    0    0  0.15562303516E+02  0.23914572297E+02 -0.45304136909E+01  0.28889733593E+02  0.00000000000E+00 0.  1.
         12    1    6    6    0    0  0.39763081616E+02 -0.63290619389E+02 -0.43762665439E+02  0.86613948349E+02  0.00000000000E+00 0. -1.
         -5    1    3    3    0  503 -0.42905858918E+00 -0.22580719428E+02 -0.26868611625E+02  0.35413066400E+02  0.47000000000E+01 0.  1.
         11    1    4    4    0    0  0.33885796283E+02  0.13086275821E+03 -0.49665948516E+03  0.51472706639E+03  0.00000000000E+00 0. -1.
        -12    1    4    4    0    0 -0.22704505262E+02  0.18555205100E+02 -0.20392525180E+03  0.20602256798E+03  0.00000000000E+00 0.  1.
</event>
<event>
12    1  0.8052519E-002  0.2035827E+03  0.7818608E-02  0.1146807E+00
         21   -1    0    0  501  502  0.00000000000E+00  0.00000000000E+00  0.33094702678E+03  0.33094702678E+03  0.00000000000E+00 0.  1.
         21   -1    0    0  502  503 -0.00000000000E+00 -0.00000000000E+00 -0.31002163227E+03  0.31002163227E+03  0.00000000000E+00 0. -1.
         -6    2    1    2    0  503 -0.94735572643E+02  0.52857278128E+02 -0.23707325447E+03  0.31248944977E+03  0.17227073942E+03 0.  0.
        -24    2    3    3    0    0  0.73229251958E+01  0.19115211346E+02 -0.15481302090E+03  0.17705201005E+03  0.83434562893E+02 0.  0.
          6    2    1    2  501    0  0.94735572643E+02 -0.52857278128E+02  0.25799864898E+03  0.32847920928E+03  0.17194931660E+03 0.  0.
         24    2    5    5    0    0  0.17963252821E+02  0.29549097634E+02  0.78447806928E+02  0.11647591983E+03  0.78846394116E+02 0.  0.
          5    1    5    5  501    0  0.76772319822E+02 -0.82406375762E+02  0.17955084205E+03  0.21200328945E+03  0.47000000000E+01 0. -1.
        -13    1    6    6    0    0 -0.12285399200E+02  0.20696999315E+02  0.81339944772E+02  0.84826195421E+02  0.00000000000E+00 0.  1.
         14    1    6    6    0    0  0.30248652021E+02  0.88520983192E+01 -0.28921378433E+01  0.31649724407E+02  0.00000000000E+00 0. -1.
         -5    1    3    3    0  503 -0.10205849784E+03  0.33742066782E+02 -0.82260233570E+02  0.13543743972E+03  0.47000000000E+01 0.  1.
         13    1    4    4    0    0  0.13882420690E+02 -0.22037430194E+02 -0.11987413157E+03  0.12267101269E+03  0.00000000000E+00 0. -1.
        -14    1    4    4    0    0 -0.65594954946E+01  0.41152641540E+02 -0.34938889327E+02  0.54380997364E+02  0.00000000000E+00 0.  1.
</event>
<event>
12    1  0.8052519E-002  0.1737283E+03  0.7818608E-02  0.1174125E+00
         21   -1    0    0  501  502  0.00000000000E+00  0.00000000000E+00  0.18026063055E+04  0.18026063055E+04  0.00000000000E+00 0. -1.
         21   -1    0    0  502  503 -0.00000000000E+00 -0.00000000000E+00 -0.19681197987E+02  0.19681197987E+02  0.00000000000E+00 0. -1.
         -6    2    1    2    0  503  0.21704220127E+01  0.27309656757E+02  0.53788033740E+03  0.56524047046E+03  0.17155466766E+03 0.  0.
        -24    2    3    3    0    0  0.58288920360E+02  0.44413592891E+02  0.26624791046E+03  0.28730505376E+03  0.79284794393E+02 0.  0.
          6    2    1    2  501    0 -0.21704220127E+01 -0.27309656757E+02  0.12450447701E+04  0.12570470330E+04  0.17111468546E+03 0.  0.
         24    2    5    5    0    0 -0.12287709534E+02 -0.27265450481E+01  0.29679813069E+03  0.30841619437E+03  0.82903538602E+02 0.  0.
          5    1    5    5  501    0  0.10117287521E+02 -0.24583111709E+02  0.94824663937E+03  0.94863083861E+03  0.47000000000E+01 0. -1.
        -11    1    6    6    0    0  0.22331945661E+02  0.14710047451E+02  0.22705950103E+03  0.22862877837E+03  0.00000000000E+00 0.  1.
         12    1    6    6    0    0 -0.34619655195E+02 -0.17436592499E+02  0.69738629662E+02  0.79787415994E+02  0.00000000000E+00 0. -1.
         -5    1    3    3    0  503 -0.56118498348E+02 -0.17103936134E+02  0.27163242694E+03  0.27793541670E+03  0.47000000000E+01 0.  1.
         13    1    4    4    0    0  0.53135330583E+02 -0.87152982457E+01  0.15049169281E+03  0.15983450624E+03  0.00000000000E+00 0. -1.
        -14    1    4    4    0    0  0.51535897778E+01  0.53128891137E+02  0.11575621765E+03  0.12747054752E+03  0.00000000000E+00 0.  1.
</event>
<event>
12    1  0.8052519E-002  0.1910575E+03  0.7818608E-02  0.1157814E+00
         21   -1    0    0  503  502  0.00000000000E+00  0.00000000000E+00  0.12475074453E+04  0.12475074453E+04  0.00000000000E+00 0.  1.
         21   -1    0    0  501  503 -0.00000000000E+00 -0.00000000000E+00 -0.50440163386E+02  0.50440163386E+02  0.00000000000E+00 0.  1.
          6    2    1    2  501    0 -0.50648783680E+02 -0.67923969829E+02  0.17718396584E+03  0.26057074271E+03  0.17124248666E+03 0.  0.
         24    2    3    3    0    0 -0.98670348922E+02 -0.57395597358E+02  0.11191884859E+03  0.17872611622E+03  0.79919356830E+02 0.  0.
         -6    2    1    2    0  502  0.50648783680E+02  0.67923969829E+02  0.10198833161E+04  0.10373768660E+04  0.16973455365E+03 0.  0.
        -24    2    5    5    0    0  0.31662334924E+02 -0.29724760683E+02  0.49375984574E+03  0.50191094191E+03  0.78928724131E+02 0.  0.
          5    1    3    3  501    0  0.48021565242E+02 -0.10528372471E+02  0.65265117250E+02  0.81844626487E+02  0.47000000000E+01 0. -1.
        -11    1    4    4    0    0 -0.18827794497E+02 -0.43319151090E+02  0.96323672877E+01  0.48205987143E+02  0.00000000000E+00 0.  1.
         12    1    4    4    0    0 -0.79842554424E+02 -0.14076446268E+02  0.10228648130E+03  0.13052012908E+03  0.00000000000E+00 0. -1.
         -5    1    5    5    0  502  0.18986448756E+02  0.97648730512E+02  0.52612347033E+03  0.53546592407E+03  0.47000000000E+01 0.  1.
         11    1    6    6    0    0  0.17464392941E+02  0.13168553246E+02  0.37449087922E+02  0.43368767583E+02  0.00000000000E+00 0. -1.
        -12    1    6    6    0    0  0.14197941982E+02 -0.42893313929E+02  0.45631075782E+03  0.45854217433E+03  0.00000000000E+00 0.  1.
</event>
<event>
12    1  0.8052519E-002  0.2499284E+03  0.7818608E-02  0.1113537E+00
         21   -1    0    0  501  502  0.00000000000E+00  0.00000000000E+00  0.45573975792E+03  0.45573975792E+03  0.00000000000E+00 0.  1.
         21   -1    0    0  502  503 -0.00000000000E+00 -0.00000000000E+00 -0.19576734607E+03  0.19576734607E+03  0.00000000000E+00 0. -1.
         -6    2    1    2    0  503 -0.10792738183E+03  0.14441995557E+03  0.30956273053E+03  0.39786089665E+03  0.17308600647E+03 0.  0.
        -24    2    3    3    0    0 -0.98093298373E+02  0.16809821962E+03  0.21766040955E+03  0.30233343470E+03  0.78422861612E+02 0.  0.
          6    2    1    2  501    0  0.10792738183E+03 -0.14441995557E+03 -0.49590318673E+02  0.25364620734E+03  0.17138189950E+03 0.  0.
         24    2    5    5    0    0  0.73467750538E+02 -0.10336339678E+03 -0.99171237295E+02  0.18047883278E+03  0.81585370085E+02 0.  0.
          5    1    5    5  501    0  0.34459631293E+02 -0.41056558788E+02  0.49580918622E+02  0.73167374558E+02  0.47000000000E+01 0. -1.
        -11    1    6    6    0    0 -0.57163368566E+01  0.11410889099E+00 -0.34579716933E+02  0.35049199007E+02  0.00000000000E+00 0.  1.
         12    1    6    6    0    0  0.79184087395E+02 -0.10347750567E+03 -0.64591520362E+02  0.14542963378E+03  0.00000000000E+00 0. -1.
         -5    1    3    3    0  503 -0.98340834582E+01 -0.23678264053E+02  0.91902320981E+02  0.95527461956E+02  0.47000000000E+01 0.  1.
         13    1    4    4    0    0 -0.30699787817E+02  0.10299964990E+03  0.72807492543E+02  0.12981654680E+03  0.00000000000E+00 0. -1.
        -14    1    4    4    0    0 -0.67393510556E+02  0.65098569721E+02  0.14485291701E+03  0.17251688790E+03  0.00000000000E+00 0.  1.
</event>
<event>
12    1  0.8052519E-002  0.3395043E+03  0.7818608E-02  0.1067338E+00
         21   -1    0    0  501  502  0.00000000000E+00  0.00000000000E+00  0.11968293998E+04  0.11968293998E+04  0.00000000000E+00 0. -1.
         21   -1    0    0  502  503 -0.00000000000E+00 -0.00000000000E+00 -0.10536467710E+03  0.10536467710E+03  0.00000000000E+00 0. -1.
         -6    2    1    2    0  503  0.40519293281E+02  0.28552669162E+03  0.34359954785E+03  0.48087472030E+03  0.17324128431E+03 0.  0.
        -24    2    3    3    0    0  0.15074936837E+02  0.73751355518E+02  0.18465302518E+03  0.21482529759E+03  0.79916535319E+02 0.  0.
          6    2    1    2  501    0 -0.40519293281E+02 -0.28552669162E+03  0.74786517489E+03  0.82131935664E+03  0.17915317752E+03 0.  0.
         24    2    5    5    0    0 -0.51922130913E+02 -0.18582531334E+03  0.64171834333E+03  0.67517001731E+03  0.82614558929E+02 0.  0.
          5    1    5    5  501    0  0.11402837632E+02 -0.99701378272E+02  0.10614683156E+03  0.14614933933E+03  0.47000000000E+01 0. -1.
        -13    1    6    6    0    0  0.20434738275E+02 -0.69761172803E+02  0.24347480101E+03  0.25409482184E+03  0.00000000000E+00 0.  1.
         14    1    6    6    0    0 -0.72356869188E+02 -0.11606414054E+03  0.39824354232E+03  0.42107519547E+03  0.00000000000E+00 0. -1.
         -5    1    3    3    0  503  0.25444356445E+02  0.21177533610E+03  0.15894652267E+03  0.26604942271E+03  0.47000000000E+01 0.  1.
         11    1    4    4    0    0  0.38494324544E+02  0.32312335036E+02  0.45639891243E+02  0.67888877515E+02  0.00000000000E+00 0. -1.
        -12    1    4    4    0    0 -0.23419387707E+02  0.41439020482E+02  0.13901313393E+03  0.14693642008E+03  0.00000000000E+00 0.  1.
</event>
<event>
12    1  0.8052519E-002  0.1886737E+03  0.7818608E-02  0.1159868E+00
         21   -1    0    0  501  502  0.00000000000E+00  0.00000000000E+00  0.43664778954E+02  0.43664778954E+02  0.00000000000E+00 0. -1.
         21   -1    0    0  502  503 -0.00000000000E+00 -0.00000000000E+00 -0.88704455796E+03  0.88704455796E+03  0.00000000000E+00 0. -1.
         -6    2    1    2    0  503  0.72653348276E+02  0.29816465775E+02 -0.55853422137E+03  0.58954069750E+03  0.17155240286E+03 0.  0.
        -24    2    3    3    0    0  0.78850866538E+02  0.59646168664E+02 -0.53765243118E+03  0.55230684774E+03  0.78724790975E+02 0.  0.
          6    2    1    2  501    0 -0.72653348276E+02 -0.29816465775E+02 -0.28484555764E+03  0.34116863941E+03  0.17056235858E+03 0.  0.
         24    2    5    5    0    0 -0.84237966763E+02  0.22008885113E+02 -0.24996048202E+03  0.27745734621E+03  0.83198018765E+02 0.  0.
          5    1    5    5  501    0  0.11584618487E+02 -0.51825350889E+02 -0.34885075619E+02  0.63711293199E+02  0.47000000000E+01 0. -1.
        -11    1    6    6    0    0  0.13296357035E+02  0.14800306152E+02 -0.68357633804E+02  0.71194158973E+02  0.00000000000E+00 0.  1.
         12    1    6    6    0    0 -0.97534323798E+02  0.72085789615E+01 -0.18160284822E+03  0.20626318724E+03  0.00000000000E+00 0. -1.
         -5    1    3    3    0  503 -0.61975182620E+01 -0.29829702889E+02 -0.20881790191E+02  0.37233849769E+02  0.47000000000E+01 0.  1.
         13    1    4    4    0    0  0.72001468334E+02  0.54504117991E+02 -0.27364524071E+03  0.28816076777E+03  0.00000000000E+00 0. -1.
        -14    1    4    4    0    0  0.68493982038E+01  0.51420506736E+01 -0.26400719047E+03  0.26414607996E+03  0.00000000000E+00 0.  1.
</event>
<event>
12    1  0.8052519E-002  0.2624852E+03  0.7818608E-02  0.1105938E+00
         21   -1    0    0  503  502  0.00000000000E+00  0.00000000000E+00  0.11281093388E+04  0.11281093388E+04  0.00000000000E+00 0.  1.
         21   -1    0    0  501  503 -0.00000000000E+00 -0.00000000000E+00 -0.10584694422E+03  0.10584694422E+03  0.00000000000E+00 0.  1.
          6    2    1    2  501    0  0.18662508159E+03  0.64341405326E+02  0.10896715914E+03  0.28420474225E+03  0.17300218563E+03 0.  0.
         24    2    3    3    0    0  0.73117045208E+02  0.82393449417E+02  0.16636421251E+02  0.13670218032E+03  0.79220785056E+02 0.  0.
         -6    2    1    2    0  502 -0.18662508159E+03 -0.64341405326E+02  0.91329523548E+03  0.94975154080E+03  0.17015012371E+03 0.  0.
        -24    2    5    5    0    0 -0.16862146479E+02 -0.35013043255E+02  0.34610127077E+03  0.35695251030E+03  0.78222501902E+02 0.  0.
          5    1    3    3  501    0  0.11350803638E+03 -0.18052044090E+02  0.92330737885E+02  0.14750256193E+03  0.47000000000E+01 0. -1.
        -11    1    4    4    0    0  0.67821977785E+02  0.46575426783E+02  0.42116735362E+02  0.92427866189E+02  0.00000000000E+00 0.  1.
         12    1    4    4    0    0  0.52950674234E+01  0.35818022634E+02 -0.25480314111E+02  0.44274314129E+02  0.00000000000E+00 0. -1.
         -5    1    5    5    0  502 -0.16976293511E+03 -0.29328362072E+02  0.56719396471E+03  0.59279903050E+03  0.47000000000E+01 0.  1.
         13    1    6    6    0    0  0.10848663601E+02  0.18970694641E+02  0.48039392795E+02  0.52776547985E+02  0.00000000000E+00 0. -1.
        -14    1    6    6    0    0 -0.27710810079E+02 -0.53983737896E+02  0.29806187797E+03  0.30417596232E+03  0.00000000000E+00 0.  1.
</event>
<event>
12    1  0.8052519E-002  0.1762637E+03  0.7818608E-02  0.1171701E+00
         21   -1    0    0  503  502  0.00000000000E+00  0.00000000000E+00  0.12902481970E+03  0.12902481970E+03  0.00000000000E+00 0. -1.
         21   -1    0    0  501  503 -0.00000000000E+00 -0.00000000000E+00 -0.56063068112E+03  0.56063068112E+03  0.00000000000E+00 0. -1.
          6    2    1    2  501    0  0.29461702082E+02 -0.13573503125E+02 -0.47701527915E+03  0.50853955643E+03  0.17325320210E+03 0.  0.
         24    2    3    3    0    0 -0.44333734922E+02 -0.18657860889E+02 -0.35027716859E+03  0.36171906779E+03  0.76374035794E+02 0.  0.
         -6    2    1    2    0  502 -0.29461702082E+02  0.13573503125E+02  0.45409417725E+02  0.18111594438E+03  0.17230420255E+03 0.  0.
        -24    2    5    5    0    0  0.50097152805E+02  0.27332990237E+01  0.18924708533E+02  0.96436246481E+02  0.80153661173E+02 0.  0.
          5    1    3    3  501    0  0.73795437004E+02  0.50843577635E+01 -0.12673811056E+03  0.14682048864E+03  0.47000000000E+01 0. -1.
        -13    1    4    4    0    0 -0.25313083654E+02 -0.26141818801E+02 -0.56324865964E+02  0.67056971450E+02  0.00000000000E+00 0.  1.
         14    1    4    4    0    0 -0.19020651268E+02  0.74839579124E+01 -0.29395230263E+03  0.29466209634E+03  0.00000000000E+00 0. -1.
         -5    1    5    5    0  502 -0.79558854887E+02  0.10840204102E+02  0.26484709192E+02  0.84679697903E+02  0.47000000000E+01 0.  1.
         13    1    6    6    0    0  0.46477200367E+02 -0.17328308533E+02  0.42464377434E+02  0.65296430082E+02  0.00000000000E+00 0. -1.
        -14    1    6    6    0    0  0.36199524382E+01  0.20061607557E+02 -0.23539668901E+02  0.31139816399E+02  0.00000000000E+00 0.  1.
</event>
<event>
12    1  0.8052519E-002  0.2128931E+03  0.7818608E-02  0.1139443E+00
         21   -1    0    0  501  502  0.00000000000E+00  0.00000000000E+00  0.40062456685E+03  0.40062456685E+03  0.00000000000E+00 0.  1.
         21   -1    0    0  502  503 -0.00000000000E+00 -0.00000000000E+00 -0.11705459712E+03  0.11705459712E+03  0.00000000000E+00 0.  1.
         -6    2    1    2    0  503 -0.91648777333E+02  0.85552804492E+02  0.91782636022E+02  0.23113798556E+03  0.17111965214E+03 0.  0.
        -24    2    3    3    0    0 -0.10081704819E+03  0.11553558909E+03  0.97556189523E+02  0.19891301880E+03  0.80849424128E+02 0.  0.
          6    2    1    2  501    0  0.91648777333E+02 -0.85552804492E+02  0.19178733370E+03  0.28654117841E+03  0.17206011977E+03 0.  0.
         24    2    5    5    0    0  0.85469171553E+02  0.80217300480E+01  0.94976759021E+02  0.15167547331E+03  0.81335951530E+02 0.  0.
          5    1    5    5  501    0  0.61796057797E+01 -0.93574534540E+02  0.96810574681E+02  0.13486570510E+03  0.47000000000E+01 0. -1.
        -11    1    6    6    0    0  0.38033643970E+01 -0.20061640087E+02  0.50635528961E+02  0.54597543689E+02  0.00000000000E+00 0.  1.
         12    1    6    6    0    0  0.81665807156E+02  0.28083370135E+02  0.44341230060E+02  0.97077929623E+02  0.00000000000E+00 0. -1.
         -5    1    3    3    0  503  0.91682708536E+01 -0.29982784596E+02 -0.57735535011E+01  0.32224966759E+02  0.47000000000E+01 0.  1.
         13    1    4    4    0    0 -0.19395815337E+02  0.74004442724E+01  0.52164994441E+02  0.56144019031E+02  0.00000000000E+00 0. -1.
        -14    1    4    4    0    0 -0.81421232850E+02  0.10813514482E+03  0.45391195082E+02  0.14276899977E+03  0.00000000000E+00 0.  1.
</event>
<event>
12    1  0.8052519E-002  0.1765248E+03  0.7818608E-02  0.1172031E+00
         21   -1    0    0  501  502  0.00000000000E+00  0.00000000000E+00  0.15607135099E+03  0.15607135099E+03  0.00000000000E+00 0.  1.
         21   -1    0    0  502  503 -0.00000000000E+00 -0.00000000000E+00 -0.30437259529E+03  0.30437259529E+03  0.00000000000E+00 0.  1.
         -6    2    1    2    0  503 -0.36891725610E+02  0.75384828509E+01 -0.21198761168E+03  0.27586184265E+03  0.17246211346E+03 0.  0.
        -24    2    3    3    0    0 -0.28695772407E+02 -0.58890848328E+02 -0.16054547752E+03  0.19131355552E+03  0.80835925192E+02 0.  0.
          6    2    1    2  501    0  0.36891725610E+02 -0.75384828509E+01  0.63686367388E+02  0.18458210363E+03  0.16910579957E+03 0.  0.
         24    2    5    5    0    0  0.12105764281E+02 -0.43532350001E+02  0.93761037941E+02  0.13132350657E+03  0.80081933777E+02 0.  0.
          5    1    5    5  501    0  0.24785961329E+02  0.35993867150E+02 -0.30074670553E+02  0.53258597055E+02  0.47000000000E+01 0. -1.
        -13    1    6    6    0    0  0.12736065122E+02 -0.20715626248E+01  0.88603808015E+02  0.89538447168E+02  0.00000000000E+00 0.  1.
         14    1    6    6    0    0 -0.63030084068E+00 -0.41460787376E+02  0.51572299260E+01  0.41785059405E+02  0.00000000000E+00 0. -1.
         -5    1    3    3    0  503 -0.81959532033E+01  0.66429331179E+02 -0.51442134165E+02  0.84548287133E+02  0.47000000000E+01 0.  1.
         13    1    4    4    0    0  0.15630331615E+02  0.87908045736E+01 -0.57918073872E+02  0.60630757809E+02  0.00000000000E+00 0. -1.
        -14    1    4    4    0    0 -0.44326104022E+02 -0.67681652901E+02 -0.10262740365E+03  0.13068279771E+03  0.00000000000E+00 0.  1.
</event>
<event>
12    1  0.8052519E-002  0.2710908E+03  0.7818608E-02  0.1100958E+00
         21   -1    0    0  501  502  0.00000000000E+00  0.00000000000E+00  0.30674394221E+03  0.30674394221E+03  0.00000000000E+00 0.  1.
         21   -1    0    0  502  503 -0.00000000000E+00 -0.00000000000E+00 -0.24866704622E+03  0.24866704622E+03  0.00000000000E+00 0. -1.
         -6    2    1    2    0  503  0.12574267792E+03  0.16221187526E+03  0.87406610676E+02  0.28483349954E+03  0.17710531711E+03 0.  0.
        -24    2    3    3    0    0  0.77455654512E+02  0.20241225152E+02  0.73458550969E+02  0.13415523140E+03  0.78691688190E+02 0.  0.
          6    2    1    2  501    0 -0.12574267792E+03 -0.16221187526E+03 -0.29329714685E+02  0.27057748888E+03  0.17386210571E+03 0.  0.
         24    2    5    5    0    0 -0.85562572450E+01 -0.32411299932E+02 -0.32562697141E+02  0.95610667110E+02  0.83410841734E+02 0.  0.
          5    1    5    5  501    0 -0.11718642067E+03 -0.12980057532E+03  0.32329824563E+01  0.17496682177E+03  0.47000000000E+01 0. -1.
        -11    1    6    6    0    0  0.35813321029E+02 -0.43888778200E+01 -0.52830324559E+01  0.36465965551E+02  0.00000000000E+00 0.  1.
         12    1    6    6    0    0 -0.44369578274E+02 -0.28022422112E+02 -0.27279664685E+02  0.59144701559E+02  0.00000000000E+00 0. -1.
         -5    1    3    3    0  503  0.48287023406E+02  0.14197065011E+03  0.13948059707E+02  0.15067826814E+03  0.47000000000E+01 0.  1.
         13    1    4    4    0    0 -0.59627273109E-01  0.24518421918E+02 -0.35876594658E+01  0.24779585735E+02  0.00000000000E+00 0. -1.
        -14    1    4    4    0    0  0.77515281785E+02 -0.42771967663E+01  0.77046210435E+02  0.10937564567E+03  0.00000000000E+00 0.  1.
</event>
<event>
12    1  0.8052519E-002  0.2336179E+03  0.7818608E-02  0.1124203E+00
         21   -1    0    0  501  502  0.00000000000E+00  0.00000000000E+00  0.32527778829E+03  0.32527778829E+03  0.00000000000E+00 0.  1.
         21   -1    0    0  502  503 -0.00000000000E+00 -0.00000000000E+00 -0.30753767680E+03  0.30753767680E+03  0.00000000000E+00 0.  1.
         -6    2    1    2    0  503 -0.14195646746E+03 -0.66890935082E+02 -0.20469356809E+03  0.31024133825E+03  0.17240706277E+03 0.  0.
        -24    2    3    3    0    0 -0.86545879549E+02  0.35823528044E+01 -0.36526705309E+02  0.11961342504E+03  0.73960453821E+02 0.  0.
          6    2    1    2  501    0  0.14195646746E+03  0.66890935082E+02  0.22243367958E+03  0.32257412684E+03  0.17306440894E+03 0.  0.
         24    2    5    5    0    0  0.11797610052E+03  0.66419983978E+02  0.24393987706E+03  0.29001823147E+03  0.79208183914E+02 0.  0.
          5    1    5    5  501    0  0.23980366934E+02  0.47095110399E+00 -0.21506197477E+02  0.32555895367E+02  0.47000000000E+01 0. -1.
        -13    1    6    6    0    0  0.44919737247E+02  0.60054493879E+02  0.17035143501E+03  0.18612881679E+03  0.00000000000E+00 0.  1.
         14    1    6    6    0    0  0.73056363276E+02  0.63654900989E+01  0.73588442047E+02  0.10388941468E+03  0.00000000000E+00 0. -1.
         -5    1    3    3    0  503 -0.55410587908E+02 -0.70473287886E+02 -0.16816686279E+03  0.19062791322E+03  0.47000000000E+01 0.  1.
         13    1    4    4    0    0 -0.16014685928E+02 -0.10450809650E+02  0.20350838913E+02  0.27925727067E+02  0.00000000000E+00 0. -1.
        -14    1    4    4    0    0 -0.70531193621E+02  0.14033162455E+02 -0.56877544222E+02  0.91687697969E+02  0.00000000000E+00 0.  1.
</event>
<event>
12    1  0.8052519E-002  0.3763766E+03  0.7818608E-02  0.1052522E+00
         21   -1    0    0  503  502  0.00000000000E+00  0.00000000000E+00  0.24892191388E+04  0.24892191388E+04  0.00000000000E+00 0. -1.
         21   -1    0    0  501  503 -0.00000000000E+00 -0.00000000000E+00 -0.88676208090E+02  0.88676208090E+02  0.00000000000E+00 0. -1.
          6    2    1    2  501    0  0.29910922162E+03 -0.14562875793E+03  0.42150153010E+03  0.56338195408E+03  0.17047470403E+03 0.  0.
         24    2    3    3    0    0  0.30421144781E+03 -0.13838959221E+03  0.42968693324E+03  0.55043865246E+03  0.81581648124E+02 0.  0.
         -6    2    1    2    0  502 -0.29910922162E+03  0.14562875793E+03  0.19790414006E+04  0.20145133928E+04  0.17602636981E+03 0.  0.
        -24    2    5    5    0    0 -0.76387474860E+02  0.94416554308E+02  0.89669368982E+03  0.90829174986E+03  0.78643483195E+02 0.  0.
          5    1    3    3  501    0 -0.51022261869E+01 -0.72391657238E+01 -0.81854031415E+01  0.12943301628E+02  0.47000000000E+01 0. -1.
        -13    1    4    4    0    0  0.20072565603E+03 -0.52847611416E+02  0.29064482387E+03  0.35715273017E+03  0.00000000000E+00 0.  1.
         14    1    4    4    0    0  0.10348579178E+03 -0.85541980794E+02  0.13904210937E+03  0.19328592229E+03  0.00000000000E+00 0. -1.
         -5    1    5    5    0  502 -0.22272174676E+03  0.51212203625E+02  0.10823477108E+04  0.11062216430E+04  0.47000000000E+01 0.  1.
         11    1    6    6    0    0 -0.91523790552E+02  0.77365958771E+02  0.68836628657E+03  0.69872043071E+03  0.00000000000E+00 0. -1.
        -12    1    6    6    0    0  0.15136315692E+02  0.17050595537E+02  0.20832740326E+03  0.20957131915E+03  0.00000000000E+00 0.  1.
</event>
<event>
12    1  0.8052519E-002  0.1879215E+03  0.7818608E-02  0.1160638E+00
         21   -1    0    0  501  502  0.00000000000E+00  0.00000000000E+00  0.17577020901E+03  0.17577020901E+03  0.00000000000E+00 0.  1.
         21   -1    0    0  502  503 -0.00000000000E+00 -0.00000000000E+00 -0.28555957721E+03  0.28555957721E+03  0.00000000000E+00 0. -1.
         -6    2    1    2    0  503  0.24977651148E+02 -0.67417301150E+02 -0.18134042539E+03  0.26024762904E+03  0.17226579169E+03 0.  0.
        -24    2    3    3    0    0  0.62416397332E+01 -0.13601378427E+02 -0.18573602003E+03  0.20290128727E+03  0.80293883188E+02 0.  0.
          6    2    1    2  501    0 -0.24977651148E+02  0.67417301150E+02  0.71551057191E+02  0.20108215717E+03  0.17362460827E+03 0.  0.
         24    2    5    5    0    0  0.35007637109E+02  0.40526995862E+02 -0.91757581621E+01  0.96869720091E+02  0.80197107698E+02 0.  0.
          5    1    5    5  501    0 -0.59985288257E+02  0.26890305288E+02  0.80726815353E+02  0.10421243708E+03  0.47000000000E+01 0. -1.
        -11    1    6    6    0    0 -0.31736851229E+01 -0.22145161459E+02 -0.70360862385E+01  0.23451800844E+02  0.00000000000E+00 0.  1.
         12    1    6    6    0    0  0.38181322232E+02  0.62672157320E+02 -0.21396719236E+01  0.73417919247E+02  0.00000000000E+00 0. -1.
         -5    1    3    3    0  503  0.18736011414E+02 -0.53815922723E+02  0.43955946341E+01  0.57346341770E+02  0.47000000000E+01 0.  1.
         11    1    4    4    0    0  0.35155093204E+02 -0.31861867583E+02 -0.10502565674E+03  0.11524516371E+03  0.00000000000E+00 0. -1.
        -12    1    4    4    0    0 -0.28913453470E+02  0.18260489156E+02 -0.80710363288E+02  0.87656123562E+02  0.00000000000E+00 0.  1.
</event>
<event>
12    1  0.8052519E-002  0.1793905E+03  0.7818608E-02  0.1168600E+00
         21   -1    0    0  503  502  0.00000000000E+00  0.00000000000E+00  0.10408952544E+03  0.10408952544E+03  0.00000000000E+00 0. -1.
         21   -1    0    0  501  503 -0.00000000000E+00 -0.00000000000E+00 -0.37377412391E+03  0.37377412391E+03  0.00000000000E+00 0. -1.
          6    2    1    2  501    0 -0.30461645262E+02 -0.40091591876E+02 -0.23503085912E+03  0.29515671067E+03  0.17129720238E+03 0.  0.
         24    2    3    3    0    0  0.10818587111E+02  0.35624334392E+02 -0.86531834451E+02  0.12336902367E+03  0.79661926923E+02 0.  0.
         -6    2    1    2    0  502  0.30461645262E+02  0.40091591876E+02 -0.34653739343E+02  0.18270693868E+03  0.17217925607E+03 0.  0.
        -24    2    5    5    0    0 -0.30658172346E+02  0.49313771165E+02 -0.60055231685E+02  0.11571435321E+03  0.80071275294E+02 0.  0.
          5    1    3    3  501    0 -0.41280232373E+02 -0.75715926268E+02 -0.14849902467E+03  0.17178768700E+03  0.47000000000E+01 0. -1.
        -13    1    4    4    0    0  0.95040558794E+00  0.52374746222E+02 -0.23510955277E+02  0.57417613418E+02  0.00000000000E+00 0.  1.
         14    1    4    4    0    0  0.98681815227E+01 -0.16750411830E+02 -0.63020879173E+02  0.65951410257E+02  0.00000000000E+00 0. -1.
         -5    1    5    5    0  502  0.61119817609E+02 -0.92221792891E+01  0.25401492342E+02  0.66992585475E+02  0.47000000000E+01 0.  1.
         11    1    6    6    0    0  0.50898454503E+01  0.10832684409E+02 -0.62009999055E+02  0.63154521303E+02  0.00000000000E+00 0. -1.
        -12    1    6    6    0    0 -0.35748017797E+02  0.38481086756E+02  0.19547673696E+01  0.52559831904E+02  0.00000000000E+00 0.  1.
</event>
<event>
12    1  0.8052519E-002  0.2297869E+03  0.7818608E-02  0.1126921E+00
         21   -1    0    0  501  502  0.00000000000E+00  0.00000000000E+00  0.19393354013E+04  0.19393354013E+04  0.00000000000E+00 0. -1.
         21   -1    0    0  502  503 -0.00000000000E+00 -0.00000000000E+00 -0.28203811484E+03  0.28203811484E+03  0.00000000000E+00 0.  1.
         -6    2    1    2    0  503 -0.14216339931E+03  0.55600411349E+02 -0.22737876117E+03  0.32274089677E+03  0.17075932645E+03 0.  0.
        -24    2    3    3    0    0 -0.13422835738E+03 -0.13431476849E+02 -0.18049651705E+03  0.23878613936E+03  0.79007412217E+02 0.  0.
          6    2    1    2  501    0  0.14216339931E+03 -0.55600411349E+02  0.18846760477E+04  0.18986326194E+04  0.17175616712E+03 0.  0.
         24    2    5    5    0    0  0.17080155236E+03 -0.60335917708E+02  0.17219412113E+04  0.17332624716E+04  0.79395635073E+02 0.  0.
          5    1    5    5  501    0 -0.28638153047E+02  0.47355063599E+01  0.16273483635E+03  0.16537014783E+03  0.47000000000E+01 0. -1.
        -13    1    6    6    0    0  0.81916382974E+02  0.53958782797E+01  0.54611965240E+03  0.55225545180E+03  0.00000000000E+00 0.  1.
         14    1    6    6    0    0  0.88885169388E+02 -0.65731795988E+02  0.11758215589E+04  0.11810070198E+04  0.00000000000E+00 0. -1.
         -5    1    3    3    0  503 -0.79350419330E+01  0.69031888198E+02 -0.46882244123E+02  0.83954757415E+02  0.47000000000E+01 0.  1.
         11    1    4    4    0    0  0.50830733733E+01 -0.29764597604E+01  0.41786911055E+01  0.72220777466E+01  0.00000000000E+00 0. -1.
        -12    1    4    4    0    0 -0.13931143076E+03 -0.10455017089E+02 -0.18467520816E+03  0.23156406161E+03  0.00000000000E+00 0.  1.
</event>
<event>
12    1  0.8052519E-002  0.2242477E+03  0.7818608E-02  0.1130773E+00
         21   -1    0    0  501  502  0.00000000000E+00  0.00000000000E+00  0.47199005442E+02  0.47199005442E+02  0.00000000000E+00 0. -1.
         21   -1    0    0  502  503 -0.00000000000E+00 -0.00000000000E+00 -0.11433187400E+04  0.11433187400E+04  0.00000000000E+00 0.  1.
         -6    2    1    2    0  503  0.10059227363E+03 -0.10231953039E+03 -0.39212813587E+03  0.45167325483E+03  0.17220964658E+03 0.  0.
        -24    2    3    3    0    0  0.13117086817E+03 -0.10048956646E+03 -0.27660888269E+03  0.33206896115E+03  0.80332878396E+02 0.  0.
          6    2    1    2  501    0 -0.10059227363E+03  0.10231953039E+03 -0.70399159869E+03  0.73884449061E+03  0.17233374153E+03 0.  0.
         24    2    5    5    0    0 -0.13119239947E+03  0.72892659310E+02 -0.50724931440E+03  0.53751907028E+03  0.95394436418E+02 0.  0.
          5    1    5    5  501    0  0.30600125839E+02  0.29426871081E+02 -0.19674228430E+03  0.20132542034E+03  0.47000000000E+01 0. -1.
        -11    1    6    6    0    0 -0.34486536775E+02  0.48243123812E+02 -0.31887007950E+03  0.32433755228E+03  0.00000000000E+00 0.  1.
         12    1    6    6    0    0 -0.96705862694E+02  0.24649535497E+02 -0.18837923489E+03  0.21318151800E+03  0.00000000000E+00 0. -1.
         -5    1    3    3    0  503 -0.30578594542E+02 -0.18299639301E+01 -0.11551925318E+03  0.11960429368E+03  0.47000000000E+01 0.  1.
         11    1    4    4    0    0  0.13631314308E+03 -0.71663538075E+02 -0.22345630237E+03  0.27138469879E+03  0.00000000000E+00 0. -1.
        -12    1    4    4    0    0 -0.51422749127E+01 -0.28826028385E+02 -0.53152580318E+02  0.60684262361E+02  0.00000000000E+00 0.  1.
</event>
<event>
12    1  0.8052519E-002  0.1813224E+03  0.7818608E-02  0.1166699E+00
         21   -1    0    0  503  502  0.00000000000E+00  0.00000000000E+00  0.26345715455E+02  0.26345715455E+02  0.00000000000E+00 0. -1.
         21   -1    0    0  501  503 -0.00000000000E+00 -0.00000000000E+00 -0.12440810854E+04  0.12440810854E+04  0.00000000000E+00 0. -1.
          6    2    1    2  501    0 -0.40338798757E+02 -0.35161509233E+02 -0.58963811627E+03  0.61668068857E+03  0.17250626967E+03 0.  0.
         24    2    3    3    0    0 -0.79903050979E+02 -0.98727844164E+01 -0.52152796310E+03  0.53381976520E+03  0.80561504399E+02 0.  0.
         -6    2    1    2    0  502  0.40338798757E+02  0.35161509233E+02 -0.62809725365E+03  0.65374611226E+03  0.17324626646E+03 0.  0.
        -24    2    5    5    0    0  0.56175854434E+02  0.79283373331E+02 -0.35585932895E+03  0.37746160516E+03  0.79998884096E+02 0.  0.
          5    1    3    3  501    0  0.39564252223E+02 -0.25288724817E+02 -0.68110153172E+02  0.82860923371E+02  0.47000000000E+01 0. -1.
        -13    1    4    4    0    0 -0.18400998044E+02  0.66878048355E+01 -0.19036427478E+02  0.27307673530E+02  0.00000000000E+00 0.  1.
         14    1    4    4    0    0 -0.61502052936E+02 -0.16560589252E+02 -0.50249153562E+03  0.50651209167E+03  0.00000000000E+00 0. -1.
         -5    1    5    5    0  502 -0.15837055677E+02 -0.44121864098E+02 -0.27223792469E+03  0.27628450710E+03  0.47000000000E+01 0.  1.
         11    1    6    6    0    0  0.18349738431E+02  0.10133259251E+02 -0.10927887588E+02  0.23639259097E+02  0.00000000000E+00 0. -1.
        -12    1    6    6    0    0  0.37826116003E+02  0.69150114080E+02 -0.34493144136E+03  0.35382234606E+03  0.00000000000E+00 0.  1.
</event>
<event>
12    1  0.8052519E-002  0.2333818E+03  0.7818608E-02  0.1124592E+00
         21   -1    0    0  501  502  0.00000000000E+00  0.00000000000E+00  0.12697104238E+04  0.12697104238E+04  0.00000000000E+00 0. -1.
         21   -1    0    0  502  503 -0.00000000000E+00 -0.00000000000E+00 -0.78028966973E+02  0.78028966973E+02  0.00000000000E+00 0. -1.
         -6    2    1    2    0  503 -0.31207135950E+02 -0.15336505037E+03  0.14282085657E+03  0.27361441864E+03  0.17312518306E+03 0.  0.
        -24    2    3    3    0    0 -0.17352999080E+02 -0.18220222154E+03  0.12975573070E+03  0.23873882454E+03  0.81614340535E+02 0.  0.
          6    2    1    2  501    0  0.31207135950E+02  0.15336505037E+03  0.10488606003E+04  0.10741249722E+04  0.17070785860E+03 0.  0.
         24    2    5    5    0    0  0.83763733440E+02  0.11775827301E+03  0.82513876029E+03  0.84152318751E+03  0.80149407239E+02 0.  0.
          5    1    5    5  501    0 -0.52556597490E+02  0.35606777358E+02  0.22372184000E+03  0.23260178466E+03  0.47000000000E+01 0. -1.
        -13    1    6    6    0    0  0.50278034514E+02  0.12596647908E+02  0.34442158777E+03  0.34829985130E+03  0.00000000000E+00 0.  1.
         14    1    6    6    0    0  0.33485698927E+02  0.10516162510E+03  0.48071717252E+03  0.49322333621E+03  0.00000000000E+00 0. -1.
         -5    1    3    3    0  503 -0.13854136870E+02  0.28837171177E+02  0.13065125874E+02  0.34875594102E+02  0.47000000000E+01 0.  1.
         11    1    4    4    0    0  0.87592063288E+01 -0.69763491429E+02  0.94999636273E+02  0.11818882910E+03  0.00000000000E+00 0. -1.
        -12    1    4    4    0    0 -0.26112205409E+02 -0.11243873011E+03  0.34756094428E+02  0.12054999544E+03  0.00000000000E+00 0.  1.
</event>
<event>
12    1  0.8052519E-002  0.1689748E+03  0.7818608E-02  0.1178951E+00
         21   -1    0    0  503  502  0.00000000000E+00  0.00000000000E+00  0.18635067680E+03  0.18635067680E+03  0.00000000000E+00 0. -1.
         21   -1    0    0  501  503 -0.00000000000E+00 -0.00000000000E+00 -0.63213950931E+03  0.63213950931E+03  0.00000000000E+00 0. -1.
          6    2    1    2  501    0 -0.78548210659E+01 -0.83235714381E+01 -0.57912641378E+03  0.60324293161E+03  0.16847448276E+03 0.  0.
         24    2    3    3    0    0 -0.65468619178E+02 -0.25745535180E+02 -0.34347929744E+03  0.35998478068E+03  0.81621332212E+02 0.  0.
         -6    2    1    2    0  502  0.78548210659E+01  0.83235714381E+01  0.13333758126E+03  0.21524725451E+03  0.16858674307E+03 0.  0.
        -24    2    5    5    0    0  0.40569967120E+02 -0.48343304018E+02  0.92469908804E+02  0.13795771959E+03  0.80614211429E+02 0.  0.
          5    1    3    3  501    0  0.57613798112E+02  0.17421963741E+02 -0.23564711634E+03  0.24325815092E+03  0.47000000000E+01 0. -1.
        -11    1    4    4    0    0 -0.37246567511E+02  0.18488887021E+02 -0.24397736582E+03  0.24749565808E+03  0.00000000000E+00 0.  1.
         12    1    4    4    0    0 -0.28222051667E+02 -0.44234422201E+02 -0.99501931625E+02  0.11248912261E+03  0.00000000000E+00 0. -1.
         -5    1    5    5    0  502 -0.32715146054E+02  0.56666875456E+02  0.40867672461E+02  0.77289534917E+02  0.47000000000E+01 0.  1.
         13    1    6    6    0    0  0.65351616527E+02 -0.34874224080E+02  0.69652951600E+02  0.10167880288E+03  0.00000000000E+00 0. -1.
        -14    1    6    6    0    0 -0.24781649407E+02 -0.13469079937E+02  0.22816957204E+02  0.36278916711E+02  0.00000000000E+00 0.  1.
</event>
<event>
12    1  0.8052519E-002  0.2458843E+03  0.7818608E-02  0.1115968E+00
         21   -1    0    0  503  502  0.00000000000E+00  0.00000000000E+00  0.33037913882E+03  0.33037913882E+03  0.00000000000E+00 0.  1.
         21   -1    0    0  501  503 -0.00000000000E+00 -0.00000000000E+00 -0.31716663998E+03  0.31716663998E+03  0.00000000000E+00 0. -1.
          6    2    1    2  501    0 -0.16045348447E+03  0.73491085273E+02 -0.20410159924E+03  0.31939262820E+03  0.17090327043E+03 0.  0.
         24    2    3    3    0    0 -0.99863716813E+02  0.10684879815E+03 -0.99601714333E+02  0.19398858960E+03  0.79508765513E+02 0.  0.
         -6    2    1    2    0  502  0.16045348447E+03 -0.73491085273E+02  0.21731409808E+03  0.32815315060E+03  0.17120984999E+03 0.  0.
        -24    2    5    5    0    0  0.14160590919E+03 -0.39467819060E+02  0.23223138751E+03  0.28623144665E+03  0.79919218284E+02 0.  0.
          5    1    3    3  501    0 -0.60589767656E+02 -0.33357712877E+02 -0.10449988490E+03  0.12540403860E+03  0.47000000000E+01 0. -1.
        -11    1    4    4    0    0  0.29447289887E+01  0.26341061673E+02  0.46341410853E+01  0.26907215063E+02  0.00000000000E+00 0.  1.
         12    1    4    4    0    0 -0.10280844580E+03  0.80507736477E+02 -0.10423585542E+03  0.16708137453E+03  0.00000000000E+00 0. -1.
         -5    1    5    5    0  502  0.18847575281E+02 -0.34023266213E+02 -0.14917289432E+02  0.41921703946E+02  0.47000000000E+01 0.  1.
         11    1    6    6    0    0  0.18421961649E+02 -0.23200762916E+02  0.93683730572E+01  0.31071055415E+02  0.00000000000E+00 0. -1.
        -12    1    6    6    0    0  0.12318394754E+03 -0.16267056145E+02  0.22286301445E+03  0.25516039124E+03  0.00000000000E+00 0.  1.
</event>
<event>
12    1  0.8052519E-002  0.2141979E+03  0.7818608E-02  0.1138454E+00
         21   -1    0    0  501  502  0.00000000000E+00  0.00000000000E+00  0.39877492179E+02  0.39877492179E+02  0.00000000000E+00 0. -1.
         21   -1    0    0  502  503 -0.00000000000E+00 -0.00000000000E+00 -0.14081271106E+04  0.14081271106E+04  0.00000000000E+00 0. -1.
         -6    2    1    2    0  503 -0.21522695694E+02  0.12521255714E+03 -0.99774830332E+03  0.10204814554E+04  0.17245090088E+03 0.  0.
        -24    2    3    3    0    0 -0.39113658209E+02  0.50289463872E+02 -0.27487809165E+03  0.29351079249E+03  0.80819005209E+02 0.  0.
          6    2    1    2  501    0  0.21522695694E+02 -0.12521255714E+03 -0.37050131511E+03  0.42752314735E+03  0.17135753887E+03 0.  0.
         24    2    5    5    0    0  0.39268343395E+02 -0.27579386776E+02 -0.27694299625E+03  0.29105925837E+03  0.75600551226E+02 0.  0.
          5    1    5    5  501    0 -0.17745647701E+02 -0.97633170360E+02 -0.93558318861E+02  0.13646388898E+03  0.47000000000E+01 0. -1.
        -11    1    6    6    0    0  0.55939408693E+02 -0.13405264369E+02 -0.12564164398E+03  0.13818372284E+03  0.00000000000E+00 0.  1.
         12    1    6    6    0    0 -0.16671065298E+02 -0.14174122407E+02 -0.15130135227E+03  0.15287553553E+03  0.00000000000E+00 0. -1.
         -5    1    3    3    0  503  0.17590962515E+02  0.74923093263E+02 -0.72287021167E+03  0.72697066294E+03  0.47000000000E+01 0.  1.
         11    1    4    4    0    0  0.13796863777E+02  0.44797459743E+02 -0.16341684702E+03  0.17000656382E+03  0.00000000000E+00 0. -1.
        -12    1    4    4    0    0 -0.52910521986E+02  0.54920041296E+01 -0.11146124463E+03  0.12350422867E+03  0.00000000000E+00 0.  1.
</event>
<event>
12    1  0.8052519E-002  0.1926254E+03  0.7818608E-02  0.1157035E+00
         21   -1    0    0  503  502  0.00000000000E+00  0.00000000000E+00  0.92477972059E+02  0.92477972059E+02  0.00000000000E+00 0.  1.
         21   -1    0    0  501  503 -0.00000000000E+00 -0.00000000000E+00 -0.46702148633E+03  0.46702148633E+03  0.00000000000E+00 0.  1.
          6    2    1    2  501    0 -0.46469163393E+02 -0.61716052626E+02 -0.30055170239E+03  0.35698159292E+03  0.17645474654E+03 0.  0.
         24    2    3    3    0    0  0.12458420219E+01 -0.40538527440E+00 -0.25413255411E+03  0.26635848880E+03  0.79760723675E+02 0.  0.
         -6    2    1    2    0  502  0.46469163393E+02  0.61716052626E+02 -0.73991811886E+02  0.20251786547E+03  0.17196058650E+03 0.  0.
        -24    2    5    5    0    0  0.93825111194E+02  0.48913321146E+02 -0.25941950212E+02  0.13368927452E+03  0.77486597969E+02 0.  0.
          5    1    3    3  501    0 -0.47715005415E+02 -0.61310667351E+02 -0.46419148282E+02  0.90623104118E+02  0.47000000000E+01 0. -1.
        -13    1    4    4    0    0  0.96843822906E+01  0.38332588245E+02 -0.11075219536E+03  0.11759771834E+03  0.00000000000E+00 0.  1.
         14    1    4    4    0    0 -0.84385402686E+01 -0.38737973519E+02 -0.14338035875E+03  0.14876077046E+03  0.00000000000E+00 0. -1.
         -5    1    5    5    0  502 -0.47355947801E+02  0.12802731480E+02 -0.48049861674E+02  0.68828590952E+02  0.47000000000E+01 0.  1.
         13    1    6    6    0    0 -0.70267816018E+01  0.20501382960E+02 -0.18763276842E+02  0.28666058690E+02  0.00000000000E+00 0. -1.
        -14    1    6    6    0    0  0.10085189280E+03  0.28411938186E+02 -0.71786733702E+01  0.10502321583E+03  0.00000000000E+00 0.  1.
</event>
<event>
12    1  0.8052519E-002  0.1775903E+03  0.7818608E-02  0.1171089E+00
         21   -1    0    0  501  502  0.00000000000E+00  0.00000000000E+00  0.12064923942E+03  0.12064923942E+03  0.00000000000E+00 0.  1.
         21   -1    0    0  502  503 -0.00000000000E+00 -0.00000000000E+00 -0.40631195141E+03  0.40631195141E+03  0.00000000000E+00 0.  1.
         -6    2    1    2    0  503  0.17496259578E+02  0.18553280342E+02 -0.30216517296E+03  0.34860581613E+03  0.17196476376E+03 0.  0.
        -24    2    3    3    0    0 -0.26039078627E+02  0.55293659221E+02 -0.25499283087E+03  0.27449440694E+03  0.81181360442E+02 0.  0.
          6    2    1    2  501    0 -0.17496259578E+02 -0.18553280342E+02  0.16502460975E+02  0.17835537470E+03  0.17574972306E+03 0.  0.
         24    2    5    5    0    0  0.14024102344E+02 -0.42632331954E+02  0.67728778085E+02  0.11339723813E+03  0.79104709472E+02 0.  0.
          5    1    5    5  501    0 -0.31520361922E+02  0.24079051612E+02 -0.51226317110E+02  0.64958136572E+02  0.47000000000E+01 0. -1.
        -13    1    6    6    0    0 -0.18940793437E+02 -0.30744426344E+02  0.69487516692E+02  0.78310206124E+02  0.00000000000E+00 0.  1.
         14    1    6    6    0    0  0.32964895781E+02 -0.11887905610E+02 -0.17587386068E+01  0.35087032008E+02  0.00000000000E+00 0. -1.
         -5    1    3    3    0  503  0.43535338205E+02 -0.36740378879E+02 -0.47172342095E+02  0.74111409186E+02  0.47000000000E+01 0.  1.
         11    1    4    4    0    0 -0.23417509327E+02  0.30835396882E+02 -0.32232104665E+02  0.50379658744E+02  0.00000000000E+00 0. -1.
        -12    1    4    4    0    0 -0.26215693003E+01  0.24458262338E+02 -0.22276072620E+03  0.22411474820E+03  0.00000000000E+00 0.  1.
</event>
<event>
12    1  0.8052519E-002  0.2602776E+03  0.7818608E-02  0.1107301E+00
         21   -1    0    0  501  502  0.00000000000E+00  0.00000000000E+00  0.30414661923E+03  0.30414661923E+03  0.00000000000E+00 0. -1.
         21   -1    0    0  502  503 -0.00000000000E+00 -0.00000000000E+00 -0.22113942873E+03  0.22113942873E+03  0.00000000000E+00 0.  1.
         -6    2    1    2    0  503 -0.11509092670E+03 -0.15529012759E+03  0.50406642486E+02  0.26511370723E+03  0.17430864298E+03 0.  0.
        -24    2    3    3    0    0 -0.82414455273E+02 -0.16898839806E+03  0.50168901339E+01  0.20734075493E+03  0.87268541592E+02 0.  0.
          6    2    1    2  501    0  0.11509092670E+03  0.15529012759E+03  0.32600548013E+02  0.26017234074E+03  0.17107280912E+03 0.  0.
         24    2    5    5    0    0  0.14151489138E+03  0.14370684940E+03  0.53696632529E+02  0.22412330435E+03  0.81668868977E+02 0.  0.
          5    1    5    5  501    0 -0.26423964682E+02  0.11583278192E+02 -0.21096084515E+02  0.36049036396E+02  0.47000000000E+01 0. -1.
        -13    1    6    6    0    0  0.40500274867E+02  0.27235986008E+02 -0.20607373892E+02  0.52978628303E+02  0.00000000000E+00 0.  1.
         14    1    6    6    0    0  0.10101461652E+03  0.11647086339E+03  0.74304006420E+02  0.17114467605E+03  0.00000000000E+00 0. -1.
         -5    1    3    3    0  503 -0.32676471428E+02  0.13698270466E+02  0.45389752352E+02  0.57772952299E+02  0.47000000000E+01 0.  1.
         11    1    4    4    0    0 -0.70530734982E+02 -0.17022562224E+03  0.23064236875E+02  0.18569681222E+03  0.00000000000E+00 0. -1.
        -12    1    4    4    0    0 -0.11883720291E+02  0.12372241868E+01 -0.18047346741E+02  0.21643942710E+02  0.00000000000E+00 0.  1.
</event>
<event>
12    1  0.8052519E-002  0.1880515E+03  0.7818608E-02  0.1161677E+00
         21   -1    0    0  503  502  0.00000000000E+00  0.00000000000E+00  0.80645185615E+03  0.80645185615E+03  0.00000000000E+00 0.  1.
         21   -1    0    0  501  503 -0.00000000000E+00 -0.00000000000E+00 -0.49953307743E+02  0.49953307743E+02  0.00000000000E+00 0.  1.
          6    2    1    2  501    0 -0.46918626900E+02  0.14131967820E+02  0.20650170878E+03  0.27514801638E+03  0.17510683917E+03 0.  0.
         24    2    3    3    0    0  0.16683943432E+02  0.40322594183E+02  0.17879836667E+03  0.20084592337E+03  0.80411214638E+02 0.  0.
         -6    2    1    2    0  502  0.46918626900E+02 -0.14131967820E+02  0.54999683963E+03  0.58125714752E+03  0.18155516482E+03 0.  0.
        -24    2    5    5    0    0  0.66893428352E+02 -0.26223197253E+02  0.17490671843E+03  0.20541159473E+03  0.80244478127E+02 0.  0.
          5    1    3    3  501    0 -0.63602570332E+02 -0.26190626363E+02  0.27703342116E+02  0.74302093016E+02  0.47000000000E+01 0. -1.
        -11    1    4    4    0    0  0.13875124172E+01  0.53617659788E+02  0.60617346835E+02  0.80939739122E+02  0.00000000000E+00 0.  1.
         12    1    4    4    0    0  0.15296431015E+02 -0.13295065604E+02  0.11818101983E+03  0.11990618424E+03  0.00000000000E+00 0. -1.
         -5    1    5    5    0  502 -0.19974801452E+02  0.12091229433E+02  0.37509012120E+03  0.37584555278E+03  0.47000000000E+01 0.  1.
         11    1    6    6    0    0  0.74588498137E+02 -0.44232585129E+02  0.12830267185E+03  0.15485974701E+03  0.00000000000E+00 0. -1.
        -12    1    6    6    0    0 -0.76950697846E+01  0.18009387876E+02  0.46604046576E+02  0.50551847720E+02  0.00000000000E+00 0.  1.
</event>
<event>
12    1  0.8052519E-002  0.2109945E+03  0.7818608E-02  0.1141800E+00
         21   -1    0    0  501  502  0.00000000000E+00  0.00000000000E+00  0.13631432245E+03  0.13631432245E+03  0.00000000000E+00 0.  1.
         21   -1    0    0  502  503 -0.00000000000E+00 -0.00000000000E+00 -0.46858520972E+03  0.46858520972E+03  0.00000000000E+00 0.  1.
         -6    2    1    2    0  503  0.10067401412E+03 -0.56549213226E+02 -0.33578450356E+03  0.39387579582E+03  0.17045186730E+03 0.  0.
        -24    2    3    3    0    0  0.12775879854E+03 -0.37141158708E+02 -0.31521160889E+03  0.35443480037E+03  0.92541304616E+02 0.  0.
          6    2    1    2  501    0 -0.10067401412E+03  0.56549213226E+02  0.35136162831E+01  0.21102373635E+03  0.17659445395E+03 0.  0.
         24    2    5    5    0    0 -0.80902770593E+02 -0.46187145491E+01 -0.54319959587E+02  0.12442564193E+03  0.77230120717E+02 0.  0.
          5    1    5    5  501    0 -0.19771243532E+02  0.61167927776E+02  0.57833575870E+02  0.86598094420E+02  0.47000000000E+01 0. -1.
        -13    1    6    6    0    0 -0.73452246867E+02  0.25031823103E+02 -0.52713492730E+02  0.93811177657E+02  0.00000000000E+00 0.  1.
         14    1    6    6    0    0 -0.74505237258E+01 -0.29650537652E+02 -0.16064668576E+01  0.30614464271E+02  0.00000000000E+00 0. -1.
         -5    1    3    3    0  503 -0.27084784416E+02 -0.19408054518E+02 -0.20572894664E+02  0.39440995447E+02  0.47000000000E+01 0.  1.
         13    1    4    4    0    0  0.16978727188E+02 -0.12984503307E+02 -0.21608928898E+01  0.21483574216E+02  0.00000000000E+00 0. -1.
        -14    1    4    4    0    0  0.11078007135E+03 -0.24156655401E+02 -0.31305071601E+03  0.33295122616E+03  0.00000000000E+00 0.  1.
</event>
<event>
12    1  0.8052519E-002  0.2004936E+03  0.7818608E-02  0.1149330E+00
         21   -1    0    0  501  502  0.00000000000E+00  0.00000000000E+00  0.27276571194E+03  0.27276571194E+03  0.00000000000E+00 0.  1.
         21   -1    0    0  502  503 -0.00000000000E+00 -0.00000000000E+00 -0.19700998582E+03  0.19700998582E+03  0.00000000000E+00 0. -1.
         -6    2    1    2    0  503 -0.99135907475E+02 -0.32237341155E+02 -0.80053464201E+02  0.21588479906E+03  0.17126153981E+03 0.  0.
        -24    2    3    3    0    0 -0.98249557089E+02  0.30175285586E+02 -0.76529578541E+02  0.15319006751E+03  0.83945798375E+02 0.  0.
          6    2    1    2  501    0  0.99135907475E+02  0.32237341155E+02  0.15580919033E+03  0.25389089870E+03  0.17122181619E+03 0.  0.
         24    2    5    5    0    0  0.22767445601E+02  0.64131803082E+02  0.47974614601E+02  0.11787698621E+03  0.83439651756E+02 0.  0.
          5    1    5    5  501    0  0.76368461874E+02 -0.31894461927E+02  0.10783457572E+03  0.13601391249E+03  0.47000000000E+01 0. -1.
        -13    1    6    6    0    0  0.31404753173E+02 -0.27490017038E+01  0.38528901266E+02  0.49782444345E+02  0.00000000000E+00 0.  1.
         14    1    6    6    0    0 -0.86373075720E+01  0.66880804786E+02  0.94457133356E+01  0.68094541862E+02  0.00000000000E+00 0. -1.
         -5    1    3    3    0  503 -0.88635038631E+00 -0.62412626741E+02 -0.35238856601E+01  0.62694731548E+02  0.47000000000E+01 0.  1.
         13    1    4    4    0    0 -0.82158413360E+01  0.41170123392E+02 -0.22987832793E+02  0.47863551534E+02  0.00000000000E+00 0. -1.
        -14    1    4    4    0    0 -0.90033715753E+02 -0.10994837806E+02 -0.53541745748E+02  0.10532651598E+03  0.00000000000E+00 0.  1.
</event>
<event>
12    1  0.8052519E-002  0.3499840E+03  0.7818608E-02  0.1063279E+00
         21   -1    0    0  501  502  0.00000000000E+00  0.00000000000E+00  0.18334729815E+04  0.18334729815E+04  0.00000000000E+00 0.  1.
         21   -1    0    0  502  503 -0.00000000000E+00 -0.00000000000E+00 -0.95204868860E+02  0.95204868860E+02  0.00000000000E+00 0.  1.
         -6    2    1    2    0  503 -0.23885320058E+03  0.17034857169E+03  0.33688485762E+03  0.48577795310E+03  0.19083847914E+03 0.  0.
        -24    2    3    3    0    0 -0.25536544651E+03  0.13405511362E+03  0.32978477783E+03  0.44500577512E+03  0.78037525860E+02 0.  0.
          6    2    1    2  501    0  0.23885320058E+03 -0.17034857169E+03  0.14013832550E+04  0.14428998973E+04  0.17892903277E+03 0.  0.
         24    2    5    5    0    0  0.16354244491E+03 -0.18432419405E+03  0.93656789269E+03  0.97179222486E+03  0.80617435322E+02 0.  0.
          5    1    5    5  501    0  0.75310755673E+02  0.13975622366E+02  0.46481536233E+03  0.47110767241E+03  0.47000000000E+01 0. -1.
        -11    1    6    6    0    0  0.14553293902E+03 -0.12340372353E+03  0.61161938008E+03  0.64069226733E+03  0.00000000000E+00 0.  1.
         12    1    6    6    0    0  0.18009505887E+02 -0.60920470523E+02  0.32494851261E+03  0.33109995753E+03  0.00000000000E+00 0. -1.
         -5    1    3    3    0  503  0.16512245929E+02  0.36293458067E+02  0.71000797882E+01  0.40772177978E+02  0.47000000000E+01 0.  1.
         11    1    4    4    0    0 -0.22721752026E+03  0.85718178001E+02  0.26771400927E+03  0.36145013254E+03  0.00000000000E+00 0. -1.
        -12    1    4    4    0    0 -0.28147926244E+02  0.48336935618E+02  0.62070768561E+02  0.83555642577E+02  0.00000000000E+00 0.  1.
</event>
<event>
12    1  0.8052519E-002  0.1945541E+03  0.7818608E-02  0.1154753E+00
         21   -1    0    0  503  502  0.00000000000E+00  0.00000000000E+00  0.67507189284E+03  0.67507189284E+03  0.00000000000E+00 0.  1.
         21   -1    0    0  501  503 -0.00000000000E+00 -0.00000000000E+00 -0.69725206338E+02  0.69725206338E+02  0.00000000000E+00 0.  1.
          6    2    1    2  501    0  0.10503470255E+02  0.89755776885E+02  0.13427813748E+03  0.23513361566E+03  0.17056018480E+03 0.  0.
         24    2    3    3    0    0 -0.11811705934E+02  0.26807759220E+02 -0.14305169416E+01  0.83808307469E+02  0.78508685320E+02 0.  0.
         -6    2    1    2    0  502 -0.10503470255E+02 -0.89755776885E+02  0.47106854902E+03  0.50966348351E+03  0.17229296612E+03 0.  0.
        -24    2    5    5    0    0 -0.35156815338E+02 -0.10489036945E+03  0.21990330952E+03  0.25679412821E+03  0.73128431385E+02 0.  0.
          5    1    3    3  501    0  0.22315176189E+02  0.62948017666E+02  0.13570865442E+03  0.15132530819E+03  0.47000000000E+01 0. -1.
        -11    1    4    4    0    0 -0.18911001900E+02 -0.16923393471E+01 -0.34622725591E+02  0.39486999540E+02  0.00000000000E+00 0.  1.
         12    1    4    4    0    0  0.70992959656E+01  0.28500098567E+02  0.33192208649E+02  0.44321307929E+02  0.00000000000E+00 0. -1.
         -5    1    5    5    0  502  0.24653345083E+02  0.15134592567E+02  0.25116523950E+03  0.25286935530E+03  0.47000000000E+01 0.  1.
         13    1    6    6    0    0 -0.10152500052E+02 -0.10338392523E+03  0.19765476576E+03  0.22329065292E+03  0.00000000000E+00 0. -1.
        -14    1    6    6    0    0 -0.25004315286E+02 -0.15064442214E+01  0.22248543759E+02  0.33503475290E+02  0.00000000000E+00 0.  1.
</event>
<event>
12    1  0.8052519E-002  0.2020647E+03  0.7818608E-02  0.1148265E+00
         21   -1    0    0  501  502  0.00000000000E+00  0.00000000000E+00  0.24717624526E+03  0.24717624526E+03  0.00000000000E+00 0.  1.
         21   -1    0    0  502  503 -0.00000000000E+00 -0.00000000000E+00 -0.22281218919E+03  0.22281218919E+03  0.00000000000E+00 0. -1.
         -6    2    1    2    0  503  0.28968351451E+01  0.10693851765E+03 -0.10833455485E+03  0.22927387366E+03  0.17142314651E+03 0.  0.
        -24    2    3    3    0    0  0.53829576497E+02  0.61391535749E+02 -0.11250774565E+03  0.16065771505E+03  0.80537969963E+02 0.  0.
          6    2    1    2  501    0 -0.28968351451E+01 -0.10693851765E+03  0.13269861093E+03  0.24071456079E+03  0.16997158652E+03 0.  0.
         24    2    5    5    0    0 -0.68550817647E+02 -0.41285609892E+02  0.88325117585E+02  0.13770074314E+03  0.68967036195E+02 0.  0.
          5    1    5    5  501    0  0.65653982502E+02 -0.65652907753E+02  0.44373493341E+02  0.10301381765E+03  0.47000000000E+01 0. -1.
        -11    1    6    6    0    0 -0.58784505889E+02 -0.29484353234E+02  0.21571083625E+02  0.69211681579E+02  0.00000000000E+00 0.  1.
         12    1    6    6    0    0 -0.97663117582E+01 -0.11801256659E+02  0.66754033960E+02  0.68489061565E+02  0.00000000000E+00 0. -1.
         -5    1    3    3    0  503 -0.50932741352E+02  0.45546981896E+02  0.41731907974E+01  0.68616158614E+02  0.47000000000E+01 0.  1.
         13    1    4    4    0    0 -0.39963167797E+01  0.52053126262E+02 -0.73986821883E+02  0.90551357327E+02  0.00000000000E+00 0. -1.
        -14    1    4    4    0    0  0.57825893276E+02  0.93384094875E+01 -0.38520923764E+02  0.70106357719E+02  0.00000000000E+00 0.  1.
</event>
<event>
12    1  0.8052519E-002  0.2005301E+03  0.7818608E-02  0.1149819E+00
         21   -1    0    0  503  502  0.00000000000E+00  0.00000000000E+00  0.91578553855E+02  0.91578553855E+02  0.00000000000E+00 0. -1.
         21   -1    0    0  501  503 -0.00000000000E+00 -0.00000000000E+00 -0.48332426997E+03  0.48332426997E+03  0.00000000000E+00 0. -1.
          6    2    1    2  501    0 -0.90473620567E+02  0.44056941127E+02 -0.28691057042E+03  0.34862266261E+03  0.17056844780E+03 0.  0.
         24    2    3    3    0    0 -0.10812498360E+03  0.78186503319E+02 -0.21659513531E+03  0.26835593197E+03  0.85424306866E+02 0.  0.
         -6    2    1    2    0  502  0.90473620567E+02 -0.44056941127E+02 -0.10483514569E+03  0.22628016121E+03  0.17345262612E+03 0.  0.
        -24    2    5    5    0    0  0.24367241632E+02 -0.41890471544E+01  0.11736087280E+02  0.86385755814E+02  0.81935660625E+02 0.  0.
          5    1    3    3  501    0  0.17651363035E+02 -0.34129562192E+02 -0.70315435115E+02  0.80266730641E+02  0.47000000000E+01 0. -1.
        -11    1    4    4    0    0 -0.13022145894E+02 -0.18605863891E+02 -0.32864337155E+02  0.39947704708E+02  0.00000000000E+00 0.  1.
         12    1    4    4    0    0 -0.95102837708E+02  0.96792367210E+02 -0.18373079815E+03  0.22840822726E+03  0.00000000000E+00 0. -1.
         -5    1    5    5    0  502  0.66106378935E+02 -0.39867893972E+02 -0.11657123297E+03  0.13989440540E+03  0.47000000000E+01 0.  1.
         11    1    6    6    0    0 -0.19008578793E+02  0.25614181597E+02 -0.21109898810E+01  0.31966680230E+02  0.00000000000E+00 0. -1.
        -12    1    6    6    0    0  0.43375820425E+02 -0.29803228751E+02  0.13847077161E+02  0.54419075584E+02  0.00000000000E+00 0.  1.
</event>
<event>
12    1  0.8052519E-002  0.1847679E+03  0.7818608E-02  0.1163729E+00
         21   -1    0    0  501  502  0.00000000000E+00  0.00000000000E+00  0.15757404468E+03  0.15757404468E+03  0.00000000000E+00 0. -1.
         21   -1    0    0  502  503 -0.00000000000E+00 -0.00000000000E+00 -0.21575368810E+03  0.21575368810E+03  0.00000000000E+00 0.  1.
         -6    2    1    2    0  503  0.53206163465E+02 -0.43630920711E+02 -0.43961733441E+02  0.18801362381E+03  0.16935741985E+03 0.  0.
        -24    2    3    3    0    0 -0.28041084442E+01  0.10074881695E+02  0.23873291816E+02  0.84838314639E+02  0.80735613599E+02 0.  0.
          6    2    1    2  501    0 -0.53206163465E+02  0.43630920711E+02 -0.14217909988E+02  0.18531410897E+03  0.17147774475E+03 0.  0.
         24    2    5    5    0    0  0.38540124741E+01 -0.34660465552E+02 -0.78046434597E+00  0.87395470362E+02  0.80132127332E+02 0.  0.
          5    1    5    5  501    0 -0.57060175939E+02  0.78291386263E+02 -0.13437445642E+02  0.97918638606E+02  0.47000000000E+01 0. -1.
        -11    1    6    6    0    0 -0.32846134976E+02 -0.38057156376E+02  0.29010756812E+01  0.50355059074E+02  0.00000000000E+00 0.  1.
         12    1    6    6    0    0  0.36700147450E+02  0.33966908243E+01 -0.36815400271E+01  0.37040411288E+02  0.00000000000E+00 0. -1.
         -5    1    3    3    0  503  0.56010271909E+02 -0.53705802406E+02 -0.67835025257E+02  0.10317530917E+03  0.47000000000E+01 0.  1.
         13    1    4    4    0    0  0.31366055218E+02 -0.16557211563E+02  0.21445898675E+02  0.41447523987E+02  0.00000000000E+00 0. -1.
        -14    1    4    4    0    0 -0.34170163662E+02  0.26632093258E+02  0.24273931406E+01  0.43390790652E+02  0.00000000000E+00 0.  1.
</event>
<event>
12    1  0.8052519E-002  0.1823801E+03  0.7818608E-02  0.1165601E+00
         21   -1    0    0  503  502  0.00000000000E+00  0.00000000000E+00  0.22178881448E+03  0.22178881448E+03  0.00000000000E+00 0. -1.
         21   -1    0    0  501  503 -0.00000000000E+00 -0.00000000000E+00 -0.28172307668E+03  0.28172307668E+03  0.00000000000E+00 0. -1.
          6    2    1    2  501    0 -0.98815658520E+01 -0.57585579827E+02 -0.20233036299E+03  0.27239688584E+03  0.17276788845E+03 0.  0.
         24    2    3    3    0    0 -0.33100354088E+02  0.15883764749E+02 -0.39871504249E+02  0.92530748105E+02  0.74995166981E+02 0.  0.
         -6    2    1    2    0  502  0.98815658520E+01  0.57585579827E+02  0.14239610079E+03  0.23111500531E+03  0.17240577662E+03 0.  0.
        -24    2    5    5    0    0 -0.39875545316E+02 -0.12613204225E+02  0.42006819846E+02  0.98813315518E+02  0.79059132141E+02 0.  0.
          5    1    3    3  501    0  0.23218788236E+02 -0.73469344576E+02 -0.16245885874E+03  0.17986613773E+03  0.47000000000E+01 0. -1.
        -11    1    4    4    0    0 -0.57955689954E+00 -0.84286303087E+01  0.19127167047E+02  0.20909954910E+02  0.00000000000E+00 0.  1.
         12    1    4    4    0    0 -0.32520797189E+02  0.24312395058E+02 -0.58998671296E+02  0.71620793196E+02  0.00000000000E+00 0. -1.
         -5    1    5    5    0  502  0.49757111168E+02  0.70198784052E+02  0.10038928094E+03  0.13230168979E+03  0.47000000000E+01 0.  1.
         13    1    6    6    0    0 -0.43242741397E+02 -0.18454161545E+01  0.62143923916E+02  0.75731152930E+02  0.00000000000E+00 0. -1.
        -14    1    6    6    0    0  0.33671960810E+01 -0.10767788071E+02 -0.20137104071E+02  0.23082162588E+02  0.00000000000E+00 0.  1.
</event>
<event>
12    1  0.8052519E-002  0.2085609E+03  0.7818608E-02  0.1145409E+00
         21   -1    0    0  503  502  0.00000000000E+00  0.00000000000E+00  0.60654276447E+03  0.60654276447E+03  0.00000000000E+00 0.  1.
         21   -1    0    0  501  503 -0.00000000000E+00 -0.00000000000E+00 -0.68848244290E+02  0.68848244290E+02  0.00000000000E+00 0.  1.
          6    2    1    2  501    0  0.93220270181E+02 -0.40952311405E+01  0.22667603063E+03  0.30802544967E+03  0.18652309534E+03 0.  0.
         24    2    3    3    0    0  0.12294101101E+03  0.48134718628E+01  0.23362342006E+03  0.27588445335E+03  0.79966664936E+02 0.  0.
         -6    2    1    2    0  502 -0.93220270181E+02  0.40952311405E+01  0.31101848955E+03  0.36736555909E+03  0.17180850814E+03 0.  0.
        -24    2    5    5    0    0  0.13235180903E+02  0.15902915184E+02  0.92155554995E+02  0.12365413426E+03  0.79809935963E+02 0.  0.
          5    1    3    3  501    0 -0.29720740830E+02 -0.89087030033E+01 -0.69473894294E+01  0.32140996322E+02  0.47000000000E+01 0. -1.
        -11    1    4    4    0    0  0.12614030423E+03 -0.14579041685E+02  0.19864095408E+03  0.23575867629E+03  0.00000000000E+00 0.  1.
         12    1    4    4    0    0 -0.31992932206E+01  0.19392513548E+02  0.34982465977E+02  0.40125777060E+02  0.00000000000E+00 0. -1.
         -5    1    5    5    0  502 -0.10645545108E+03 -0.11807684043E+02  0.21886293456E+03  0.24371142483E+03  0.47000000000E+01 0.  1.
         11    1    6    6    0    0 -0.21596678731E+02  0.36159428971E+02  0.48935525160E+02  0.64564746251E+02  0.00000000000E+00 0. -1.
        -12    1    6    6    0    0  0.34831859635E+02 -0.20256513788E+02  0.43220029835E+02  0.59089388010E+02  0.00000000000E+00 0.  1.
</event>
<event>
12    1  0.8052519E-002  0.2080515E+03  0.7818608E-02  0.1143669E+00
         21   -1    0    0  503  502  0.00000000000E+00  0.00000000000E+00  0.43673058943E+03  0.43673058943E+03  0.00000000000E+00 0.  1.
         21   -1    0    0  501  503 -0.00000000000E+00 -0.00000000000E+00 -0.10873442402E+03  0.10873442402E+03  0.00000000000E+00 0.  1.
          6    2    1    2  501    0  0.98463214395E+02  0.53963385972E+02  0.76608200259E+02  0.21915025380E+03  0.17190394347E+03 0.  0.
         24    2    3    3    0    0  0.84880966346E+02  0.85091644803E+02  0.52709582938E+00  0.13570044607E+03  0.62999736271E+02 0.  0.
         -6    2    1    2    0  502 -0.98463214395E+02 -0.53963385972E+02  0.25138796515E+03  0.32631475964E+03  0.17515239570E+03 0.  0.
        -24    2    5    5    0    0 -0.55674313645E+02  0.38250330349E+02  0.10502036034E+03  0.14804579082E+03  0.79533408842E+02 0.  0.
          5    1    3    3  501    0  0.13582248049E+02 -0.31128258830E+02  0.76081104429E+02  0.83449807735E+02  0.47000000000E+01 0. -1.
        -11    1    4    4    0    0  0.61159506456E+02  0.87997720151E+02  0.14305229937E+02  0.10811440045E+03  0.00000000000E+00 0.  1.
         12    1    4    4    0    0  0.23721459890E+02 -0.29060753480E+01 -0.13778134108E+02  0.27586045616E+02  0.00000000000E+00 0. -1.
         -5    1    5    5    0  502 -0.42788900750E+02 -0.92213716321E+02  0.14636760481E+03  0.17826896882E+03  0.47000000000E+01 0.  1.
         13    1    6    6    0    0 -0.76204751208E+02  0.26440823051E+02  0.80949543630E+02  0.11427646234E+03  0.00000000000E+00 0. -1.
        -14    1    6    6    0    0  0.20530437563E+02  0.11809507298E+02  0.24070816709E+02  0.33769328483E+02  0.00000000000E+00 0.  1.
</event>
<event>
12    1  0.8052519E-002  0.1791316E+03  0.7818608E-02  0.1168885E+00
         21   -1    0    0  501  502  0.00000000000E+00  0.00000000000E+00  0.10522832011E+04  0.10522832011E+04  0.00000000000E+00 0.  1.
         21   -1    0    0  502  503 -0.00000000000E+00 -0.00000000000E+00 -0.41256849900E+02  0.41256849900E+02  0.00000000000E+00 0.  1.
         -6    2    1    2    0  503 -0.24125250825E+02 -0.39567872785E+02  0.22511275654E+03  0.28768709659E+03  0.17303314164E+03 0.  0.
        -24    2    3    3    0    0 -0.52910669375E+02  0.30765538635E+02  0.97343397108E+02  0.13895079204E+03  0.78009796473E+02 0.  0.
          6    2    1    2  501    0  0.24125250825E+02  0.39567872785E+02  0.78591359466E+03  0.80585295441E+03  0.17202081727E+03 0.  0.
         24    2    5    5    0    0  0.49764857044E+02 -0.21881772356E+02  0.29553897642E+03  0.31095619295E+03  0.79969459096E+02 0.  0.
          5    1    5    5  501    0 -0.25639606219E+02  0.61449645141E+02  0.49037461824E+03  0.49489676147E+03  0.47000000000E+01 0. -1.
        -13    1    6    6    0    0  0.17960872677E+02  0.30413646136E+02  0.11715004892E+03  0.12235896690E+03  0.00000000000E+00 0.  1.
         14    1    6    6    0    0  0.31803984368E+02 -0.52295418492E+02  0.17838892750E+03  0.18859722605E+03  0.00000000000E+00 0. -1.
         -5    1    3    3    0  503  0.28785418551E+02 -0.70333411421E+02  0.12776935943E+03  0.14873630456E+03  0.47000000000E+01 0.  1.
         13    1    4    4    0    0 -0.12146496104E+02  0.36482836184E+02  0.88999145182E+02  0.96950412824E+02  0.00000000000E+00 0. -1.
        -14    1    4    4    0    0 -0.40764173272E+02 -0.57172975489E+01  0.83442519257E+01  0.42000379212E+02  0.00000000000E+00 0.  1.
</event>
<event>
12    1  0.8052519E-002  0.3085901E+03  0.7818608E-02  0.1081143E+00
         21   -1    0    0  503  502  0.00000000000E+00  0.00000000000E+00  0.25315825528E+03  0.25315825528E+03  0.00000000000E+00 0.  1.
         21   -1    0    0  501  503 -0.00000000000E+00 -0.00000000000E+00 -0.22344247082E+04  0.22344247082E+04  0.00000000000E+00 0. -1.
          6    2    1    2  501    0 -0.63343370613E+02  0.24820940721E+03 -0.21250090921E+04  0.21471570764E+04  0.17029262106E+03 0.  0.
         24    2    3    3    0    0 -0.48367278163E+02  0.25340959439E+03 -0.16576254811E+04  0.16794810613E+04  0.79866034423E+02 0.  0.
         -6    2    1    2    0  502  0.63343370613E+02 -0.24820940721E+03  0.14374263915E+03  0.34042588712E+03  0.17206843372E+03 0.  0.
        -24    2    5    5    0    0 -0.19354244000E+02 -0.18181801156E+03  0.11852519798E+03  0.23131712387E+03  0.77633840234E+02 0.  0.
          5    1    3    3  501    0 -0.14976092450E+02 -0.52001871760E+01 -0.46738361102E+03  0.46767601515E+03  0.47000000000E+01 0. -1.
        -13    1    4    4    0    0 -0.11020038372E+02  0.63408761012E+02 -0.23186313106E+03  0.24062964024E+03  0.00000000000E+00 0.  1.
         14    1    4    4    0    0 -0.37347239791E+02  0.19000083338E+03 -0.14257623500E+04  0.14388514210E+04  0.00000000000E+00 0. -1.
         -5    1    5    5    0  502  0.82697614614E+02 -0.66391395650E+02  0.25217441169E+02  0.10910876325E+03  0.47000000000E+01 0.  1.
         13    1    6    6    0    0 -0.10550952194E+02  0.37340431488E+01  0.14811661622E+02  0.18564778222E+02  0.00000000000E+00 0. -1.
        -14    1    6    6    0    0 -0.88032918064E+01 -0.18555205471E+03  0.10371353635E+03  0.21275234565E+03  0.00000000000E+00 0.  1.
</event>
<event>
12    1  0.8052519E-002  0.1764697E+03  0.7818608E-02  0.1171559E+00
         21   -1    0    0  503  502  0.00000000000E+00  0.00000000000E+00  0.36352806570E+03  0.36352806570E+03  0.00000000000E+00 0. -1.
         21   -1    0    0  501  503 -0.00000000000E+00 -0.00000000000E+00 -0.16538878990E+03  0.16538878990E+03  0.00000000000E+00 0. -1.
          6    2    1    2  501    0 -0.32268253018E+02  0.12438432072E+02 -0.85028514349E+02  0.19588621403E+03  0.17304798713E+03 0.  0.
         24    2    3    3    0    0 -0.49789489243E+02 -0.47401590426E+02 -0.79252718546E+02  0.13309073786E+03  0.81891679016E+02 0.  0.
         -6    2    1    2    0  502  0.32268253018E+02 -0.12438432072E+02  0.28316779015E+03  0.33303064157E+03  0.17184136900E+03 0.  0.
        -24    2    5    5    0    0  0.59143988704E+02 -0.63457682081E+02  0.17098205370E+03  0.20680465968E+03  0.77513971410E+02 0.  0.
          5    1    3    3  501    0  0.17521236226E+02  0.59840022497E+02 -0.57757958032E+01  0.62795476179E+02  0.47000000000E+01 0. -1.
        -13    1    4    4    0    0  0.27732465361E+01  0.19206561795E+02 -0.42992090327E+01  0.19876270038E+02  0.00000000000E+00 0.  1.
         14    1    4    4    0    0 -0.52562735779E+02 -0.66608152220E+02 -0.74953509514E+02  0.11321446782E+03  0.00000000000E+00 0. -1.
         -5    1    5    5    0  502 -0.26875735686E+02  0.51019250009E+02  0.11218573645E+03  0.12622598189E+03  0.47000000000E+01 0.  1.
         13    1    6    6    0    0  0.17472722705E+02 -0.59108936967E+01  0.11467254464E+03  0.11614657635E+03  0.00000000000E+00 0. -1.
        -14    1    6    6    0    0  0.41671265999E+02 -0.57546788384E+02  0.56309509060E+02  0.90658083334E+02  0.00000000000E+00 0.  1.
</event>
<event>
12    1  0.8052519E-002  0.3704067E+03  0.7818608E-02  0.1054654E+00
         21   -1    0    0  501  502  0.00000000000E+00  0.00000000000E+00  0.27078677228E+03  0.27078677228E+03  0.00000000000E+00 0.  1.
         21   -1    0    0  502  503 -0.00000000000E+00 -0.00000000000E+00 -0.59262967070E+03  0.59262967070E+03  0.00000000000E+00 0. -1.
         -6    2    1    2    0  503 -0.26720546133E+03  0.18879136531E+03 -0.32714069950E+03  0.49418835043E+03  0.17366677937E+03 0.  0.
        -24    2    3    3    0    0 -0.26531001092E+03  0.19779290235E+03 -0.26337449423E+03  0.42959083240E+03  0.75304216055E+02 0.  0.
          6    2    1    2  501    0  0.26720546133E+03 -0.18879136531E+03  0.52978010757E+01  0.36922809254E+03  0.17105665566E+03 0.  0.
         24    2    5    5    0    0  0.93591114609E+02 -0.42927086519E+02  0.47418341372E+02  0.13854528189E+03  0.79650891678E+02 0.  0.
          5    1    5    5  501    0  0.17361434672E+03 -0.14586427879E+03 -0.42120540296E+02  0.23068281065E+03  0.47000000000E+01 0. -1.
        -11    1    6    6    0    0  0.67928733289E+02 -0.65153343193E+02  0.45492974986E+02  0.10454129188E+03  0.00000000000E+00 0.  1.
         12    1    6    6    0    0  0.25662381320E+02  0.22226256674E+02  0.19253663861E+01  0.34003990008E+02  0.00000000000E+00 0. -1.
         -5    1    3    3    0  503 -0.18954504024E+01 -0.90015370406E+01 -0.63766205270E+02  0.64597518032E+02  0.47000000000E+01 0.  1.
         11    1    4    4    0    0 -0.42052688581E+02  0.70445571617E+02 -0.55882827962E+02  0.99266800283E+02  0.00000000000E+00 0. -1.
        -12    1    4    4    0    0 -0.22325732234E+03  0.12734733074E+03 -0.20749166627E+03  0.33032403212E+03  0.00000000000E+00 0.  1.
</event>
<event>
12    1  0.8052519E-002  0.2074026E+03  0.7818608E-02  0.1143741E+00
         21   -1    0    0  501  502  0.00000000000E+00  0.00000000000E+00  0.24769858416E+03  0.24769858416E+03  0.00000000000E+00 0. -1.
         21   -1    0    0  502  503 -0.00000000000E+00 -0.00000000000E+00 -0.25899397001E+03  0.25899397001E+03  0.00000000000E+00 0. -1.
         -6    2    1    2    0  503  0.11057236189E+03 -0.31200712381E+02 -0.15143204618E+03  0.25680248346E+03  0.17267344682E+03 0.  0.
        -24    2    3    3    0    0  0.14007537705E+03 -0.11637705911E+02 -0.15219487407E+03  0.22108398640E+03  0.77190037529E+02 0.  0.
          6    2    1    2  501    0 -0.11057236189E+03  0.31200712381E+02  0.14013666033E+03  0.24989007071E+03  0.17206694105E+03 0.  0.
         24    2    5    5    0    0 -0.54740934329E+02 -0.46428860416E+02  0.55586300224E+02  0.12216242189E+03  0.81741125389E+02 0.  0.
          5    1    5    5  501    0 -0.55831427561E+02  0.77629572797E+02  0.84550360109E+02  0.12772764881E+03  0.47000000000E+01 0. -1.
        -11    1    6    6    0    0 -0.54899894320E+02 -0.21502872803E+02 -0.24374528293E+01  0.59011127013E+02  0.00000000000E+00 0.  1.
         12    1    6    6    0    0  0.15895999118E+00 -0.24925987613E+02  0.58023753053E+02  0.63151294881E+02  0.00000000000E+00 0. -1.
         -5    1    3    3    0  503 -0.29503015165E+02 -0.19563006470E+02  0.76282789274E+00  0.35718497062E+02  0.47000000000E+01 0.  1.
         13    1    4    4    0    0  0.60185394841E+02 -0.41794308098E+02 -0.54434984611E+02  0.91280959083E+02  0.00000000000E+00 0. -1.
        -14    1    4    4    0    0  0.79889982214E+02  0.30156602187E+02 -0.97759889462E+02  0.12980302732E+03  0.00000000000E+00 0.  1.
</event>
<event>
12    1  0.8052519E-002  0.2018503E+03  0.7818608E-02  0.1149681E+00
         21   -1    0    0  503  502  0.00000000000E+00  0.00000000000E+00  0.88270384442E+02  0.88270384442E+02  0.00000000000E+00 0.  1.
         21   -1    0    0  501  503 -0.00000000000E+00 -0.00000000000E+00 -0.46468810061E+03  0.46468810061E+03  0.00000000000E+00 0.  1.
          6    2    1    2  501    0 -0.92265175067E+02 -0.46649235038E+02 -0.24099012037E+03  0.30988612255E+03  0.16511861547E+03 0.  0.
         24    2    3    3    0    0  0.29686497331E+02 -0.11534323779E+02 -0.94706510875E+02  0.11616918525E+03  0.59258987922E+02 0.  0.
         -6    2    1    2    0  502  0.92265175067E+02  0.46649235038E+02 -0.13542759580E+03  0.24307236250E+03  0.17336241244E+03 0.  0.
        -24    2    5    5    0    0  0.30434879719E+02  0.94406064015E+01  0.44422497249E+01  0.85614015134E+02  0.79338635305E+02 0.  0.
          5    1    3    3  501    0 -0.12195167240E+03 -0.35114911259E+02 -0.14628360950E+03  0.19371693731E+03  0.47000000000E+01 0. -1.
        -13    1    4    4    0    0 -0.76946570756E+01 -0.17454842442E+01 -0.69693065954E+02  0.70138277031E+02  0.00000000000E+00 0.  1.
         14    1    4    4    0    0  0.37381154407E+02 -0.97888395353E+01 -0.25013444921E+02  0.46030908214E+02  0.00000000000E+00 0. -1.
         -5    1    5    5    0  502  0.61830295348E+02  0.37208628637E+02 -0.13986984552E+03  0.15745834736E+03  0.47000000000E+01 0.  1.
         11    1    6    6    0    0 -0.19027905564E+02 -0.18666156112E+02  0.99628968897E+01  0.28456034309E+02  0.00000000000E+00 0. -1.
        -12    1    6    6    0    0  0.49462785283E+02  0.28106762513E+02 -0.55206471647E+01  0.57157980825E+02  0.00000000000E+00 0.  1.
</event>
<event>
12    1  0.8052519E-002  0.1914374E+03  0.7818608E-02  0.1157281E+00
         21   -1    0    0  501  502  0.00000000000E+00  0.00000000000E+00  0.83494946837E+03  0.83494946837E+03  0.00000000000E+00 0. -1.
         21   -1    0    0  502  503 -0.00000000000E+00 -0.00000000000E+00 -0.43883998931E+02  0.43883998931E+02  0.00000000000E+00 0.  1.
         -6    2    1    2    0  503 -0.17500147395E+02  0.82760928596E+02  0.37362284763E+03  0.41958777174E+03  0.17118481083E+03 0.  0.
        -24    2    3    3    0    0 -0.61279926772E+02  0.64815190603E+01  0.23530630864E+03  0.25560980871E+03  0.78549830725E+02 0.  0.
          6    2    1    2  501    0  0.17500147395E+02 -0.82760928596E+02  0.41744262181E+03  0.45924569556E+03  0.17173421304E+03 0.  0.
         24    2    5    5    0    0  0.30305324877E+02 -0.59821711738E+01  0.11147143518E+03  0.14349356619E+03  0.84913624272E+02 0.  0.
          5    1    5    5  501    0 -0.12805177482E+02 -0.76778757422E+02  0.30597118662E+03  0.31575212937E+03  0.47000000000E+01 0. -1.
        -11    1    6    6    0    0  0.32605266534E+02 -0.28537874054E+02  0.11274545047E+03  0.12078514090E+03  0.00000000000E+00 0.  1.
         12    1    6    6    0    0 -0.22999416572E+01  0.22555702881E+02 -0.12740152819E+01  0.22708425287E+02  0.00000000000E+00 0. -1.
         -5    1    3    3    0  503  0.43779779377E+02  0.76279409535E+02  0.13831653899E+03  0.16397796303E+03  0.47000000000E+01 0.  1.
         11    1    4    4    0    0 -0.19069404022E+02 -0.33565612152E+02  0.64556540047E+02  0.75218610408E+02  0.00000000000E+00 0. -1.
        -12    1    4    4    0    0 -0.42210522750E+02  0.40047131212E+02  0.17074976859E+03  0.18039119830E+03  0.00000000000E+00 0.  1.
</event>
<event>
12    1  0.8052519E-002  0.1977027E+03  0.7818608E-02  0.1151984E+00
         21   -1    0    0  503  502  0.00000000000E+00  0.00000000000E+00  0.57393363773E+03  0.57393363773E+03  0.00000000000E+00 0.  1.
         21   -1    0    0  501  503 -0.00000000000E+00 -0.00000000000E+00 -0.73461273176E+02  0.73461273176E+02  0.00000000000E+00 0.  1.
          6    2    1    2  501    0  0.65758336615E+02 -0.72758364017E+02  0.15828826670E+03  0.25220344153E+03  0.17009838968E+03 0.  0.
         24    2    3    3    0    0  0.40846995403E+02  0.24973348975E+02  0.63406628776E+02  0.11365136518E+03  0.81265534152E+02 0.  0.
         -6    2    1    2    0  502 -0.65758336615E+02  0.72758364017E+02  0.34218409785E+03  0.39519146938E+03  0.17166363120E+03 0.  0.
        -24    2    5    5    0    0 -0.47410927792E+02  0.85144860990E+02  0.12879440039E+03  0.18060510984E+03  0.80825520111E+02 0.  0.
          5    1    3    3  501    0  0.24911341213E+02 -0.97731712992E+02  0.94881637926E+02  0.13855207635E+03  0.47000000000E+01 0. -1.
        -11    1    4    4    0    0 -0.54895810280E+01 -0.20645796472E+02 -0.19571536192E+01  0.21452619004E+02  0.00000000000E+00 0.  1.
         12    1    4    4    0    0  0.46336576431E+02  0.45619145447E+02  0.65363782395E+02  0.92198746172E+02  0.00000000000E+00 0. -1.
         -5    1    5    5    0  502 -0.18347408823E+02 -0.12386496973E+02  0.21338969746E+03  0.21458635954E+03  0.47000000000E+01 0.  1.
         13    1    6    6    0    0 -0.51450192935E+02  0.46253674354E+02  0.32029879178E+02  0.76239346170E+02  0.00000000000E+00 0. -1.
        -14    1    6    6    0    0  0.40392651425E+01  0.38891186636E+02  0.96764521214E+02  0.10436576367E+03  0.00000000000E+00 0.  1.
</event>
<event>
12    1  0.8052519E-002  0.2090000E+03  0.7818608E-02  0.1142371E+00
         21   -1    0    0  503  502  0.00000000000E+00  0.00000000000E+00  0.52773466121E+03  0.52773466121E+03  0.00000000000E+00 0. -1.
         21   -1    0    0  501  503 -0.00000000000E+00 -0.00000000000E+00 -0.83293685723E+02  0.83293685723E+02  0.00000000000E+00 0.  1.
          6    2    1    2  501    0 -0.71950813675E+02  0.93457525011E+02  0.19748442750E+03  0.28750320651E+03  0.17247250818E+03 0.  0.
         24    2    3    3    0    0 -0.11308250154E+03  0.53802491953E+02  0.11850741436E+03  0.18991326852E+03  0.79628399487E+02 0.  0.
         -6    2    1    2    0  502  0.71950813675E+02 -0.93457525011E+02  0.24695654798E+03  0.32352514042E+03  0.17253912983E+03 0.  0.
        -24    2    5    5    0    0  0.43822459096E+02  0.15893083104E+02  0.13517119316E+03  0.16456975240E+03  0.81479776229E+02 0.  0.
          5    1    3    3  501    0  0.41131687864E+02  0.39655033058E+02  0.78977013142E+02  0.97589937997E+02  0.47000000000E+01 0. -1.
        -13    1    4    4    0    0 -0.11287089203E+03  0.64236284240E+02  0.12270090068E+03  0.17866630770E+03  0.00000000000E+00 0.  1.
         14    1    4    4    0    0 -0.21160951380E+00 -0.10433792287E+02 -0.41934863182E+01  0.11246960815E+02  0.00000000000E+00 0. -1.
         -5    1    5    5    0  502  0.28128354580E+02 -0.10935060812E+03  0.11178535482E+03  0.15895538802E+03  0.47000000000E+01 0.  1.
         13    1    6    6    0    0 -0.58857343659E+01  0.18734205018E+02  0.10397810512E+03  0.10581615496E+03  0.00000000000E+00 0. -1.
        -14    1    6    6    0    0  0.49708193461E+02 -0.28411219132E+01  0.31193088041E+02  0.58753597443E+02  0.00000000000E+00 0.  1.
</event>
<event>
12    1  0.8052519E-002  0.1877390E+03  0.7818608E-02  0.1161512E+00
         21   -1    0    0  501  502  0.00000000000E+00  0.00000000000E+00  0.69602258240E+02  0.69602258240E+02  0.00000000000E+00 0.  1.
         21   -1    0    0  502  503 -0.00000000000E+00 -0.00000000000E+00 -0.67260197670E+03  0.67260197670E+03  0.00000000000E+00 0. -1.
         -6    2    1    2    0  503 -0.77588516120E+02  0.25236226870E+01 -0.11331609500E+03  0.21928626414E+03  0.17093736207E+03 0.  0.
        -24    2    3    3    0    0 -0.10313117457E+03 -0.31625037670E+02 -0.52568229376E+02  0.14491589650E+03  0.81246637741E+02 0.  0.
          6    2    1    2  501    0  0.77588516120E+02 -0.25236226870E+01 -0.48968362346E+03  0.52291797080E+03  0.16621313605E+03 0.  0.
         24    2    5    5    0    0  0.24785559852E+02  0.50945546022E+02 -0.35833176340E+03  0.37151616984E+03  0.80080204506E+02 0.  0.
          5    1    5    5  501    0  0.52802956268E+02 -0.53469168709E+02 -0.13135186006E+03  0.15140180096E+03  0.47000000000E+01 0. -1.
        -11    1    6    6    0    0  0.20082385892E+02  0.13000007114E+01 -0.16381699571E+02  0.25949032849E+02  0.00000000000E+00 0.  1.
         12    1    6    6    0    0  0.47031739598E+01  0.49645545311E+02 -0.34195006383E+03  0.34556713699E+03  0.00000000000E+00 0. -1.
         -5    1    3    3    0  503  0.25542658448E+02  0.34148660357E+02 -0.60747865625E+02  0.74370367639E+02  0.47000000000E+01 0.  1.
         11    1    4    4    0    0 -0.12897757489E+02 -0.24942434175E+02 -0.46387732041E+02  0.54224522633E+02  0.00000000000E+00 0. -1.
        -12    1    4    4    0    0 -0.90233417079E+02 -0.66826034945E+01 -0.61804973347E+01  0.90691373870E+02  0.00000000000E+00 0.  1.
</event>
<event>
12    1  0.8052519E-002  0.2274714E+03  0.7818608E-02  0.1128995E+00
         21   -1    0    0  501  502  0.00000000000E+00  0.00000000000E+00  0.63609445043E+03  0.63609445043E+03  0.00000000000E+00 0.  1.
         21   -1    0    0  502  503 -0.00000000000E+00 -0.00000000000E+00 -0.10978620809E+03  0.10978620809E+03  0.00000000000E+00 0. -1.
         -6    2    1    2    0  503  0.49072362172E+02  0.13662919358E+03  0.68319782495E+02  0.23451321000E+03  0.17103572644E+03 0.  0.
        -24    2    3    3    0    0  0.92958594919E+02  0.94315186840E+02  0.19374908700E+02  0.15619228520E+03  0.80523214233E+02 0.  0.
          6    2    1    2  501    0 -0.49072362172E+02 -0.13662919358E+03  0.45798845984E+03  0.51136744852E+03  0.17512168564E+03 0.  0.
         24    2    5    5    0    0 -0.45635536462E+02 -0.60134353126E+01  0.14103489573E+03  0.16850604812E+03  0.79904210434E+02 0.  0.
          5    1    5    5  501    0 -0.34368257103E+01 -0.13061575827E+03  0.31695356411E+03  0.34286140040E+03  0.47000000000E+01 0. -1.
        -11    1    6    6    0    0 -0.56588137757E+02 -0.45113463861E+01  0.14580464414E+03  0.15646585517E+03  0.00000000000E+00 0.  1.
         12    1    6    6    0    0  0.10952601295E+02 -0.15020889266E+01 -0.47697484097E+01  0.12040192945E+02  0.00000000000E+00 0. -1.
         -5    1    3    3    0  503 -0.43886232747E+02  0.42314006745E+02  0.48944873795E+02  0.78320924805E+02  0.47000000000E+01 0.  1.
         11    1    4    4    0    0  0.47038839300E+02  0.33026749221E+01 -0.13556129895E+02  0.49064536298E+02  0.00000000000E+00 0. -1.
        -12    1    4    4    0    0  0.45919755619E+02  0.91012511918E+02  0.32931038595E+02  0.10712774890E+03  0.00000000000E+00 0.  1.
</event>
<event>
12    1  0.8052519E-002  0.1890353E+03  0.7818608E-02  0.1159383E+00
         21   -1    0    0  501  502  0.00000000000E+00  0.00000000000E+00  0.40189694344E+02  0.40189694344E+02  0.00000000000E+00 0.  1.
         21   -1    0    0  502  503 -0.00000000000E+00 -0.00000000000E+00 -0.88816302474E+03  0.88816302474E+03  0.00000000000E+00 0.  1.
         -6    2    1    2    0  503  0.77333401178E+02  0.11788681987E+02 -0.42712253908E+03  0.46708458855E+03  0.17208986462E+03 0.  0.
        -24    2    3    3    0    0 -0.24235742645E+02 -0.63224606749E+01 -0.18867141865E+03  0.20722822187E+03  0.81971257128E+02 0.  0.
          6    2    1    2  501    0 -0.77333401178E+02 -0.11788681987E+02 -0.42085079131E+03  0.46126813054E+03  0.17185305274E+03 0.  0.
         24    2    5    5    0    0 -0.55334282677E+02  0.42443935818E+02 -0.14784275851E+03  0.18201803828E+03  0.80060692530E+02 0.  0.
          5    1    5    5  501    0 -0.21999118501E+02 -0.54232617805E+02 -0.27300803281E+03  0.27925009226E+03  0.47000000000E+01 0. -1.
        -11    1    6    6    0    0 -0.70654634040E+02  0.11680238635E+02 -0.10495270641E+03  0.12705737235E+03  0.00000000000E+00 0.  1.
         12    1    6    6    0    0  0.15320351363E+02  0.30763697183E+02 -0.42890052092E+02  0.54960665923E+02  0.00000000000E+00 0. -1.
         -5    1    3    3    0  503  0.10156914382E+03  0.18111142662E+02 -0.23845112043E+03  0.25985636667E+03  0.47000000000E+01 0.  1.
         11    1    4    4    0    0 -0.13071326526E+02  0.37618022093E+02 -0.10001922309E+03  0.10765602700E+03  0.00000000000E+00 0. -1.
        -12    1    4    4    0    0 -0.11164416119E+02 -0.43940482768E+02 -0.88652195565E+02  0.99572194872E+02  0.00000000000E+00 0.  1.
</event>
<event>
12    1  0.8052519E-002  0.1858846E+03  0.7818608E-02  0.1162828E+00
         21   -1    0    0  501  502  0.00000000000E+00  0.00000000000E+00  0.17831546131E+03  0.17831546131E+03  0.00000000000E+00 0.  1.
         21   -1    0    0  502  503 -0.00000000000E+00 -0.00000000000E+00 -0.19766933832E+03  0.19766933832E+03  0.00000000000E+00 0.  1.
         -6    2    1    2    0  503  0.67407555048E+02  0.13826420242E+02 -0.44012206387E+02  0.19102393065E+03  0.17267923846E+03 0.  0.
        -24    2    3    3    0    0 -0.60498589011E+01 -0.37002675133E+02 -0.52175749247E+02  0.10120009176E+03  0.78187921078E+02 0.  0.
          6    2    1    2  501    0 -0.67407555048E+02 -0.13826420242E+02  0.24658329382E+02  0.18496086898E+03  0.16990450692E+03 0.  0.
         24    2    5    5    0    0 -0.46123706301E+02  0.41015895379E+02 -0.32059133736E+02  0.10310952554E+03  0.76118895453E+02 0.  0.
          5    1    5    5  501    0 -0.21283848748E+02 -0.54842315621E+02  0.56717463118E+02  0.81851343439E+02  0.47000000000E+01 0. -1.
        -13    1    6    6    0    0 -0.72119322210E+00  0.25694352618E+02  0.19840986966E+02  0.32471289471E+02  0.00000000000E+00 0.  1.
         14    1    6    6    0    0 -0.45402513079E+02  0.15321542760E+02 -0.51900120702E+02  0.70638236072E+02  0.00000000000E+00 0. -1.
         -5    1    3    3    0  503  0.73457413949E+02  0.50829095376E+02  0.81635428608E+01  0.89823838890E+02  0.47000000000E+01 0.  1.
         13    1    4    4    0    0  0.33775322812E+02 -0.53074354527E+01 -0.30722551332E+02  0.45965383307E+02  0.00000000000E+00 0. -1.
        -14    1    4    4    0    0 -0.39825181713E+02 -0.31695239681E+02 -0.21453197915E+02  0.55234708451E+02  0.00000000000E+00 0.  1.
</event>
<event>
12    1  0.8052519E-002  0.1790289E+03  0.7818608E-02  0.1170063E+00
         21   -1    0    0  501  502  0.00000000000E+00  0.00000000000E+00  0.15660890560E+03  0.15660890560E+03  0.00000000000E+00 0.  1.
         21   -1    0    0  502  503 -0.00000000000E+00 -0.00000000000E+00 -0.56344460602E+03  0.56344460602E+03  0.00000000000E+00 0.  1.
         -6    2    1    2    0  503  0.14752607281E+02 -0.24404870442E+02 -0.49202485174E+03  0.52178971971E+03  0.17135582786E+03 0.  0.
        -24    2    3    3    0    0 -0.47026670603E+02 -0.40052178306E+02 -0.21603289617E+03  0.23849629063E+03  0.79966140854E+02 0.  0.
          6    2    1    2  501    0 -0.14752607281E+02  0.24404870442E+02  0.85189151314E+02  0.19826379191E+03  0.17674304105E+03 0.  0.
         24    2    5    5    0    0 -0.74488345642E+02 -0.10910058797E+02  0.60422576944E+02  0.12443306748E+03  0.78518516655E+02 0.  0.
          5    1    5    5  501    0  0.59735738362E+02  0.35314929239E+02  0.24766574370E+02  0.73830724436E+02  0.47000000000E+01 0. -1.
        -13    1    6    6    0    0 -0.43834340343E+02 -0.39923547109E+02  0.56739772886E+02  0.82065466758E+02  0.00000000000E+00 0.  1.
         14    1    6    6    0    0 -0.30654005299E+02  0.29013488312E+02  0.36828040575E+01  0.42367600718E+02  0.00000000000E+00 0. -1.
         -5    1    3    3    0  503  0.61779277883E+02  0.15647307864E+02 -0.27599195557E+03  0.28329342908E+03  0.47000000000E+01 0.  1.
         13    1    4    4    0    0  0.18666432910E+02 -0.13484068610E+02 -0.21676819559E+02  0.31624995337E+02  0.00000000000E+00 0. -1.
        -14    1    4    4    0    0 -0.65693103513E+02 -0.26568109696E+02 -0.19435607661E+03  0.20687129529E+03  0.00000000000E+00 0.  1.
</event>
<event>
12    1  0.8052519E-002  0.1986830E+03  0.7818608E-02  0.1153154E+00
         21   -1    0    0  501  502  0.00000000000E+00  0.00000000000E+00  0.12485857194E+03  0.12485857194E+03  0.00000000000E+00 0.  1.
         21   -1    0    0  502  503 -0.00000000000E+00 -0.00000000000E+00 -0.77071399789E+03  0.77071399789E+03  0.00000000000E+00 0.  1.
         -6    2    1    2    0  503  0.90591802138E+02 -0.42172375411E+02 -0.67635194082E+03  0.70493040663E+03  0.17172520631E+03 0.  0.
        -24    2    3    3    0    0  0.23762466393E+02 -0.69599032861E+02 -0.53997919827E+03  0.55053482196E+03  0.78117702505E+02 0.  0.
          6    2    1    2  501    0 -0.90591802138E+02  0.42172375411E+02  0.30496514872E+02  0.19064216319E+03  0.15946477073E+03 0.  0.
         24    2    5    5    0    0 -0.53626870866E+02  0.84986994281E+02  0.47454554805E+01  0.12831476317E+03  0.79646271880E+02 0.  0.
          5    1    5    5  501    0 -0.36964931272E+02 -0.42814618870E+02  0.25751059392E+02  0.62327400016E+02  0.47000000000E+01 0. -1.
        -13    1    6    6    0    0 -0.14950126868E+02  0.10715226992E+02  0.34786857611E+02  0.39350322048E+02  0.00000000000E+00 0.  1.
         14    1    6    6    0    0 -0.38676743998E+02  0.74271767289E+02 -0.30041402130E+02  0.88964441124E+02  0.00000000000E+00 0. -1.
         -5    1    3    3    0  503  0.66829335745E+02  0.27426657450E+02 -0.13637274255E+03  0.15439558467E+03  0.47000000000E+01 0.  1.
         13    1    4    4    0    0  0.41883707916E+01 -0.50722915998E+02 -0.12929923206E+03  0.13895556149E+03  0.00000000000E+00 0. -1.
        -14    1    4    4    0    0  0.19574095602E+02 -0.18876116863E+02 -0.41067996621E+03  0.41157926047E+03  0.00000000000E+00 0.  1.
</event>
<event>
12    1  0.8052519E-002  0.2669741E+03  0.7818608E-02  0.1103074E+00
         21   -1    0    0  501  502  0.00000000000E+00  0.00000000000E+00  0.10364632447E+03  0.10364632447E+03  0.00000000000E+00 0.  1.
         21   -1    0    0  502  503 -0.00000000000E+00 -0.00000000000E+00 -0.82135692947E+03  0.82135692947E+03  0.00000000000E+00 0.  1.
         -6    2    1    2    0  503 -0.13883012843E+03  0.14963184350E+03 -0.54624686559E+03  0.60799735746E+03  0.17208037472E+03 0.  0.
        -24    2    3    3    0    0 -0.13443521815E+03  0.53068405992E+02 -0.40053413974E+03  0.43307422813E+03  0.78972187397E+02 0.  0.
          6    2    1    2  501    0  0.13883012843E+03 -0.14963184350E+03 -0.17146373941E+03  0.31700589647E+03  0.17155008399E+03 0.  0.
         24    2    5    5    0    0  0.15985000670E+03 -0.12246439414E+03 -0.17939843171E+03  0.28143969159E+03  0.80467075441E+02 0.  0.
          5    1    5    5  501    0 -0.21019878279E+02 -0.27167449356E+02  0.79346923005E+01  0.35566204876E+02  0.47000000000E+01 0. -1.
        -11    1    6    6    0    0  0.20260588283E+02 -0.48841004729E+02 -0.18382694195E+02  0.55980877328E+02  0.00000000000E+00 0.  1.
         12    1    6    6    0    0  0.13958941842E+03 -0.73623389410E+02 -0.16101573751E+03  0.22545881427E+03  0.00000000000E+00 0. -1.
         -5    1    3    3    0  503 -0.43949102734E+01  0.96563437503E+02 -0.14571272586E+03  0.17492312933E+03  0.47000000000E+01 0.  1.
         11    1    4    4    0    0 -0.91621033428E+01 -0.12747582367E+02 -0.12579992500E+02  0.20117186811E+02  0.00000000000E+00 0. -1.
        -12    1    4    4    0    0 -0.12527311481E+03  0.65815988359E+02 -0.38795414724E+03  0.41295704132E+03  0.00000000000E+00 0.  1.
</event>
<event>
12    1  0.8052519E-002  0.1832598E+03  0.7818608E-02  0.1166260E+00
         21   -1    0    0  501  502  0.00000000000E+00  0.00000000000E+00  0.38030056472E+02  0.38030056472E+02  0.00000000000E+00 0.  1.
         21   -1    0    0  502  503 -0.00000000000E+00 -0.00000000000E+00 -0.17312456568E+04  0.17312456568E+04  0.00000000000E+00 0.  1.
         -6    2    1    2    0  503  0.55202070627E+02  0.23601067603E+02 -0.14845975263E+04  0.14958656218E+04  0.17314694401E+03 0.  0.
        -24    2    3    3    0    0  0.76210595167E+02  0.53363248752E+02 -0.13616740253E+04  0.13675713404E+04  0.86252702770E+02 0.  0.
          6    2    1    2  501    0 -0.55202070627E+02 -0.23601067603E+02 -0.20861807403E+03  0.27341009153E+03  0.16621461532E+03 0.  0.
         24    2    5    5    0    0 -0.88892658863E+02  0.14365230274E+02 -0.12143607691E+03  0.17241857638E+03  0.82904644419E+02 0.  0.
          5    1    5    5  501    0  0.33690588236E+02 -0.37966297877E+02 -0.87181997123E+02  0.10099151515E+03  0.47000000000E+01 0. -1.
        -13    1    6    6    0    0 -0.69498430607E+02  0.49674346918E+01 -0.13135800108E+03  0.14869307890E+03  0.00000000000E+00 0.  1.
         14    1    6    6    0    0 -0.19394228256E+02  0.93977955820E+01  0.99219241744E+01  0.23725497482E+02  0.00000000000E+00 0. -1.
         -5    1    3    3    0  503 -0.21008524540E+02 -0.29762181150E+02 -0.12292350097E+03  0.12829428133E+03  0.47000000000E+01 0.  1.
         11    1    4    4    0    0 -0.41057786696E+01  0.34319912747E+02 -0.19970009744E+03  0.20266929404E+03  0.00000000000E+00 0. -1.
        -12    1    4    4    0    0  0.80316373837E+02  0.19043336005E+02 -0.11619739279E+04  0.11649020464E+04  0.00000000000E+00 0.  1.
</event>
<event>
12    1  0.8052519E-002  0.2032572E+03  0.7818608E-02  0.1147138E+00
         21   -1    0    0  503  502  0.00000000000E+00  0.00000000000E+00  0.50181108645E+03  0.50181108645E+03  0.00000000000E+00 0.  1.
         21   -1    0    0  501  503 -0.00000000000E+00 -0.00000000000E+00 -0.83670220069E+02  0.83670220069E+02  0.00000000000E+00 0. -1.
          6    2    1    2  501    0 -0.10145883443E+03  0.35681051320E+02  0.24949071122E+03  0.32180597478E+03  0.17247155681E+03 0.  0.
         24    2    3    3    0    0 -0.66878522122E+02 -0.46833429191E+02  0.15385368322E+03  0.19076030099E+03  0.77797363599E+02 0.  0.
         -6    2    1    2    0  502  0.10145883443E+03 -0.35681051320E+02  0.16865015516E+03  0.26367533174E+03  0.17179864152E+03 0.  0.
        -24    2    5    5    0    0  0.56824126328E+02 -0.13410012583E+02  0.12573579056E+02  0.99753875118E+02  0.79899505257E+02 0.  0.
          5    1    3    3  501    0 -0.34580312305E+02  0.82514480511E+02  0.95637028008E+02  0.13104567379E+03  0.47000000000E+01 0. -1.
        -13    1    4    4    0    0 -0.59779446582E+02 -0.75430632016E+01  0.13232967067E+03  0.14540158794E+03  0.00000000000E+00 0.  1.
         14    1    4    4    0    0 -0.70990755399E+01 -0.39290365990E+02  0.21524012544E+02  0.45358713045E+02  0.00000000000E+00 0. -1.
         -5    1    5    5    0  502  0.44634708099E+02 -0.22271038736E+02  0.15607657610E+03  0.16392145662E+03  0.47000000000E+01 0.  1.
         11    1    6    6    0    0  0.42664809553E+02  0.54613028767E+00  0.44813010649E+02  0.61877218392E+02  0.00000000000E+00 0. -1.
        -12    1    6    6    0    0  0.14159316775E+02 -0.13956142871E+02 -0.32239431593E+02  0.37876656726E+02  0.00000000000E+00 0.  1.
</event>
<event>
12    1  0.8052519E-002  0.1857949E+03  0.7818608E-02  0.1162362E+00
         21   -1    0    0  501  502  0.00000000000E+00  0.00000000000E+00  0.12652518934E+03  0.12652518934E+03  0.00000000000E+00 0.  1.
         21   -1    0    0  502  503 -0.00000000000E+00 -0.00000000000E+00 -0.28744233708E+03  0.28744233708E+03  0.00000000000E+00 0. -1.
         -6    2    1    2    0  503  0.46969243512E+02  0.50789117677E+02 -0.33222536443E+02  0.18852208622E+03  0.17219522570E+03 0.  0.
        -24    2    3    3    0    0  0.34569466289E+02 -0.33791180901E+02 -0.55649036983E+02  0.10001999975E+03  0.67603943125E+02 0.  0.
          6    2    1    2  501    0 -0.46969243512E+02 -0.50789117677E+02 -0.12769461130E+03  0.22544544020E+03  0.17243575163E+03 0.  0.
         24    2    5    5    0    0  0.36774170766E+02 -0.53646295952E+01 -0.50998834389E+02  0.10304986941E+03  0.81469476432E+02 0.  0.
          5    1    5    5  501    0 -0.83743414278E+02 -0.45424488082E+02 -0.76695776910E+02  0.12239557079E+03  0.47000000000E+01 0. -1.
        -11    1    6    6    0    0  0.87546926816E+01 -0.16404418512E+02  0.19160688135E+02  0.26699841956E+02  0.00000000000E+00 0.  1.
         12    1    6    6    0    0  0.28019478084E+02  0.11039788917E+02 -0.70159522524E+02  0.76350027454E+02  0.00000000000E+00 0. -1.
         -5    1    3    3    0  503  0.12399777223E+02  0.84580298578E+02  0.22426500540E+02  0.88502086468E+02  0.47000000000E+01 0.  1.
         13    1    4    4    0    0 -0.20972417737E+01  0.99500979155E+01 -0.39377475781E+02  0.40669257068E+02  0.00000000000E+00 0. -1.
        -14    1    4    4    0    0  0.36666708063E+02 -0.43741278816E+02 -0.16271561203E+02  0.59350742680E+02  0.00000000000E+00 0.  1.
</event>
<event>
12    1  0.8052519E-002  0.1957722E+03  0.7818608E-02  0.1153417E+00
         21   -1    0    0  501  502  0.00000000000E+00  0.00000000000E+00  0.76897114307E+02  0.76897114307E+02  0.00000000000E+00 0.  1.
         21   -1    0    0  502  503 -0.00000000000E+00 -0.00000000000E+00 -0.65233785473E+03  0.65233785473E+03  0.00000000000E+00 0.  1.
         -6    2    1    2    0  503  0.73114823430E+02  0.58114273589E+02 -0.11003483592E+03  0.22432963742E+03  0.17173547947E+03 0.  0.
        -24    2    3    3    0    0  0.57046091746E+02  0.89263073696E+02 -0.12765158435E+03  0.18482151533E+03  0.81497930234E+02 0.  0.
          6    2    1    2  501    0 -0.73114823430E+02 -0.58114273589E+02 -0.46540590450E+03  0.50490533161E+03  0.17205723393E+03 0.  0.
         24    2    5    5    0    0 -0.11418841733E+03 -0.57698630805E+02 -0.31317853887E+03  0.34716353715E+03  0.77933289851E+02 0.  0.
          5    1    5    5  501    0  0.41073593899E+02 -0.41564278354E+00 -0.15222736563E+03  0.15774179447E+03  0.47000000000E+01 0. -1.
        -11    1    6    6    0    0 -0.35166254244E+02 -0.88719041775E+01 -0.18697683438E+03  0.19046184058E+03  0.00000000000E+00 0.  1.
         12    1    6    6    0    0 -0.79022163085E+02 -0.48826726628E+02 -0.12620170449E+03  0.15670169657E+03  0.00000000000E+00 0. -1.
         -5    1    3    3    0  503  0.16068731684E+02 -0.31148800107E+02  0.17616748430E+02  0.39508122093E+02  0.47000000000E+01 0.  1.
         11    1    4    4    0    0 -0.15095585141E+02  0.38265591805E+01 -0.61987063834E+00  0.15585361257E+02  0.00000000000E+00 0. -1.
        -12    1    4    4    0    0  0.72141676887E+02  0.85436514516E+02 -0.12703171371E+03  0.16923615407E+03  0.00000000000E+00 0.  1.
</event>
<event>
12    1  0.8052519E-002  0.1973264E+03  0.7818608E-02  0.1152141E+00
         21   -1    0    0  503  502  0.00000000000E+00  0.00000000000E+00  0.26127326116E+03  0.26127326116E+03  0.00000000000E+00 0.  1.
         21   -1    0    0  501  503 -0.00000000000E+00 -0.00000000000E+00 -0.17186397060E+03  0.17186397060E+03  0.00000000000E+00 0.  1.
          6    2    1    2  501    0  0.97295208492E+02  0.73386119144E+01 -0.35053696175E+02  0.19983750561E+03  0.17083926426E+03 0.  0.
         24    2    3    3    0    0  0.11456214807E+03 -0.40618967885E+02 -0.22104707731E+02  0.14703747754E+03  0.79730893489E+02 0.  0.
         -6    2    1    2    0  502 -0.97295208492E+02 -0.73386119144E+01  0.12446298674E+03  0.23329972615E+03  0.17151534722E+03 0.  0.
        -24    2    5    5    0    0 -0.37193412098E+02  0.50995182152E+02  0.15016005357E+02  0.95401977098E+02  0.69944251451E+02 0.  0.
          5    1    3    3  501    0 -0.17266939575E+02  0.47957579800E+02 -0.12948988444E+02  0.52800028071E+02  0.47000000000E+01 0. -1.
        -11    1    4    4    0    0  0.21164200262E+02 -0.14805385745E+01  0.27126432145E+02  0.34437750916E+02  0.00000000000E+00 0.  1.
         12    1    4    4    0    0  0.93397947805E+02 -0.39138429311E+02 -0.49231139876E+02  0.11259972663E+03  0.00000000000E+00 0. -1.
         -5    1    5    5    0  502 -0.60101796394E+02 -0.58333794067E+02  0.10944698138E+03  0.13789774905E+03  0.47000000000E+01 0.  1.
         13    1    6    6    0    0 -0.67964414002E+01 -0.91756092341E+01 -0.17232838670E+02  0.20672545783E+02  0.00000000000E+00 0. -1.
        -14    1    6    6    0    0 -0.30396970698E+02  0.60170791386E+02  0.32248844027E+02  0.74729431315E+02  0.00000000000E+00 0.  1.
</event>
<event>
12    1  0.8052519E-002  0.2185725E+03  0.7818608E-02  0.1135212E+00
         21   -1    0    0  501  502  0.00000000000E+00  0.00000000000E+00  0.42127906162E+03  0.42127906162E+03  0.00000000000E+00 0.  1.
         21   -1    0    0  502  503 -0.00000000000E+00 -0.00000000000E+00 -0.22761030335E+03  0.22761030335E+03  0.00000000000E+00 0. -1.
         -6    2    1    2    0  503 -0.11373141579E+03 -0.71692289389E+02 -0.13355458931E+03  0.25614598487E+03  0.17233490054E+03 0.  0.
        -24    2    3    3    0    0 -0.11097928895E+03 -0.74746322813E+02 -0.16287065731E+03  0.22617227696E+03  0.81997759131E+02 0.  0.
          6    2    1    2  501    0  0.11373141579E+03  0.71692289389E+02  0.32722334757E+03  0.39274338010E+03  0.17058025713E+03 0.  0.
         24    2    5    5    0    0  0.10642890230E+03  0.13928809371E+02  0.29972767855E+03  0.32818295769E+03  0.79663350761E+02 0.  0.
          5    1    5    5  501    0  0.73025134933E+01  0.57763480018E+02  0.27495669020E+02  0.64560422412E+02  0.47000000000E+01 0. -1.
        -13    1    6    6    0    0  0.10454288534E+03 -0.96132343369E+01  0.20212327089E+03  0.22776181810E+03  0.00000000000E+00 0.  1.
         14    1    6    6    0    0  0.18860169608E+01  0.23542043708E+02  0.97604407657E+02  0.10042113959E+03  0.00000000000E+00 0. -1.
         -5    1    3    3    0  503 -0.27521268420E+01  0.30540334238E+01  0.29316068009E+02  0.29973707909E+02  0.47000000000E+01 0.  1.
         11    1    4    4    0    0 -0.53947886240E+02 -0.38945197409E+02 -0.14008642737E+03  0.15508484763E+03  0.00000000000E+00 0. -1.
        -12    1    4    4    0    0 -0.57031402709E+02 -0.35801125404E+02 -0.22784229947E+02  0.71087429335E+02  0.00000000000E+00 0.  1.
</event>
<event>
12    1  0.8052519E-002  0.3032082E+03  0.7818608E-02  0.1084019E+00
         21   -1    0    0  503  502  0.00000000000E+00  0.00000000000E+00  0.54602508391E+03  0.54602508391E+03  0.00000000000E+00 0.  1.
         21   -1    0    0  501  503 -0.00000000000E+00 -0.00000000000E+00 -0.17930391684E+03  0.17930391684E+03  0.00000000000E+00 0.  1.
          6    2    1    2  501    0  0.24296731760E+03  0.37598811912E+02  0.86413201427E+02  0.31240313086E+03  0.17228373896E+03 0.  0.
         24    2    3    3    0    0  0.20071515321E+03  0.14996188102E+02  0.12560753715E+03  0.25031923640E+03  0.79818596433E+02 0.  0.
         -6    2    1    2    0  502 -0.24296731760E+03 -0.37598811912E+02  0.28030796565E+03  0.41292586989E+03  0.17744979668E+03 0.  0.
        -24    2    5    5    0    0 -0.16980096429E+03 -0.93692736137E+02  0.20855822658E+03  0.29600727151E+03  0.80703622179E+02 0.  0.
          5    1    3    3  501    0  0.42252164390E+02  0.22602623810E+02 -0.39194335720E+02  0.62083894460E+02  0.47000000000E+01 0. -1.
        -11    1    4    4    0    0  0.12231743658E+03 -0.78164418378E+01  0.33151396168E+02  0.12697112712E+03  0.00000000000E+00 0.  1.
         12    1    4    4    0    0  0.78397716635E+02  0.22812629940E+02  0.92456140978E+02  0.12334810928E+03  0.00000000000E+00 0. -1.
         -5    1    5    5    0  502 -0.73166353308E+02  0.56093924225E+02  0.71749739065E+02  0.11691859838E+03  0.47000000000E+01 0.  1.
         11    1    6    6    0    0 -0.33770686245E+02 -0.57740373987E+02  0.89230485008E+02  0.11151900956E+03  0.00000000000E+00 0. -1.
        -12    1    6    6    0    0 -0.13603027805E+03 -0.35952362150E+02  0.11932774157E+03  0.18448826196E+03  0.00000000000E+00 0.  1.
</event>
<event>
12    1  0.8052519E-002  0.2047894E+03  0.7818608E-02  0.1145773E+00
         21   -1    0    0  501  502  0.00000000000E+00  0.00000000000E+00  0.14969244731E+04  0.14969244731E+04  0.00000000000E+00 0.  1.
         21   -1    0    0  502  503 -0.00000000000E+00 -0.00000000000E+00 -0.28160415080E+02  0.28160415080E+02  0.00000000000E+00 0.  1.
         -6    2    1    2    0  503  0.33316218730E+02  0.10596747507E+03  0.67809778737E+03  0.70832799050E+03  0.17196760362E+03 0.  0.
        -24    2    3    3    0    0 -0.10864308554E+02  0.10411633578E+00  0.34233107911E+03  0.35347542663E+03  0.87385728040E+02 0.  0.
          6    2    1    2  501    0 -0.33316218730E+02 -0.10596747507E+03  0.79066627068E+03  0.81675689770E+03  0.17204534912E+03 0.  0.
         24    2    5    5    0    0 -0.20192860080E+02 -0.81708262243E+02  0.25331891841E+03  0.27868162514E+03  0.80056118141E+02 0.  0.
          5    1    5    5  501    0 -0.13123358650E+02 -0.24259212829E+02  0.53734735227E+03  0.53807527256E+03  0.47000000000E+01 0. -1.
        -13    1    6    6    0    0  0.54453830618E+01 -0.28632673441E+02  0.18980938475E+03  0.19203407178E+03  0.00000000000E+00 0.  1.
         14    1    6    6    0    0 -0.25638243142E+02 -0.53075588802E+02  0.63509533651E+02  0.86647553357E+02  0.00000000000E+00 0. -1.
         -5    1    3    3    0  503  0.44180527285E+02  0.10586335874E+03  0.33576670825E+03  0.35485256387E+03  0.47000000000E+01 0.  1.
         13    1    4    4    0    0 -0.12838286262E+02  0.10827390029E+01  0.18836070609E+01  0.13020825375E+02  0.00000000000E+00 0. -1.
        -14    1    4    4    0    0  0.19739777073E+01 -0.97862266713E+00  0.34044747205E+03  0.34045460126E+03  0.00000000000E+00 0.  1.
</event>
<event>
12    1  0.8052519E-002  0.2123751E+03  0.7818608E-02  0.1140134E+00
         21   -1    0    0  501  502  0.00000000000E+00  0.00000000000E+00  0.53127988632E+02  0.53127988632E+02  0.00000000000E+00 0.  1.
         21   -1    0    0  502  503 -0.00000000000E+00 -0.00000000000E+00 -0.11522126082E+04  0.11522126082E+04  0.00000000000E+00 0.  1.
         -6    2    1    2    0  503 -0.11994685396E+03  0.61507172275E+01 -0.86109883303E+03  0.88637289027E+03  0.17245469339E+03 0.  0.
        -24    2    3    3    0    0 -0.44903113088E+02 -0.54828404001E+02 -0.33678661413E+03  0.35319805108E+03  0.79380075427E+02 0.  0.
          6    2    1    2  501    0  0.11994685396E+03 -0.61507172275E+01 -0.23798578650E+03  0.31896770652E+03  0.17515160327E+03 0.  0.
         24    2    5    5    0    0  0.11960962110E+03  0.53126138114E+02 -0.15579259205E+03  0.21751983557E+03  0.76907081084E+02 0.  0.
          5    1    5    5  501    0  0.33723286007E+00 -0.59276855341E+02 -0.82193194458E+02  0.10144787095E+03  0.47000000000E+01 0. -1.
        -11    1    6    6    0    0  0.56084796372E+02  0.53742797362E+02 -0.12439720080E+03  0.14665761562E+03  0.00000000000E+00 0.  1.
         12    1    6    6    0    0  0.63524824728E+02 -0.61665924788E+00 -0.31395391247E+02  0.70862219954E+02  0.00000000000E+00 0. -1.
         -5    1    3    3    0  503 -0.75043740872E+02  0.60979121228E+02 -0.52431221889E+03  0.53317483920E+03  0.47000000000E+01 0.  1.
         11    1    4    4    0    0  0.21483785090E+02 -0.62215797217E+01 -0.48671859222E+02  0.53565016159E+02  0.00000000000E+00 0. -1.
        -12    1    4    4    0    0 -0.66386898178E+02 -0.48606824279E+02 -0.28811475491E+03  0.29963303492E+03  0.00000000000E+00 0.  1.
</event>
<event>
12    1  0.8052519E-002  0.2737615E+03  0.7818608E-02  0.1099294E+00
         21   -1    0    0  501  502  0.00000000000E+00  0.00000000000E+00  0.91507557819E+03  0.91507557819E+03  0.00000000000E+00 0.  1.
         21   -1    0    0  502  503 -0.00000000000E+00 -0.00000000000E+00 -0.94670684250E+02  0.94670684250E+02  0.00000000000E+00 0.  1.
         -6    2    1    2    0  503  0.20307454957E+03 -0.64307449455E+02  0.22318756782E+03  0.35321102362E+03  0.17196108873E+03 0.  0.
        -24    2    3    3    0    0  0.13379553369E+03 -0.34051243631E+02  0.22712774408E+03  0.27736489636E+03  0.79268793162E+02 0.  0.
          6    2    1    2  501    0 -0.20307454957E+03  0.64307449455E+02  0.59721732611E+03  0.65653523882E+03  0.17027995907E+03 0.  0.
         24    2    5    5    0    0 -0.16962244644E+03  0.14864209668E+02  0.54727132313E+03  0.57855850909E+03  0.78938762715E+02 0.  0.
          5    1    5    5  501    0 -0.33452103128E+02  0.49443239788E+02  0.49946002988E+02  0.77976729726E+02  0.47000000000E+01 0. -1.
        -13    1    6    6    0    0 -0.15732822863E+03  0.26076854644E+02  0.40419484914E+03  0.43451772109E+03  0.00000000000E+00 0.  1.
         14    1    6    6    0    0 -0.12294217815E+02 -0.11212644976E+02  0.14307647399E+03  0.14404078800E+03  0.00000000000E+00 0. -1.
         -5    1    3    3    0  503  0.69279015879E+02 -0.30256205824E+02 -0.39401762601E+01  0.75846127264E+02  0.47000000000E+01 0.  1.
         13    1    4    4    0    0  0.11157182100E+03  0.42149124204E+01  0.13521440658E+03  0.17535384933E+03  0.00000000000E+00 0. -1.
        -14    1    4    4    0    0  0.22223712697E+02 -0.38266156051E+02  0.91913337503E+02  0.10201104703E+03  0.00000000000E+00 0.  1.
</event>
<event>
12    1  0.8052519E-002  0.2209105E+03  0.7818608E-02  0.1133288E+00
         21   -1    0    0  501  502  0.00000000000E+00  0.00000000000E+00  0.46993431012E+03  0.46993431012E+03  0.00000000000E+00 0. -1.
         21   -1    0    0  502  503 -0.00000000000E+00 -0.00000000000E+00 -0.13701201639E+03  0.13701201639E+03  0.00000000000E+00 0. -1.
         -6    2    1    2    0  503 -0.41936127974E+02  0.13156468424E+03  0.16561202561E+02  0.22108910453E+03  0.17186684887E+03 0.  0.
        -24    2    3    3    0    0 -0.34095356362E+02  0.16472260024E+03  0.15023997770E+02  0.18665978430E+03  0.79499221456E+02 0.  0.
          6    2    1    2  501    0  0.41936127974E+02 -0.13156468424E+03  0.31636109116E+03  0.38585722198E+03  0.17243419261E+03 0.  0.
         24    2    5    5    0    0  0.24934919835E+01 -0.59650415624E+02  0.61201655269E+02  0.11779787913E+03  0.81032759627E+02 0.  0.
          5    1    5    5  501    0  0.39442635991E+02 -0.71914268619E+02  0.25515943589E+03  0.26805934285E+03  0.47000000000E+01 0. -1.
        -11    1    6    6    0    0 -0.97202194051E+01  0.14462673162E+02  0.33460472797E+02  0.37726049622E+02  0.00000000000E+00 0.  1.
         12    1    6    6    0    0  0.12213711389E+02 -0.74113088786E+02  0.27741182472E+02  0.80071829505E+02  0.00000000000E+00 0. -1.
         -5    1    3    3    0  503 -0.78407716118E+01 -0.33157915996E+02  0.15372047910E+01  0.34429320226E+02  0.47000000000E+01 0.  1.
         11    1    4    4    0    0 -0.50483815099E+02  0.54245460052E+02  0.10878683898E+02  0.74896804248E+02  0.00000000000E+00 0. -1.
        -12    1    4    4    0    0  0.16388458737E+02  0.11047714019E+03  0.41453138720E+01  0.11176298005E+03  0.00000000000E+00 0.  1.
</event>
<event>
12    1  0.8052519E-002  0.2404117E+03  0.7818608E-02  0.1120051E+00
         21   -1    0    0  501  502  0.00000000000E+00  0.00000000000E+00  0.88771857259E+02  0.88771857259E+02  0.00000000000E+00 0.  1.
         21   -1    0    0  502  503 -0.00000000000E+00 -0.00000000000E+00 -0.65388730335E+03  0.65388730335E+03  0.00000000000E+00 0. -1.
         -6    2    1    2    0  503  0.15551945200E+03  0.52032399518E+02 -0.32972564974E+03  0.40619794533E+03  0.17141789913E+03 0.  0.
        -24    2    3    3    0    0  0.11890361971E+03  0.24847549007E+00 -0.30667768468E+03  0.33855481814E+03  0.80187468397E+02 0.  0.
          6    2    1    2  501    0 -0.15551945200E+03 -0.52032399518E+02 -0.23538979635E+03  0.33646121528E+03  0.17579568429E+03 0.  0.
         24    2    5    5    0    0 -0.11479852819E+03 -0.81337072040E+02 -0.95391844158E+02  0.18767118173E+03  0.79538966278E+02 0.  0.
          5    1    5    5  501    0 -0.40720923809E+02  0.29304672522E+02 -0.13999795219E+03  0.14879003355E+03  0.47000000000E+01 0. -1.
        -13    1    6    6    0    0 -0.17662661831E+02 -0.52773150481E+02 -0.56230826503E+02  0.79113089207E+02  0.00000000000E+00 0.  1.
         14    1    6    6    0    0 -0.97135866357E+02 -0.28563921559E+02 -0.39161017655E+02  0.10855809252E+03  0.00000000000E+00 0. -1.
         -5    1    3    3    0  503  0.36615832286E+02  0.51783924028E+02 -0.23047965064E+02  0.67643127185E+02  0.47000000000E+01 0.  1.
         13    1    4    4    0    0  0.80360356289E+02  0.25239876235E+02 -0.12201910462E+03  0.14826833818E+03  0.00000000000E+00 0. -1.
        -14    1    4    4    0    0  0.38543263422E+02 -0.24991400745E+02 -0.18465858006E+03  0.19028647996E+03  0.00000000000E+00 0.  1.
</event>
<event>
12    1  0.8052519E-002  0.1785017E+03  0.7818608E-02  0.1169927E+00
         21   -1    0    0  501  502  0.00000000000E+00  0.00000000000E+00  0.20809138299E+03  0.20809138299E+03  0.00000000000E+00 0. -1.
         21   -1    0    0  502  503 -0.00000000000E+00 -0.00000000000E+00 -0.25509744571E+03  0.25509744571E+03  0.00000000000E+00 0. -1.
         -6    2    1    2    0  503  0.34128601342E+01 -0.35968302952E+02 -0.17147121059E+03  0.24557812650E+03  0.17204904452E+03 0.  0.
        -24    2    3    3    0    0  0.33542326917E+02  0.38569739232E+02 -0.11215337664E+03  0.14555612928E+03  0.77430577948E+02 0.  0.
          6    2    1    2  501    0 -0.34128601342E+01  0.35968302952E+02  0.12446514787E+03  0.21761070220E+03  0.17480697426E+03 0.  0.
         24    2    5    5    0    0 -0.14803550286E+02 -0.31948228011E+02  0.15806890329E+02  0.88881878969E+02  0.80064325720E+02 0.  0.
          5    1    5    5  501    0  0.11390690152E+02  0.67916530962E+02  0.10865825754E+03  0.12872882323E+03  0.47000000000E+01 0. -1.
        -13    1    6    6    0    0 -0.29779476839E+01 -0.31852398787E+02  0.46242195921E+02  0.56229744481E+02  0.00000000000E+00 0.  1.
         14    1    6    6    0    0 -0.11825602602E+02 -0.95829223663E-01 -0.30435305591E+02  0.32652134487E+02  0.00000000000E+00 0. -1.
         -5    1    3    3    0  503 -0.30129466782E+02 -0.74538042184E+02 -0.59317833957E+02  0.10002199721E+03  0.47000000000E+01 0.  1.
         11    1    4    4    0    0 -0.11640270575E+02  0.44376436029E+02 -0.43906217197E+02  0.63502125021E+02  0.00000000000E+00 0. -1.
        -12    1    4    4    0    0  0.45182597491E+02 -0.58066967966E+01 -0.68247159439E+02  0.82054004261E+02  0.00000000000E+00 0.  1.
</event>
<event>
12    1  0.8052519E-002  0.1800458E+03  0.7818608E-02  0.1168269E+00
         21   -1    0    0  503  502  0.00000000000E+00  0.00000000000E+00  0.26405332886E+03  0.26405332886E+03  0.00000000000E+00 0.  1.
         21   -1    0    0  501  503 -0.00000000000E+00 -0.00000000000E+00 -0.15832384081E+03  0.15832384081E+03  0.00000000000E+00 0.  1.
          6    2    1    2  501    0  0.42990181435E+02 -0.19558773872E+02 -0.48969269952E+02  0.18658635029E+03  0.17374054040E+03 0.  0.
         24    2    3    3    0    0  0.87469958070E+02  0.20711029347E+02 -0.24556072478E+02  0.12163866525E+03  0.78185829198E+02 0.  0.
         -6    2    1    2    0  502 -0.42990181435E+02  0.19558773872E+02  0.15469875801E+03  0.23579081938E+03  0.17156603230E+03 0.  0.
        -24    2    5    5    0    0 -0.43927748130E+02 -0.25925914223E+02  0.27305864827E+02  0.10043656154E+03  0.82098066696E+02 0.  0.
          5    1    3    3  501    0 -0.44479776635E+02 -0.40269803218E+02 -0.24413197475E+02  0.64947685037E+02  0.47000000000E+01 0. -1.
        -11    1    4    4    0    0  0.47761127189E+02 -0.16733974849E+02  0.16622344607E+02  0.53267753143E+02  0.00000000000E+00 0.  1.
         12    1    4    4    0    0  0.39708830881E+02  0.37445004196E+02 -0.41178417085E+02  0.68370912110E+02  0.00000000000E+00 0. -1.
         -5    1    5    5    0  502  0.93756669427E+00  0.45484688095E+02  0.12739289318E+03  0.13535425784E+03  0.47000000000E+01 0.  1.
         13    1    6    6    0    0 -0.94591124472E+01 -0.25361868170E+02 -0.25622129578E+02  0.37271875315E+02  0.00000000000E+00 0. -1.
        -14    1    6    6    0    0 -0.34468635682E+02 -0.56404605306E+00  0.52927994405E+02  0.63164686221E+02  0.00000000000E+00 0.  1.
</event>
<event>
12    1  0.8052519E-002  0.3330855E+03  0.7818608E-02  0.1069810E+00
         21   -1    0    0  503  502  0.00000000000E+00  0.00000000000E+00  0.16269244794E+03  0.16269244794E+03  0.00000000000E+00 0.  1.
         21   -1    0    0  501  503 -0.00000000000E+00 -0.00000000000E+00 -0.69110848779E+03  0.69110848779E+03  0.00000000000E+00 0. -1.
          6    2    1    2  501    0  0.27452594684E+03  0.73852465238E+02 -0.31498494862E+03  0.45843369953E+03  0.17357205101E+03 0.  0.
         24    2    3    3    0    0  0.25974695025E+03  0.21003668730E+02 -0.29139204536E+03  0.39851601335E+03  0.77434207769E+02 0.  0.
         -6    2    1    2    0  502 -0.27452594684E+03 -0.73852465238E+02 -0.21343109123E+03  0.39536723620E+03  0.17304259199E+03 0.  0.
        -24    2    5    5    0    0 -0.18298591003E+03 -0.41824402405E+02 -0.58107637334E+02  0.21219289171E+03  0.80101197679E+02 0.  0.
          5    1    3    3  501    0  0.14778996595E+02  0.52848796508E+02 -0.23592903265E+02  0.59917686180E+02  0.47000000000E+01 0. -1.
        -13    1    4    4    0    0  0.22756465769E+02  0.24976863173E+02 -0.25611796705E+02  0.42398874498E+02  0.00000000000E+00 0.  1.
         14    1    4    4    0    0  0.23699048448E+03 -0.39731944434E+01 -0.26578024865E+03  0.35611713885E+03  0.00000000000E+00 0. -1.
         -5    1    5    5    0  502 -0.91540036816E+02 -0.32028062833E+02 -0.15532345390E+03  0.18317434449E+03  0.47000000000E+01 0.  1.
         11    1    6    6    0    0 -0.14313083056E+02 -0.16772590117E+01 -0.34270373170E+02  0.37177090010E+02  0.00000000000E+00 0. -1.
        -12    1    6    6    0    0 -0.16867282697E+03 -0.40147143393E+02 -0.23837264164E+02  0.17501580170E+03  0.00000000000E+00 0.  1.
</event>
<event>
12    1  0.8052519E-002  0.1779205E+03  0.7818608E-02  0.1170136E+00
         21   -1    0    0  501  502  0.00000000000E+00  0.00000000000E+00  0.19995074713E+03  0.19995074713E+03  0.00000000000E+00 0.  1.
         21   -1    0    0  502  503 -0.00000000000E+00 -0.00000000000E+00 -0.20914158646E+03  0.20914158646E+03  0.00000000000E+00 0.  1.
         -6    2    1    2    0  503 -0.96107129664E+01  0.50544352307E+02  0.97310096325E+02  0.20279285833E+03  0.17031908639E+03 0.  0.
        -24    2    3    3    0    0 -0.23479109406E+01  0.99495781522E+02  0.79613515160E+02  0.15002686833E+03  0.79150655078E+02 0.  0.
          6    2    1    2  501    0  0.96107129664E+01 -0.50544352307E+02 -0.10650093565E+03  0.20629947527E+03  0.16902640872E+03 0.  0.
         24    2    5    5    0    0  0.25676000611E+02  0.38228550032E+01  0.21475696150E+01  0.83659863414E+02  0.79501506045E+02 0.  0.
          5    1    5    5  501    0 -0.16065287645E+02 -0.54367207310E+02 -0.10864850527E+03  0.12263961185E+03  0.47000000000E+01 0. -1.
        -11    1    6    6    0    0  0.16064207413E+02  0.97167136795E+01 -0.37770953906E+02  0.42179595109E+02  0.00000000000E+00 0.  1.
         12    1    6    6    0    0  0.96117931982E+01 -0.58938586763E+01  0.39918523521E+02  0.41480268305E+02  0.00000000000E+00 0. -1.
         -5    1    3    3    0  503 -0.72628020258E+01 -0.48951429215E+02  0.17696581165E+02  0.52765989997E+02  0.47000000000E+01 0.  1.
         13    1    4    4    0    0  0.32964737696E+02  0.78515771889E+02  0.62000544517E+02  0.10533502688E+03  0.00000000000E+00 0. -1.
        -14    1    4    4    0    0 -0.35312648636E+02  0.20980009633E+02  0.17612970643E+02  0.44691841456E+02  0.00000000000E+00 0.  1.
</event>
<event>
12    1  0.8052519E-002  0.2304021E+03  0.7818608E-02  0.1126380E+00
         21   -1    0    0  501  502  0.00000000000E+00  0.00000000000E+00  0.95626364596E+02  0.95626364596E+02  0.00000000000E+00 0.  1.
         21   -1    0    0  502  503 -0.00000000000E+00 -0.00000000000E+00 -0.55564159792E+03  0.55564159792E+03  0.00000000000E+00 0. -1.
         -6    2    1    2    0  503 -0.39392061169E+00 -0.15304926490E+03 -0.21743536158E+03  0.31670836266E+03  0.17205178830E+03 0.  0.
        -24    2    3    3    0    0 -0.14079291494E+02 -0.97211489842E+02 -0.22881657486E+03  0.25791407284E+03  0.67188866882E+02 0.  0.
          6    2    1    2  501    0  0.39392061169E+00  0.15304926490E+03 -0.24257987175E+03  0.33455959985E+03  0.17222339858E+03 0.  0.
         24    2    5    5    0    0  0.23609031463E+02  0.14265074641E+03 -0.13708621377E+03  0.22594066765E+03  0.10653606655E+03 0.  0.
          5    1    5    5  501    0 -0.23215110851E+02  0.10398518487E+02 -0.10549365798E+03  0.10861893220E+03  0.47000000000E+01 0. -1.
        -13    1    6    6    0    0  0.26494795069E+02 -0.44946801851E+01 -0.44750669524E+02  0.52199604774E+02  0.00000000000E+00 0.  1.
         14    1    6    6    0    0 -0.28857636061E+01  0.14714542660E+03 -0.92335544245E+02  0.17374106288E+03  0.00000000000E+00 0. -1.
         -5    1    3    3    0  503  0.13685370882E+02 -0.55837775054E+02  0.11381213287E+02  0.58794289817E+02  0.47000000000E+01 0.  1.
         13    1    4    4    0    0 -0.47688397189E+01 -0.90863931094E+02 -0.13128298620E+03  0.15973170716E+03  0.00000000000E+00 0. -1.
        -14    1    4    4    0    0 -0.93104517750E+01 -0.63475587481E+01 -0.97533588661E+02  0.98182365684E+02  0.00000000000E+00 0.  1.
</event>
<event>
12    1  0.8052519E-002  0.2053899E+03  0.7818608E-02  0.1145549E+00
         21   -1    0    0  503  502  0.00000000000E+00  0.00000000000E+00  0.46008673719E+03  0.46008673719E+03  0.00000000000E+00 0. -1.
         21   -1    0    0  501  503 -0.00000000000E+00 -0.00000000000E+00 -0.21665289179E+03  0.21665289179E+03  0.00000000000E+00 0.  1.
          6    2    1    2  501    0  0.79983698516E+01  0.11151282054E+03 -0.13571745289E+03  0.24617928346E+03  0.17229605195E+03 0.  0.
         24    2    3    3    0    0 -0.21031651306E+02  0.13746040586E+03 -0.87070632851E+02  0.18369230551E+03  0.82606745866E+02 0.  0.
         -6    2    1    2    0  502 -0.79983698516E+01 -0.11151282054E+03  0.37915129830E+03  0.43056034552E+03  0.17066757474E+03 0.  0.
        -24    2    5    5    0    0  0.53270740277E+02 -0.41393615229E+02  0.15091228769E+03  0.18401269745E+03  0.80839044362E+02 0.  0.
          5    1    3    3  501    0  0.29030021158E+02 -0.25947585324E+02 -0.48646820041E+02  0.62486977945E+02  0.47000000000E+01 0. -1.
        -13    1    4    4    0    0  0.20422429716E+02  0.37737986353E+02 -0.57454783429E+02  0.71709716136E+02  0.00000000000E+00 0.  1.
         14    1    4    4    0    0 -0.41454081022E+02  0.99722419511E+02 -0.29615849422E+02  0.11198258938E+03  0.00000000000E+00 0. -1.
         -5    1    5    5    0  502 -0.61269110128E+02 -0.70119205311E+02  0.22823901060E+03  0.24654764807E+03  0.47000000000E+01 0.  1.
         13    1    6    6    0    0  0.37767478353E+02 -0.79450436242E+01  0.14049917186E+03  0.14570354640E+03  0.00000000000E+00 0. -1.
        -14    1    6    6    0    0  0.15503261924E+02 -0.33448571605E+02  0.10413115831E+02  0.38309151048E+02  0.00000000000E+00 0.  1.
</event>
<event>
12    1  0.8052519E-002  0.1890901E+03  0.7818608E-02  0.1159411E+00
         21   -1    0    0  501  502  0.00000000000E+00  0.00000000000E+00  0.33444376248E+03  0.33444376248E+03  0.00000000000E+00 0.  1.
         21   -1    0    0  502  503 -0.00000000000E+00 -0.00000000000E+00 -0.22915766404E+03  0.22915766404E+03  0.00000000000E+00 0. -1.
         -6    2    1    2    0  503 -0.23367061844E+02  0.73710660295E+02 -0.15348147937E+03  0.24310847882E+03  0.17194733770E+03 0.  0.
        -24    2    3    3    0    0 -0.25919881118E+02  0.10574839409E+03 -0.67687154124E+02  0.15137141151E+03  0.80480993416E+02 0.  0.
          6    2    1    2  501    0  0.23367061844E+02 -0.73710660295E+02  0.25876757781E+03  0.32049294771E+03  0.17255662602E+03 0.  0.
         24    2    5    5    0    0  0.62936205800E+02 -0.35361324237E+02  0.23866357020E+03  0.26164866292E+03  0.79299015237E+02 0.  0.
          5    1    5    5  501    0 -0.39569143957E+02 -0.38349336058E+02  0.20104007608E+02  0.58844284782E+02  0.47000000000E+01 0. -1.
        -11    1    6    6    0    0  0.39268872349E+02 -0.42466661299E+02  0.68292408876E+02  0.89494775085E+02  0.00000000000E+00 0.  1.
         12    1    6    6    0    0  0.23667333451E+02  0.71053370624E+01  0.17037116132E+03  0.17215388784E+03  0.00000000000E+00 0. -1.
         -5    1    3    3    0  503  0.25528192740E+01 -0.32037733793E+02 -0.85794325245E+02  0.91737067301E+02  0.47000000000E+01 0.  1.
         13    1    4    4    0    0 -0.10473695940E+02  0.96691368312E+02 -0.18465950677E+02  0.98994496550E+02  0.00000000000E+00 0. -1.
        -14    1    4    4    0    0 -0.15446185178E+02  0.90570257757E+01 -0.49221203447E+02  0.52376914965E+02  0.00000000000E+00 0.  1.
</event>
<event>
12    1  0.8052519E-002  0.2730259E+03  0.7818608E-02  0.1099694E+00
         21   -1    0    0  503  502  0.00000000000E+00  0.00000000000E+00  0.16594313702E+03  0.16594313702E+03  0.00000000000E+00 0. -1.
         21   -1    0    0  501  503 -0.00000000000E+00 -0.00000000000E+00 -0.61942661520E+03  0.61942661520E+03  0.00000000000E+00 0. -1.
          6    2    1    2  501    0  0.12903413014E+03 -0.16746620455E+03 -0.43324796224E+03  0.51159495797E+03  0.17126256983E+03 0.  0.
         24    2    3    3    0    0  0.14104071926E+03 -0.88690713836E+02 -0.24012782040E+03  0.30262793831E+03  0.78509691817E+02 0.  0.
         -6    2    1    2    0  502 -0.12903413014E+03  0.16746620455E+03 -0.20235515937E+02  0.27377479426E+03  0.17276696865E+03 0.  0.
        -24    2    5    5    0    0 -0.67391027910E+02  0.42358145677E+02  0.43121701362E+02  0.12051643255E+03  0.79554800225E+02 0.  0.
          5    1    3    3  501    0 -0.12006589112E+02 -0.78775490715E+02 -0.19312014184E+03  0.20896701966E+03  0.47000000000E+01 0. -1.
        -13    1    4    4    0    0  0.54147849650E+02  0.40509690208E-01 -0.11081376577E+03  0.12333564751E+03  0.00000000000E+00 0.  1.
         14    1    4    4    0    0  0.86892869606E+02 -0.88731223526E+02 -0.12931405463E+03  0.17929229080E+03  0.00000000000E+00 0. -1.
         -5    1    5    5    0  502 -0.61643102233E+02  0.12510805887E+03 -0.63357217299E+02  0.15325836170E+03  0.47000000000E+01 0.  1.
         13    1    6    6    0    0 -0.20782504427E+02  0.37157531551E+02 -0.15620450700E+02  0.45349676088E+02  0.00000000000E+00 0. -1.
        -14    1    6    6    0    0 -0.46608523483E+02  0.52006141269E+01  0.58742152062E+02  0.75166756464E+02  0.00000000000E+00 0.  1.
</event>
<event>
12    1  0.8052519E-002  0.1913153E+03  0.7818608E-02  0.1157640E+00
         21   -1    0    0  501  502  0.00000000000E+00  0.00000000000E+00  0.46781190187E+03  0.46781190187E+03  0.00000000000E+00 0.  1.
         21   -1    0    0  502  503 -0.00000000000E+00 -0.00000000000E+00 -0.92048861064E+02  0.92048861064E+02  0.00000000000E+00 0.  1.
         -6    2    1    2    0  503 -0.17849385600E+02  0.81630955226E+02  0.76256873749E+02  0.20446595556E+03  0.17032029465E+03 0.  0.
        -24    2    3    3    0    0  0.13218916752E+02  0.44506909827E+02  0.11112047316E+03  0.14462454246E+03  0.80080546593E+02 0.  0.
          6    2    1    2  501    0  0.17849385600E+02 -0.81630955226E+02  0.29950616705E+03  0.35539480737E+03  0.17210261935E+03 0.  0.
         24    2    5    5    0    0 -0.47122590299E+01 -0.71362697603E+02  0.75411277013E+02  0.12988410992E+03  0.77898532173E+02 0.  0.
          5    1    5    5  501    0  0.22561644629E+02 -0.10268257622E+02  0.22409489004E+03  0.22551069745E+03  0.47000000000E+01 0. -1.
        -13    1    6    6    0    0  0.28976241781E+02 -0.53452901690E+02  0.67634156832E+02  0.90946217388E+02  0.00000000000E+00 0.  1.
         14    1    6    6    0    0 -0.33688500811E+02 -0.17909795914E+02  0.77771201804E+01  0.38937892532E+02  0.00000000000E+00 0. -1.
         -5    1    3    3    0  503 -0.31068302351E+02  0.37124045398E+02 -0.34863599414E+02  0.59841413100E+02  0.47000000000E+01 0.  1.
         11    1    4    4    0    0  0.47064938871E+02  0.26372826704E+02  0.69762500227E+02  0.88189800415E+02  0.00000000000E+00 0. -1.
        -12    1    4    4    0    0 -0.33846022120E+02  0.18134083123E+02  0.41357972936E+02  0.56434742043E+02  0.00000000000E+00 0.  1.
</event>
<event>
12    1  0.8052519E-002  0.1980397E+03  0.7818608E-02  0.1151530E+00
         21   -1    0    0  501  502  0.00000000000E+00  0.00000000000E+00  0.20973473398E+03  0.20973473398E+03  0.00000000000E+00 0. -1.
         21   -1    0    0  502  503 -0.00000000000E+00 -0.00000000000E+00 -0.18668546964E+03  0.18668546964E+03  0.00000000000E+00 0. -1.
         -6    2    1    2    0  503  0.40215824031E+02 -0.89509230405E+02  0.18774180952E+02  0.19892761881E+03  0.17201893159E+03 0.  0.
        -24    2    3    3    0    0  0.88627801859E+02 -0.75417396308E+02 -0.13323004852E+02  0.13897247957E+03  0.74787543683E+02 0.  0.
          6    2    1    2  501    0 -0.40215824031E+02  0.89509230405E+02  0.42750833857E+01  0.19749258480E+03  0.17133543091E+03 0.  0.
         24    2    5    5    0    0  0.11133326909E+02  0.50980895379E+02 -0.53542009851E+02  0.11097048258E+03  0.82004259182E+02 0.  0.
          5    1    5    5  501    0 -0.51349150940E+02  0.38528335025E+02  0.57817093237E+02  0.86522102219E+02  0.47000000000E+01 0. -1.
        -13    1    6    6    0    0  0.35991695051E+02  0.10057399432E+02 -0.50726673384E+02  0.63005942486E+02  0.00000000000E+00 0.  1.
         14    1    6    6    0    0 -0.24858368142E+02  0.40923495947E+02 -0.28153364672E+01  0.47964540096E+02  0.00000000000E+00 0. -1.
         -5    1    3    3    0  503 -0.48411977828E+02 -0.14091834097E+02  0.32097185804E+02  0.59955139246E+02  0.47000000000E+01 0.  1.
         13    1    4    4    0    0  0.67141720212E+02 -0.47828502967E+02 -0.43118912778E+02  0.93031268551E+02  0.00000000000E+00 0. -1.
        -14    1    4    4    0    0  0.21486081647E+02 -0.27588893341E+02  0.29795907926E+02  0.45941211014E+02  0.00000000000E+00 0.  1.
</event>
<event>
12    1  0.8052519E-002  0.3597438E+03  0.7818608E-02  0.1058788E+00
         21   -1    0    0  503  502  0.00000000000E+00  0.00000000000E+00  0.97674446637E+03  0.97674446637E+03  0.00000000000E+00 0.  1.
         21   -1    0    0  501  503 -0.00000000000E+00 -0.00000000000E+00 -0.24284239104E+03  0.24284239104E+03  0.00000000000E+00 0. -1.
          6    2    1    2  501    0 -0.16920370045E+03  0.26697964765E+03 -0.45094217565E+02  0.36153624540E+03  0.16960820668E+03 0.  0.
         24    2    3    3    0    0 -0.12430361611E+03  0.11221941981E+03 -0.46633088579E+02  0.20031836854E+03  0.99540025430E+02 0.  0.
         -6    2    1    2    0  502  0.16920370045E+03 -0.26697964765E+03  0.77899629290E+03  0.85805061202E+03  0.17177777485E+03 0.  0.
        -24    2    5    5    0    0  0.90989211683E+02 -0.22331080091E+03  0.45405557474E+03  0.52095561837E+03  0.84151891895E+02 0.  0.
          5    1    3    3  501    0 -0.44900084333E+02  0.15476022784E+03  0.15388710144E+01  0.16121787686E+03  0.47000000000E+01 0. -1.
        -11    1    4    4    0    0 -0.47127495652E+02  0.74817409475E+02 -0.68454302965E+02  0.11182413515E+03  0.00000000000E+00 0.  1.
         12    1    4    4    0    0 -0.77176120460E+02  0.37402010335E+02  0.21821214385E+02  0.88494233392E+02  0.00000000000E+00 0. -1.
         -5    1    5    5    0  502  0.78214488763E+02 -0.43668846740E+02  0.32494071815E+03  0.33709499365E+03  0.47000000000E+01 0.  1.
         13    1    6    6    0    0  0.68763991506E+01  0.67812295081E+01  0.10677343157E+02  0.14397069001E+02  0.00000000000E+00 0. -1.
        -14    1    6    6    0    0  0.84112812532E+02 -0.23009203042E+03  0.44337823159E+03  0.50655854937E+03  0.00000000000E+00 0.  1.
</event>
<event>
12    1  0.8052519E-002  0.1801389E+03  0.7818608E-02  0.1167739E+00
         21   -1    0    0  503  502  0.00000000000E+00  0.00000000000E+00  0.21065993766E+03  0.21065993766E+03  0.00000000000E+00 0. -1.
         21   -1    0    0  501  503 -0.00000000000E+00 -0.00000000000E+00 -0.28040054192E+03  0.28040054192E+03  0.00000000000E+00 0. -1.
          6    2    1    2  501    0  0.48957646623E+02 -0.19716742961E+02 -0.19987173913E+03  0.26907012553E+03  0.17223361818E+03 0.  0.
         24    2    3    3    0    0  0.92392205827E+02  0.13196006310E+02 -0.13545998532E+03  0.18456702483E+03  0.83696623303E+02 0.  0.
         -6    2    1    2    0  502 -0.48957646623E+02  0.19716742961E+02  0.13013113488E+03  0.22199035406E+03  0.17193022978E+03 0.  0.
        -24    2    5    5    0    0 -0.39123054570E+02  0.68339547508E+02  0.13134679025E+03  0.17214595476E+03  0.78621519181E+02 0.  0.
          5    1    3    3  501    0 -0.43434559204E+02 -0.32912749270E+02 -0.64411753814E+02  0.84503100696E+02  0.47000000000E+01 0. -1.
        -13    1    4    4    0    0  0.13669776560E+02  0.20684289974E+02  0.31437149467E+01  0.24991710357E+02  0.00000000000E+00 0.  1.
         14    1    4    4    0    0  0.78722429267E+02 -0.74882836645E+01 -0.13860370027E+03  0.15957531448E+03  0.00000000000E+00 0. -1.
         -5    1    5    5    0  502 -0.98345920529E+01 -0.48622804547E+02 -0.12156553795E+01  0.49844399293E+02  0.47000000000E+01 0.  1.
         11    1    6    6    0    0 -0.38570709857E+02  0.31050153469E+02  0.12482388782E+03  0.13428631598E+03  0.00000000000E+00 0. -1.
        -12    1    6    6    0    0 -0.55234471323E+00  0.37289394038E+02  0.65229024342E+01  0.37859638780E+02  0.00000000000E+00 0.  1.
</event>
<event>
12    1  0.8052519E-002  0.1930326E+03  0.7818608E-02  0.1156142E+00
         21   -1    0    0  501  502  0.00000000000E+00  0.00000000000E+00  0.12132320842E+03  0.12132320842E+03  0.00000000000E+00 0. -1.
         21   -1    0    0  502  503 -0.00000000000E+00 -0.00000000000E+00 -0.50068098976E+03  0.50068098976E+03  0.00000000000E+00 0.  1.
         -6    2    1    2    0  503 -0.27517456734E+02 -0.84448108235E+02 -0.38495127653E+03  0.43063798564E+03  0.17138522681E+03 0.  0.
        -24    2    3    3    0    0 -0.38778226486E+02 -0.62276262470E+02 -0.38963330544E+03  0.40490071549E+03  0.82148603043E+02 0.  0.
          6    2    1    2  501    0  0.27517456734E+02  0.84448108235E+02  0.55934951875E+01  0.19136621254E+03  0.16941383268E+03 0.  0.
         24    2    5    5    0    0  0.18591193050E+02 -0.30615220141E+01  0.46036499208E+02  0.94436649745E+02  0.80274006875E+02 0.  0.
          5    1    5    5  501    0  0.89262636843E+01  0.87509630249E+02 -0.40443004020E+02  0.96929562797E+02  0.47000000000E+01 0. -1.
        -11    1    6    6    0    0  0.26406351806E+02 -0.32476814871E+02  0.33233840037E+01  0.41989091454E+02  0.00000000000E+00 0.  1.
         12    1    6    6    0    0 -0.78151587566E+01  0.29415292857E+02  0.42713115204E+02  0.52447558291E+02  0.00000000000E+00 0. -1.
         -5    1    3    3    0  503  0.11260769752E+02 -0.22171845765E+02  0.46820289112E+01  0.25737270150E+02  0.47000000000E+01 0.  1.
         13    1    4    4    0    0 -0.44914363125E+01 -0.32142211769E+01  0.30594467765E+01  0.63138286721E+01  0.00000000000E+00 0. -1.
        -14    1    4    4    0    0 -0.34286790173E+02 -0.59062041293E+02 -0.39269275222E+03  0.39858688682E+03  0.00000000000E+00 0.  1.
</event>
<event>
12    1  0.8052519E-002  0.1766413E+03  0.7818608E-02  0.1171397E+00
         21   -1    0    0  503  502  0.00000000000E+00  0.00000000000E+00  0.18876719935E+03  0.18876719935E+03  0.00000000000E+00 0. -1.
         21   -1    0    0  501  503 -0.00000000000E+00 -0.00000000000E+00 -0.16539301728E+03  0.16539301728E+03  0.00000000000E+00 0. -1.
          6    2    1    2  501    0 -0.32066905368E+02  0.43138465182E+01  0.27047226444E+02  0.17870007605E+03  0.17365272537E+03 0.  0.
         24    2    3    3    0    0 -0.28456451444E+02  0.66451548091E+02 -0.92122178402E+01  0.10651305066E+03  0.77682605073E+02 0.  0.
         -6    2    1    2    0  502  0.32066905368E+02 -0.43138465182E+01 -0.36730443689E+01  0.17546014058E+03  0.17241193111E+03 0.  0.
        -24    2    5    5    0    0 -0.21500187176E+02  0.54502573209E+02 -0.23896708543E+00  0.95693684478E+02  0.75660000057E+02 0.  0.
          5    1    3    3  501    0 -0.36104539237E+01 -0.62137701572E+02  0.36259444284E+02  0.72187025386E+02  0.47000000000E+01 0. -1.
        -13    1    4    4    0    0 -0.15070698729E+02  0.39507370393E+02 -0.43658039832E+02  0.60778143420E+02  0.00000000000E+00 0.  1.
         14    1    4    4    0    0 -0.13385752715E+02  0.26944177697E+02  0.34445821992E+02  0.45734907240E+02  0.00000000000E+00 0. -1.
         -5    1    5    5    0  502  0.53567092544E+02 -0.58816419727E+02 -0.34340772834E+01  0.79766456107E+02  0.47000000000E+01 0.  1.
         13    1    6    6    0    0 -0.36145476801E+02  0.42197525609E+01  0.17524871728E+02  0.40390876865E+02  0.00000000000E+00 0. -1.
        -14    1    6    6    0    0  0.14645289625E+02  0.50282820648E+02 -0.17763838813E+02  0.55302807613E+02  0.00000000000E+00 0.  1.
</event>
<event>
12    1  0.8052519E-002  0.3101833E+03  0.7818608E-02  0.1080293E+00
         21   -1    0    0  501  502  0.00000000000E+00  0.00000000000E+00  0.20664355503E+03  0.20664355503E+03  0.00000000000E+00 0.  1.
         21   -1    0    0  502  503 -0.00000000000E+00 -0.00000000000E+00 -0.85936308997E+03  0.85936308997E+03  0.00000000000E+00 0. -1.
         -6    2    1    2    0  503 -0.22522139121E+03  0.12572610809E+03 -0.68743637164E+03  0.75417664764E+03  0.17228442027E+03 0.  0.
        -24    2    3    3    0    0 -0.14593967318E+03  0.76451992075E+02 -0.59655032187E+03  0.62380834871E+03  0.78238571653E+02 0.  0.
          6    2    1    2  501    0  0.22522139121E+03 -0.12572610809E+03  0.34716836698E+02  0.31182999736E+03  0.17175843267E+03 0.  0.
         24    2    5    5    0    0  0.19342435636E+03 -0.96885840870E+02  0.84495443248E+02  0.24592998137E+03  0.80884040517E+02 0.  0.
          5    1    5    5  501    0  0.31797034846E+02 -0.28840267220E+02 -0.49778606550E+02  0.65900015997E+02  0.47000000000E+01 0. -1.
        -11    1    6    6    0    0  0.64024726298E+02 -0.70988195519E+02  0.14939874350E+02  0.96755823216E+02  0.00000000000E+00 0.  1.
         12    1    6    6    0    0  0.12939963006E+03 -0.25897645351E+02  0.69555568898E+02  0.14917415815E+03  0.00000000000E+00 0. -1.
         -5    1    3    3    0  503 -0.79281718024E+02  0.49274116015E+02 -0.90886049772E+02  0.13036829893E+03  0.47000000000E+01 0.  1.
         13    1    4    4    0    0 -0.11163920802E+02  0.38067966361E+02 -0.92672412706E+02  0.10080664297E+03  0.00000000000E+00 0. -1.
        -14    1    4    4    0    0 -0.13477575238E+03  0.38384025714E+02 -0.50387790916E+03  0.52300170574E+03  0.00000000000E+00 0.  1.
</event>
<event>
12    1  0.8052519E-002  0.2392612E+03  0.7818608E-02  0.1120453E+00
         21   -1    0    0  503  502  0.00000000000E+00  0.00000000000E+00  0.27046218297E+03  0.27046218297E+03  0.00000000000E+00 0.  1.
         21   -1    0    0  501  503 -0.00000000000E+00 -0.00000000000E+00 -0.21158265379E+03  0.21158265379E+03  0.00000000000E+00 0.  1.
          6    2    1    2  501    0  0.10582120596E+03 -0.12599227799E+03  0.44374900645E+02  0.24334146087E+03  0.17370593837E+03 0.  0.
         24    2    3    3    0    0  0.32283274551E+02 -0.77867018619E+02  0.81824821826E+02  0.14769390710E+03  0.89513721418E+02 0.  0.
         -6    2    1    2    0  502 -0.10582120596E+03  0.12599227799E+03  0.14504628534E+02  0.23870337589E+03  0.17232740835E+03 0.  0.
        -24    2    5    5    0    0 -0.32799821471E+02  0.34621968858E+01  0.36340186266E+02  0.94326698586E+02  0.80554961563E+02 0.  0.
          5    1    3    3  501    0  0.73537931409E+02 -0.48125259374E+02 -0.37449921180E+02  0.95647553770E+02  0.47000000000E+01 0. -1.
        -13    1    4    4    0    0  0.16425434793E+02 -0.60009942741E+02 -0.24725633940E+00  0.62217756884E+02  0.00000000000E+00 0.  1.
         14    1    4    4    0    0  0.15857839758E+02 -0.17857075877E+02  0.82072078165E+02  0.85476150212E+02  0.00000000000E+00 0. -1.
         -5    1    5    5    0  502 -0.73021384490E+02  0.12253008111E+03 -0.21835557732E+02  0.14437667731E+03  0.47000000000E+01 0.  1.
         11    1    6    6    0    0 -0.16384602371E+02  0.85185956883E+01  0.61303756046E+02  0.64024777803E+02  0.00000000000E+00 0. -1.
        -12    1    6    6    0    0 -0.16415219099E+02 -0.50563988025E+01 -0.24963569780E+02  0.30301920782E+02  0.00000000000E+00 0.  1.
</event>
<event>
12    1  0.8052519E-002  0.1856091E+03  0.7818608E-02  0.1163164E+00
         21   -1    0    0  503  502  0.00000000000E+00  0.00000000000E+00  0.18484056575E+03  0.18484056575E+03  0.00000000000E+00 0. -1.
         21   -1    0    0  501  503 -0.00000000000E+00 -0.00000000000E+00 -0.91584586549E+03  0.91584586549E+03  0.00000000000E+00 0.  1.
          6    2    1    2  501    0 -0.61227416180E+02  0.24722538411E+02 -0.85706181318E+03  0.87631849910E+03  0.17035010966E+03 0.  0.
         24    2    3    3    0    0 -0.41819386702E+02 -0.51568848212E+02 -0.51448660748E+03  0.52478342427E+03  0.79328216268E+02 0.  0.
         -6    2    1    2    0  502  0.61227416180E+02 -0.24722538411E+02  0.12605651344E+03  0.22436793213E+03  0.17346678066E+03 0.  0.
        -24    2    5    5    0    0  0.43302392412E+02 -0.29778201229E+02  0.15937802174E+03  0.18590653436E+03  0.79987794364E+02 0.  0.
          5    1    3    3  501    0 -0.19408029478E+02  0.76291386622E+02 -0.34257520570E+03  0.35153507484E+03  0.47000000000E+01 0. -1.
        -11    1    4    4    0    0  0.38492361237E+01 -0.14623085458E+02 -0.34636650735E+03  0.34669642147E+03  0.00000000000E+00 0.  1.
         12    1    4    4    0    0 -0.45668622826E+02 -0.36945762754E+02 -0.16812010014E+03  0.17808700280E+03  0.00000000000E+00 0. -1.
         -5    1    5    5    0  502  0.17925023768E+02  0.50556628182E+01 -0.33321508298E+02  0.38461397776E+02  0.47000000000E+01 0.  1.
         11    1    6    6    0    0  0.57972091003E+02  0.11488092291E+01  0.12285314198E+03  0.13584909861E+03  0.00000000000E+00 0. -1.
        -12    1    6    6    0    0 -0.14669698592E+02 -0.30927010458E+02  0.36524879752E+02  0.50057435747E+02  0.00000000000E+00 0.  1.
</event>
<event>
12    1  0.8052519E-002  0.2121407E+03  0.7818608E-02  0.1139987E+00
         21   -1    0    0  503  502  0.00000000000E+00  0.00000000000E+00  0.12255311121E+03  0.12255311121E+03  0.00000000000E+00 0.  1.
         21   -1    0    0  501  503 -0.00000000000E+00 -0.00000000000E+00 -0.54674820914E+03  0.54674820914E+03  0.00000000000E+00 0.  1.
          6    2    1    2  501    0 -0.10077508973E+03  0.72015352436E+02 -0.40417633226E+03  0.45621813228E+03  0.17156528484E+03 0.  0.
         24    2    3    3    0    0 -0.92204116022E+02  0.25623210010E+02 -0.38594673293E+03  0.40542344003E+03  0.79089425102E+02 0.  0.
         -6    2    1    2    0  502  0.10077508973E+03 -0.72015352436E+02 -0.20018765662E+02  0.21308318807E+03  0.17222620116E+03 0.  0.
        -24    2    5    5    0    0  0.68244771910E+02 -0.55155503550E+02 -0.79570044019E+02  0.14300522552E+03  0.80122557099E+02 0.  0.
          5    1    3    3  501    0 -0.85709737040E+01  0.46392142427E+02 -0.18229599337E+02  0.50794692254E+02  0.47000000000E+01 0. -1.
        -11    1    4    4    0    0 -0.79351229879E+02 -0.15679777893E+02 -0.25366430193E+03  0.26624810083E+03  0.00000000000E+00 0.  1.
         12    1    4    4    0    0 -0.12852886143E+02  0.41302987903E+02 -0.13228243099E+03  0.13917533920E+03  0.00000000000E+00 0. -1.
         -5    1    5    5    0  502  0.32530317816E+02 -0.16859848886E+02  0.59551278357E+02  0.70077962554E+02  0.47000000000E+01 0.  1.
         13    1    6    6    0    0  0.44256012515E+01  0.13478055954E+02  0.66413780527E+01  0.15663710965E+02  0.00000000000E+00 0. -1.
        -14    1    6    6    0    0  0.63819170659E+02 -0.68633559504E+02 -0.86211422072E+02  0.12734151456E+03  0.00000000000E+00 0.  1.
</event>
<event>
12    1  0.8052519E-002  0.1860174E+03  0.7818608E-02  0.1162566E+00
         21   -1    0    0  501  502  0.00000000000E+00  0.00000000000E+00  0.63147770621E+03  0.63147770621E+03  0.00000000000E+00 0.  1.
         21   -1    0    0  502  503 -0.00000000000E+00 -0.00000000000E+00 -0.55465309694E+02  0.55465309694E+02  0.00000000000E+00 0.  1.
         -6    2    1    2    0  503  0.70726002900E+02 -0.38244284557E+01  0.23790772822E+03  0.30199761631E+03  0.17200488183E+03 0.  0.
        -24    2    3    3    0    0 -0.99274414142E+01  0.40592414041E+02  0.14371290874E+03  0.17019250263E+03  0.81029560294E+02 0.  0.
          6    2    1    2  501    0 -0.70726002900E+02  0.38244284557E+01  0.33810466829E+03  0.38494539959E+03  0.16985699927E+03 0.  0.
         24    2    5    5    0    0 -0.10795645355E+03  0.29846142700E+02  0.26888136546E+03  0.30201656430E+03  0.79821227258E+02 0.  0.
          5    1    5    5  501    0  0.37230450646E+02 -0.26021714244E+02  0.69223302831E+02  0.82928835289E+02  0.47000000000E+01 0. -1.
        -11    1    6    6    0    0 -0.49451959944E+02  0.49811323131E+02  0.18460980767E+03  0.19750302616E+03  0.00000000000E+00 0.  1.
         12    1    6    6    0    0 -0.58504493602E+02 -0.19965180431E+02  0.84271557793E+02  0.10451353814E+03  0.00000000000E+00 0. -1.
         -5    1    3    3    0  503  0.80653444314E+02 -0.44416842497E+02  0.94194819474E+02  0.13180511368E+03  0.47000000000E+01 0.  1.
         13    1    4    4    0    0 -0.18011274685E+01  0.65078751334E+02  0.96866696467E+02  0.11671180240E+03  0.00000000000E+00 0. -1.
        -14    1    4    4    0    0 -0.81263139457E+01 -0.24486337293E+02  0.46846212275E+02  0.53480700228E+02  0.00000000000E+00 0.  1.
</event>
<event>
12    1  0.8052519E-002  0.1776549E+03  0.7818608E-02  0.1170451E+00
         21   -1    0    0  503  502  0.00000000000E+00  0.00000000000E+00  0.19259954247E+02  0.19259954247E+02  0.00000000000E+00 0. -1.
         21   -1    0    0  501  503 -0.00000000000E+00 -0.00000000000E+00 -0.16409351480E+04  0.16409351480E+04  0.00000000000E+00 0. -1.
          6    2    1    2  501    0  0.39914494911E+02 -0.96137514236E+01 -0.89505236487E+03  0.91251301220E+03  0.17284579967E+03 0.  0.
         24    2    3    3    0    0  0.82832308185E+02 -0.38996998053E+02 -0.52555652003E+03  0.53934470804E+03  0.79379475996E+02 0.  0.
         -6    2    1    2    0  502 -0.39914494911E+02  0.96137514236E+01 -0.72662282890E+03  0.74768209006E+03  0.17135396464E+03 0.  0.
        -24    2    5    5    0    0 -0.24723333703E+02 -0.47170271881E+02 -0.25695906788E+03  0.27433091483E+03  0.79957554262E+02 0.  0.
          5    1    3    3  501    0 -0.42917813274E+02  0.29383246629E+02 -0.36949584484E+03  0.37316830417E+03  0.47000000000E+01 0. -1.
        -11    1    4    4    0    0  0.26085643370E+02 -0.12300273929E+02 -0.37661409427E+02  0.47435633113E+02  0.00000000000E+00 0.  1.
         12    1    4    4    0    0  0.56746664815E+02 -0.26696724124E+02 -0.48789511060E+03  0.49190907493E+03  0.00000000000E+00 0. -1.
         -5    1    5    5    0  502 -0.15191161208E+02  0.56784023304E+02 -0.46966376102E+03  0.47335117523E+03  0.47000000000E+01 0.  1.
         11    1    6    6    0    0 -0.12240566809E+02  0.62470290818E+01 -0.24276695577E+01  0.13955301059E+02  0.00000000000E+00 0. -1.
        -12    1    6    6    0    0 -0.12482766894E+02 -0.53417300962E+02 -0.25453139833E+03  0.26037561377E+03  0.00000000000E+00 0.  1.
</event>
<event>
12    1  0.8052519E-002  0.2812766E+03  0.7818608E-02  0.1096187E+00
         21   -1    0    0  501  502  0.00000000000E+00  0.00000000000E+00  0.47379809147E+03  0.47379809147E+03  0.00000000000E+00 0. -1.
         21   -1    0    0  502  503 -0.00000000000E+00 -0.00000000000E+00 -0.36005986377E+03  0.36005986377E+03  0.00000000000E+00 0. -1.
         -6    2    1    2    0  503 -0.17186133597E+03  0.12309049893E+03 -0.25282339141E+03  0.37181470043E+03  0.17215956112E+03 0.  0.
        -24    2    3    3    0    0 -0.53648304281E+02 -0.54469712676E+01 -0.11095472100E+03  0.14677023427E+03  0.79515668314E+02 0.  0.
          6    2    1    2  501    0  0.17186133597E+03 -0.12309049893E+03  0.36656161911E+03  0.46204325480E+03  0.18555042166E+03 0.  0.
         24    2    5    5    0    0 -0.13639187193E+01 -0.39985613871E+02  0.13127710650E+03  0.15824348085E+03  0.78782047119E+02 0.  0.
          5    1    5    5  501    0  0.17322525469E+03 -0.83104885059E+02  0.23528451261E+03  0.30379977396E+03  0.47000000000E+01 0. -1.
        -13    1    6    6    0    0  0.10829684221E+02 -0.42422264206E+02  0.13752584350E+03  0.14432701823E+03  0.00000000000E+00 0.  1.
         14    1    6    6    0    0 -0.12193602941E+02  0.24366503354E+01 -0.62487370029E+01  0.13916462613E+02  0.00000000000E+00 0. -1.
         -5    1    3    3    0  503 -0.11821303169E+03  0.12853747020E+03 -0.14186867042E+03  0.22504446617E+03  0.47000000000E+01 0.  1.
         13    1    4    4    0    0 -0.25295450336E+02  0.27741411208E+02 -0.91650625628E+02  0.99041823901E+02  0.00000000000E+00 0. -1.
        -14    1    4    4    0    0 -0.28352853944E+02 -0.33188382476E+02 -0.19304095368E+02  0.47728410367E+02  0.00000000000E+00 0.  1.
</event>
<event>
12    1  0.8052519E-002  0.1924736E+03  0.7818608E-02  0.1156569E+00
         21   -1    0    0  501  502  0.00000000000E+00  0.00000000000E+00  0.13698338072E+03  0.13698338072E+03  0.00000000000E+00 0.  1.
         21   -1    0    0  502  503 -0.00000000000E+00 -0.00000000000E+00 -0.39419613040E+03  0.39419613040E+03  0.00000000000E+00 0.  1.
         -6    2    1    2    0  503 -0.69224796482E+02  0.46544950504E+02 -0.27829432761E+03  0.33755484897E+03  0.17186342955E+03 0.  0.
        -24    2    3    3    0    0  0.10670572286E+02 -0.13498127418E+02 -0.70543681911E+02  0.10696677047E+03  0.78545645142E+02 0.  0.
          6    2    1    2  501    0  0.69224796482E+02 -0.46544950504E+02  0.21081577929E+02  0.19362466216E+03  0.17345769514E+03 0.  0.
         24    2    5    5    0    0 -0.12001919043E+01  0.22654523170E+02 -0.22006949690E+02  0.85796292242E+02  0.79762334765E+02 0.  0.
          5    1    5    5  501    0  0.70424988387E+02 -0.69199473674E+02  0.43088527618E+02  0.10782836991E+03  0.47000000000E+01 0. -1.
        -11    1    6    6    0    0 -0.18821714944E+02  0.44125339760E+02  0.34811736828E+01  0.48098036681E+02  0.00000000000E+00 0.  1.
         12    1    6    6    0    0  0.17621523040E+02 -0.21470816590E+02 -0.25488123372E+02  0.37698255561E+02  0.00000000000E+00 0. -1.
         -5    1    3    3    0  503 -0.79895368768E+02  0.60043077922E+02 -0.20775064570E+03  0.23058807849E+03  0.47000000000E+01 0.  1.
         13    1    4    4    0    0 -0.28461722007E+01  0.31085700444E+02 -0.15493617736E+02  0.34849299259E+02  0.00000000000E+00 0. -1.
        -14    1    4    4    0    0  0.13516744487E+02 -0.44583827862E+02 -0.55050064175E+02  0.72117471212E+02  0.00000000000E+00 0.  1.
</event>
<event>
12    1  0.8052519E-002  0.1857907E+03  0.7818608E-02  0.1162955E+00
         21   -1    0    0  501  502  0.00000000000E+00  0.00000000000E+00  0.91309503100E+02  0.91309503100E+02  0.00000000000E+00 0. -1.
         21   -1    0    0  502  503 -0.00000000000E+00 -0.00000000000E+00 -0.52112347370E+03  0.52112347370E+03  0.00000000000E+00 0. -1.
         -6    2    1    2    0  503 -0.57429708945E+02  0.38118453652E+02 -0.37730647551E+03  0.41936504737E+03  0.16957499379E+03 0.  0.
        -24    2    3    3    0    0 -0.16685894730E+02  0.25516880910E+02 -0.36461616642E+03  0.37462142238E+03  0.80415987215E+02 0.  0.
          6    2    1    2  501    0  0.57429708945E+02 -0.38118453652E+02 -0.52507495089E+02  0.19306792943E+03  0.17253115763E+03 0.  0.
         24    2    5    5    0    0 -0.85042976712E+01  0.52040129380E+01 -0.76212297888E+02  0.11055649376E+03  0.79467094659E+02 0.  0.
          5    1    5    5  501    0  0.65934006616E+02 -0.43322466590E+02  0.23704802799E+02  0.82511435666E+02  0.47000000000E+01 0. -1.
        -11    1    6    6    0    0  0.20771608517E+02 -0.81768458854E+01 -0.75100942484E+02  0.78348401968E+02  0.00000000000E+00 0.  1.
         12    1    6    6    0    0 -0.29275906188E+02  0.13380858823E+02 -0.11113554038E+01  0.32208091791E+02  0.00000000000E+00 0. -1.
         -5    1    3    3    0  503 -0.40743814215E+02  0.12601572743E+02 -0.12690309088E+02  0.44743624988E+02  0.47000000000E+01 0.  1.
         11    1    4    4    0    0  0.32504654756E+02  0.68364065079E+01 -0.15264449509E+03  0.15621661536E+03  0.00000000000E+00 0. -1.
        -12    1    4    4    0    0 -0.49190549486E+02  0.18680474402E+02 -0.21197167133E+03  0.21840480702E+03  0.00000000000E+00 0.  1.
</event>
<event>
12    1  0.8052519E-002  0.1840613E+03  0.7818608E-02  0.1163937E+00
         21   -1    0    0  503  502  0.00000000000E+00  0.00000000000E+00  0.31216068415E+03  0.31216068415E+03  0.00000000000E+00 0.  1.
         21   -1    0    0  501  503 -0.00000000000E+00 -0.00000000000E+00 -0.16024900307E+03  0.16024900307E+03  0.00000000000E+00 0.  1.
          6    2    1    2  501    0  0.45783899158E+01 -0.62683057304E+02 -0.58262028934E+02  0.19303264162E+03  0.17296534158E+03 0.  0.
         24    2    3    3    0    0 -0.73652917979E+01 -0.65206446311E+02  0.26517781495E+02  0.10724962884E+03  0.80580158774E+02 0.  0.
         -6    2    1    2    0  502 -0.45783899158E+01  0.62683057304E+02  0.21017371002E+03  0.27937704560E+03  0.17299831761E+03 0.  0.
        -24    2    5    5    0    0 -0.50062064626E+02  0.17682199467E+02  0.51365828437E+02  0.10809985761E+03  0.78919328383E+02 0.  0.
          5    1    3    3  501    0  0.11943681714E+02  0.25233890074E+01 -0.84779810429E+02  0.85783012778E+02  0.47000000000E+01 0. -1.
        -11    1    4    4    0    0 -0.22271039073E+02 -0.34691769569E+02 -0.22998463303E+02  0.47206433582E+02  0.00000000000E+00 0.  1.
         12    1    4    4    0    0  0.14905747275E+02 -0.30514676742E+02  0.49516244797E+02  0.60043195263E+02  0.00000000000E+00 0. -1.
         -5    1    5    5    0  502  0.45483674710E+02  0.45000857836E+02  0.15880788158E+03  0.17127718798E+03  0.47000000000E+01 0.  1.
         11    1    6    6    0    0  0.11436014214E+02 -0.19945089059E+02  0.13578566060E+02  0.26701431702E+02  0.00000000000E+00 0. -1.
        -12    1    6    6    0    0 -0.61498078840E+02  0.37627288527E+02  0.37787262377E+02  0.81398425911E+02  0.00000000000E+00 0.  1.
</event>
<event>
12    1  0.8052519E-002  0.1931443E+03  0.7818608E-02  0.1156617E+00
         21   -1    0    0  503  502  0.00000000000E+00  0.00000000000E+00  0.78246662695E+03  0.78246662695E+03  0.00000000000E+00 0. -1.
         21   -1    0    0  501  503 -0.00000000000E+00 -0.00000000000E+00 -0.63800373478E+02  0.63800373478E+02  0.00000000000E+00 0. -1.
          6    2    1    2  501    0  0.80031526831E+02  0.18064608336E+01  0.13680242752E+03  0.23318443472E+03  0.17103148199E+03 0.  0.
         24    2    3    3    0    0  0.29495119180E+02 -0.52054089519E+02  0.12391893885E+03  0.15806478574E+03  0.77775206813E+02 0.  0.
         -6    2    1    2    0  502 -0.80031526831E+02 -0.18064608336E+01  0.58186382596E+03  0.61308256571E+03  0.17577375185E+03 0.  0.
        -24    2    5    5    0    0 -0.80947331085E+02 -0.54907531008E+02  0.28557420771E+03  0.31203408086E+03  0.79027413845E+02 0.  0.
          5    1    3    3  501    0  0.50536407651E+02  0.53860550352E+02  0.12883488675E+02  0.75119648981E+02  0.47000000000E+01 0. -1.
        -13    1    4    4    0    0  0.42136035795E+02 -0.30225946338E+02  0.28097669725E+02  0.58979084331E+02  0.00000000000E+00 0.  1.
         14    1    4    4    0    0 -0.12640916614E+02 -0.21828143181E+02  0.95821269121E+02  0.99085701408E+02  0.00000000000E+00 0. -1.
         -5    1    5    5    0  502  0.91580425349E+00  0.53101070175E+02  0.29628961825E+03  0.30104848485E+03  0.47000000000E+01 0.  1.
         11    1    6    6    0    0 -0.55633900672E+02 -0.19202308734E+02  0.24628136688E+03  0.25321605643E+03  0.00000000000E+00 0. -1.
        -12    1    6    6    0    0 -0.25313430413E+02 -0.35705222275E+02  0.39292840832E+02  0.58818024428E+02  0.00000000000E+00 0.  1.
</event>
<event>
12    1  0.8052519E-002  0.1828171E+03  0.7818608E-02  0.1165829E+00
         21   -1    0    0  503  502  0.00000000000E+00  0.00000000000E+00  0.16533030358E+03  0.16533030358E+03  0.00000000000E+00 0. -1.
         21   -1    0    0  501  503 -0.00000000000E+00 -0.00000000000E+00 -0.23296847119E+03  0.23296847119E+03  0.00000000000E+00 0. -1.
          6    2    1    2  501    0  0.38546438976E+02  0.33363683699E+02 -0.11030671515E+03  0.21351738065E+03  0.17556519326E+03 0.  0.
         24    2    3    3    0    0  0.91462425469E+02  0.18148402423E+01 -0.66289173576E+02  0.13765523517E+03  0.78651384722E+02 0.  0.
         -6    2    1    2    0  502 -0.38546438976E+02 -0.33363683699E+02  0.42668547536E+02  0.18478139412E+03  0.17240822288E+03 0.  0.
        -24    2    5    5    0    0  0.19245983672E+02 -0.18045210787E+02  0.77919485776E+02  0.11521604086E+03  0.80667541727E+02 0.  0.
          5    1    3    3  501    0 -0.52915986493E+02  0.31548843457E+02 -0.44017541575E+02  0.75862145477E+02  0.47000000000E+01 0. -1.
        -13    1    4    4    0    0 -0.40535927104E+00  0.15185166805E+02  0.94097048915E+01  0.17868859874E+02  0.00000000000E+00 0.  1.
         14    1    4    4    0    0  0.91867784740E+02 -0.13370326563E+02 -0.75698878467E+02  0.11978637530E+03  0.00000000000E+00 0. -1.
         -5    1    5    5    0  502 -0.57792422648E+02 -0.15318472912E+02 -0.35250938240E+02  0.69565353263E+02  0.47000000000E+01 0.  1.
         13    1    6    6    0    0  0.13781462549E+01 -0.48335835858E+02  0.34811804723E+02  0.59582833629E+02  0.00000000000E+00 0. -1.
        -14    1    6    6    0    0  0.17867837417E+02  0.30290625071E+02  0.43107681053E+02  0.55633207232E+02  0.00000000000E+00 0.  1.
</event>
<event>
12    1  0.8052519E-002  0.1841410E+03  0.7818608E-02  0.1163950E+00
         21   -1    0    0  503  502  0.00000000000E+00  0.00000000000E+00  0.19092582480E+03  0.19092582480E+03  0.00000000000E+00 0. -1.
         21   -1    0    0  501  503 -0.00000000000E+00 -0.00000000000E+00 -0.21704585061E+03  0.21704585061E+03  0.00000000000E+00 0. -1.
          6    2    1    2  501    0 -0.59106614839E+02  0.24779256974E+02 -0.10046678875E+03  0.20976528576E+03  0.17262762228E+03 0.  0.
         24    2    3    3    0    0  0.10841832406E+02 -0.22883019011E+02 -0.56340302091E+01  0.82565364706E+02  0.78384432534E+02 0.  0.
         -6    2    1    2    0  502  0.59106614839E+02 -0.24779256974E+02  0.74346762941E+02  0.19820638964E+03  0.17219386819E+03 0.  0.
        -24    2    5    5    0    0  0.19810863122E+02  0.56719584825E+02  0.37283386433E+02  0.10031869279E+03  0.71163246260E+02 0.  0.
          5    1    3    3  501    0 -0.69948447245E+02  0.47662275985E+02 -0.94832758543E+02  0.12719992106E+03  0.47000000000E+01 0. -1.
        -11    1    4    4    0    0  0.22015570690E+02  0.17078639543E+02  0.19539710732E+02  0.34031831818E+02  0.00000000000E+00 0.  1.
         12    1    4    4    0    0 -0.11173738284E+02 -0.39961658554E+02 -0.25173740941E+02  0.48533532888E+02  0.00000000000E+00 0. -1.
         -5    1    5    5    0  502  0.39295751718E+02 -0.81498841799E+02  0.37063376509E+02  0.97887696856E+02  0.47000000000E+01 0.  1.
         13    1    6    6    0    0  0.17070345092E+02  0.58509782194E+02 -0.19195716282E+01  0.60979308369E+02  0.00000000000E+00 0. -1.
        -14    1    6    6    0    0  0.27405180295E+01 -0.17901973686E+01  0.39202958061E+02  0.39339384418E+02  0.00000000000E+00 0.  1.
</event>
<event>
12    1  0.8052519E-002  0.2014708E+03  0.7818608E-02  0.1148946E+00
         21   -1    0    0  503  502  0.00000000000E+00  0.00000000000E+00  0.56167886791E+03  0.56167886791E+03  0.00000000000E+00 0. -1.
         21   -1    0    0  501  503 -0.00000000000E+00 -0.00000000000E+00 -0.13473436353E+03  0.13473436353E+03  0.00000000000E+00 0.  1.
          6    2    1    2  501    0  0.98300434232E+02  0.21840347309E+02 -0.24452877456E+02  0.20294932072E+03  0.17450073760E+03 0.  0.
         24    2    3    3    0    0  0.54791563570E+01  0.41897794513E+02 -0.54183227029E+02  0.10332967155E+03  0.77173522607E+02 0.  0.
         -6    2    1    2    0  502 -0.98300434232E+02 -0.21840347309E+02  0.45139738184E+03  0.49346391072E+03  0.17206701809E+03 0.  0.
        -24    2    5    5    0    0 -0.11436055338E+03 -0.64307895869E+02  0.34265534682E+03  0.37553028411E+03  0.79977909032E+02 0.  0.
          5    1    3    3  501    0  0.92821277875E+02 -0.20057447204E+02  0.29730349573E+02  0.99619649169E+02  0.47000000000E+01 0. -1.
        -13    1    4    4    0    0 -0.87411124213E+00 -0.13050137886E+02 -0.45494641072E+02  0.47337432710E+02  0.00000000000E+00 0.  1.
         14    1    4    4    0    0  0.63532675992E+01  0.54947932399E+02 -0.86885859572E+01  0.55992238838E+02  0.00000000000E+00 0. -1.
         -5    1    5    5    0  502  0.16060119150E+02  0.42467548560E+02  0.10874203501E+03  0.11793362661E+03  0.47000000000E+01 0.  1.
         13    1    6    6    0    0 -0.53244801868E+02 -0.16354630199E+02  0.57791473371E+02  0.80264171642E+02  0.00000000000E+00 0. -1.
        -14    1    6    6    0    0 -0.61115751515E+02 -0.47953265669E+02  0.28486387345E+03  0.29526611247E+03  0.00000000000E+00 0.  1.
</event>
<event>
12    1  0.8052519E-002  0.1743788E+03  0.7818608E-02  0.1173360E+00
         21   -1    0    0  503  502  0.00000000000E+00  0.00000000000E+00  0.50180657892E+02  0.50180657892E+02  0.00000000000E+00 0. -1.
         21   -1    0    0  501  503 -0.00000000000E+00 -0.00000000000E+00 -0.10152001598E+04  0.10152001598E+04  0.00000000000E+00 0. -1.
          6    2    1    2  501    0 -0.20104895681E+02  0.13731936436E+02 -0.82074194601E+03  0.83906215215E+03  0.17267072802E+03 0.  0.
         24    2    3    3    0    0  0.15032566152E+02  0.60430095308E+02 -0.35702607230E+03  0.37165455615E+03  0.82351189060E+02 0.  0.
         -6    2    1    2    0  502  0.20104895681E+02 -0.13731936436E+02 -0.14427755585E+03  0.22631866550E+03  0.17265964300E+03 0.  0.
        -24    2    5    5    0    0 -0.40007612948E+02 -0.11523742987E+02 -0.14127254344E+03  0.16590749177E+03  0.76380354457E+02 0.  0.
          5    1    3    3  501    0 -0.35137461833E+02 -0.46698158871E+02 -0.46371587371E+03  0.46740759600E+03  0.47000000000E+01 0. -1.
        -13    1    4    4    0    0  0.15483676698E+02  0.39987893391E+02 -0.34556296899E+03  0.34821335615E+03  0.00000000000E+00 0.  1.
         14    1    4    4    0    0 -0.45111054616E+00  0.20442201917E+02 -0.11463103307E+02  0.23441199998E+02  0.00000000000E+00 0. -1.
         -5    1    5    5    0  502  0.60112508629E+02 -0.22081934496E+01 -0.30050124062E+01  0.60411173731E+02  0.47000000000E+01 0.  1.
         13    1    6    6    0    0  0.46502817430E+01  0.15670026643E+02 -0.94029199000E+02  0.95439326904E+02  0.00000000000E+00 0. -1.
        -14    1    6    6    0    0 -0.44657894691E+02 -0.27193769630E+02 -0.47243344444E+02  0.70468164863E+02  0.00000000000E+00 0.  1.
</event>
<event>
12    1  0.8052519E-002  0.2115877E+03  0.7818608E-02  0.1140706E+00
         21   -1    0    0  503  502  0.00000000000E+00  0.00000000000E+00  0.44381364428E+03  0.44381364428E+03  0.00000000000E+00 0.  1.
         21   -1    0    0  501  503 -0.00000000000E+00 -0.00000000000E+00 -0.11287633918E+03  0.11287633918E+03  0.00000000000E+00 0.  1.
          6    2    1    2  501    0  0.11968191447E+03 -0.27576137909E+02  0.70516578508E+02  0.22114815495E+03  0.16985203726E+03 0.  0.
         24    2    3    3    0    0  0.12374250897E+03 -0.55792890332E+02  0.94418304155E+02  0.18365074125E+03  0.79923234823E+02 0.  0.
         -6    2    1    2    0  502 -0.11968191447E+03  0.27576137909E+02  0.26042072660E+03  0.33554182851E+03  0.17229381826E+03 0.  0.
        -24    2    5    5    0    0 -0.87369358958E+02 -0.48959560685E+02  0.15101613651E+03  0.19808904122E+03  0.80018443489E+02 0.  0.
          5    1    3    3  501    0 -0.40605945093E+01  0.28216752423E+02 -0.23901725648E+02  0.37497413698E+02  0.47000000000E+01 0. -1.
        -11    1    4    4    0    0  0.31143317042E+02  0.20640254762E+02  0.25067306766E+02  0.44992179115E+02  0.00000000000E+00 0.  1.
         12    1    4    4    0    0  0.92599191932E+02 -0.76433145094E+02  0.69350997390E+02  0.13865856214E+03  0.00000000000E+00 0. -1.
         -5    1    5    5    0  502 -0.32312555507E+02  0.76535698594E+02  0.10940459009E+03  0.13745278729E+03  0.47000000000E+01 0.  1.
         13    1    6    6    0    0 -0.12204181511E+02 -0.12075481971E+01  0.88353889143E+02  0.89200952605E+02  0.00000000000E+00 0. -1.
        -14    1    6    6    0    0 -0.75165177448E+02 -0.47752012488E+02  0.62662247366E+02  0.10888808862E+03  0.00000000000E+00 0.  1.
</event>
<event>
12    1  0.8052519E-002  0.1819747E+03  0.7818608E-02  0.1166428E+00
         21   -1    0    0  503  502  0.00000000000E+00  0.00000000000E+00  0.13685395142E+03  0.13685395142E+03  0.00000000000E+00 0.  1.
         21   -1    0    0  501  503 -0.00000000000E+00 -0.00000000000E+00 -0.32421149090E+03  0.32421149090E+03  0.00000000000E+00 0.  1.
          6    2    1    2  501    0 -0.22086049969E+02  0.54749172704E+02  0.24860004949E+02  0.18151029375E+03  0.16983139102E+03 0.  0.
         24    2    3    3    0    0 -0.46799878099E+02  0.12586419028E+02 -0.39243753571E+02  0.10076468734E+03  0.79150511599E+02 0.  0.
         -6    2    1    2    0  502  0.22086049969E+02 -0.54749172704E+02 -0.21221754443E+03  0.27955514856E+03  0.17213230205E+03 0.  0.
        -24    2    5    5    0    0  0.85749029736E+01  0.36955858213E+02 -0.10724902329E+03  0.13943789688E+03  0.80630699318E+02 0.  0.
          5    1    3    3  501    0  0.24713828129E+02  0.42162753676E+02  0.64103758520E+02  0.80745606412E+02  0.47000000000E+01 0. -1.
        -11    1    4    4    0    0 -0.69116114892E+02  0.55313648302E+01 -0.30985501077E+02  0.75945602977E+02  0.00000000000E+00 0.  1.
         12    1    4    4    0    0  0.22316236793E+02  0.70550541981E+01 -0.82582524941E+01  0.24819084362E+02  0.00000000000E+00 0. -1.
         -5    1    5    5    0  502  0.13511146996E+02 -0.91705030917E+02 -0.10496852114E+03  0.14011725168E+03  0.47000000000E+01 0.  1.
         13    1    6    6    0    0  0.32700086099E+02  0.51452114441E+02 -0.73569250790E+02  0.95546064143E+02  0.00000000000E+00 0. -1.
        -14    1    6    6    0    0 -0.24125183126E+02 -0.14496256227E+02 -0.33679772501E+02  0.43891832739E+02  0.00000000000E+00 0.  1.
</event>
<event>
12    1  0.8052519E-002  0.1978281E+03  0.7818608E-02  0.1151719E+00
         21   -1    0    0  501  502  0.00000000000E+00  0.00000000000E+00  0.74093605021E+02  0.74093605021E+02  0.00000000000E+00 0. -1.
         21   -1    0    0  502  503 -0.00000000000E+00 -0.00000000000E+00 -0.58774227016E+03  0.58774227016E+03  0.00000000000E+00 0. -1.
         -6    2    1    2    0  503  0.49780261957E+01  0.96290769789E+02 -0.36398387658E+03  0.41427068474E+03  0.17274039693E+03 0.  0.
        -24    2    3    3    0    0  0.46049982587E+01 -0.20123425088E+02 -0.14598714013E+03  0.16709246761E+03  0.78622448467E+02 0.  0.
          6    2    1    2  501    0 -0.49780261957E+01 -0.96290769789E+02 -0.14966478856E+03  0.24756519044E+03  0.17202407242E+03 0.  0.
         24    2    5    5    0    0 -0.53026656186E+02 -0.88486826298E+02 -0.14986126973E+03  0.19866017042E+03  0.79785452648E+02 0.  0.
          5    1    5    5  501    0  0.48048629991E+02 -0.78039434914E+01  0.19648116936E+00  0.48905020017E+02  0.47000000000E+01 0. -1.
        -11    1    6    6    0    0 -0.14189403168E+02  0.14469645364E+02 -0.26334292015E+02  0.33229576211E+02  0.00000000000E+00 0.  1.
         12    1    6    6    0    0 -0.38837253018E+02 -0.10295647166E+03 -0.12352697771E+03  0.16543059421E+03  0.00000000000E+00 0. -1.
         -5    1    3    3    0  503  0.37302793699E+00  0.11641419488E+03 -0.21799673645E+03  0.24717821713E+03  0.47000000000E+01 0.  1.
         13    1    4    4    0    0  0.40457353134E+02 -0.20667647617E+02 -0.81386403131E+02  0.93207809197E+02  0.00000000000E+00 0. -1.
        -14    1    4    4    0    0 -0.35852354875E+02  0.54422252907E+00 -0.64600737000E+02  0.73884658416E+02  0.00000000000E+00 0.  1.
</event>
<event>
12    1  0.8052519E-002  0.2005059E+03  0.7818608E-02  0.1149336E+00
         21   -1    0    0  501  502  0.00000000000E+00  0.00000000000E+00  0.41319478458E+03  0.41319478458E+03  0.00000000000E+00 0. -1.
         21   -1    0    0  502  503 -0.00000000000E+00 -0.00000000000E+00 -0.15145522709E+04  0.15145522709E+04  0.00000000000E+00 0.  1.
         -6    2    1    2    0  503 -0.36659312616E+02  0.95574490016E+02 -0.14831053135E+04  0.14965974649E+04  0.17240711298E+03 0.  0.
        -24    2    3    3    0    0 -0.52234034945E+02  0.10070166299E+03 -0.71778300667E+03  0.73108509841E+03  0.80023478583E+02 0.  0.
          6    2    1    2  501    0  0.36659312616E+02 -0.95574490016E+02  0.38174782716E+03  0.43114959063E+03  0.17227935924E+03 0.  0.
         24    2    5    5    0    0 -0.20314578697E+02  0.52800831701E+01  0.16650799567E+03  0.18667475699E+03  0.81743445549E+02 0.  0.
          5    1    5    5  501    0  0.56973891313E+02 -0.10085457319E+03  0.21523983149E+03  0.24447483364E+03  0.47000000000E+01 0. -1.
        -11    1    6    6    0    0 -0.20799566553E+02 -0.18550064598E+02  0.15937756415E+03  0.16179596664E+03  0.00000000000E+00 0.  1.
         12    1    6    6    0    0  0.48498785509E+00  0.23830147769E+02  0.71304315189E+01  0.24878790355E+02  0.00000000000E+00 0. -1.
         -5    1    3    3    0  503  0.15574722330E+02 -0.51271729706E+01 -0.76532230681E+03  0.76551236645E+03  0.47000000000E+01 0.  1.
         11    1    4    4    0    0 -0.56725591396E+02  0.37794284979E+02 -0.25216217139E+03  0.26121248319E+03  0.00000000000E+00 0. -1.
        -12    1    4    4    0    0  0.44915564510E+01  0.62907378008E+02 -0.46562083528E+03  0.46987261522E+03  0.00000000000E+00 0.  1.
</event>
<event>
12    1  0.8052519E-002  0.2164837E+03  0.7818608E-02  0.1136600E+00
         21   -1    0    0  503  502  0.00000000000E+00  0.00000000000E+00  0.18387950153E+03  0.18387950153E+03  0.00000000000E+00 0.  1.
         21   -1    0    0  501  503 -0.00000000000E+00 -0.00000000000E+00 -0.30839389219E+03  0.30839389219E+03  0.00000000000E+00 0.  1.
          6    2    1    2  501    0  0.12943618517E+03 -0.19596429465E+02 -0.16515923047E+03  0.27200723851E+03  0.17196691633E+03 0.  0.
         24    2    3    3    0    0  0.69826926670E+02 -0.74558850212E+02 -0.66952148965E+02  0.14456763614E+03  0.77345907034E+02 0.  0.
         -6    2    1    2    0  502 -0.12943618517E+03  0.19596429465E+02  0.40644839807E+02  0.22026615521E+03  0.17241644367E+03 0.  0.
        -24    2    5    5    0    0  0.29630108227E+01 -0.79602946416E+01  0.31984733726E+02  0.84671142100E+02  0.77936085282E+02 0.  0.
          5    1    3    3  501    0  0.59609258502E+02  0.54962420747E+02 -0.98207081509E+02  0.12743960237E+03  0.47000000000E+01 0. -1.
        -13    1    4    4    0    0  0.47160963935E+02 -0.41281456411E+02 -0.80557540112E+02  0.10206778351E+03  0.00000000000E+00 0.  1.
         14    1    4    4    0    0  0.22665962735E+02 -0.33277393801E+02  0.13605391147E+02  0.42499852625E+02  0.00000000000E+00 0. -1.
         -5    1    5    5    0  502 -0.13239919599E+03  0.27556724106E+02  0.86601060816E+01  0.13559501311E+03  0.47000000000E+01 0.  1.
         13    1    6    6    0    0 -0.27307408211E+02  0.10004940388E+02 -0.91909298765E+01  0.30500271595E+02  0.00000000000E+00 0. -1.
        -14    1    6    6    0    0  0.30270419034E+02 -0.17965235029E+02  0.41175663602E+02  0.54170870505E+02  0.00000000000E+00 0.  1.
</event>
<event>
12    1  0.8052519E-002  0.2918424E+03  0.7818608E-02  0.1089509E+00
         21   -1    0    0  501  502  0.00000000000E+00  0.00000000000E+00  0.24851274272E+03  0.24851274272E+03  0.00000000000E+00 0.  1.
         21   -1    0    0  502  503 -0.00000000000E+00 -0.00000000000E+00 -0.34213792077E+03  0.34213792077E+03  0.00000000000E+00 0. -1.
         -6    2    1    2    0  503 -0.14678926409E+03  0.18441509156E+03 -0.35668028835E+02  0.29310904428E+03  0.17054233935E+03 0.  0.
        -24    2    3    3    0    0 -0.44898460441E+02  0.12776165709E+03  0.32124495526E+02  0.15816733885E+03  0.75139943395E+02 0.  0.
          6    2    1    2  501    0  0.14678926409E+03 -0.18441509156E+03 -0.57957149221E+02  0.29754161921E+03  0.17209291086E+03 0.  0.
         24    2    5    5    0    0  0.56644905360E+02 -0.12868812152E+03  0.24773463082E+02  0.16301301700E+03  0.78678086623E+02 0.  0.
          5    1    5    5  501    0  0.90144358728E+02 -0.55726970037E+02 -0.82730612302E+02  0.13452860221E+03  0.47000000000E+01 0. -1.
        -11    1    6    6    0    0  0.36092099218E+01 -0.48197640700E+02 -0.25122911305E+02  0.54472007837E+02  0.00000000000E+00 0.  1.
         12    1    6    6    0    0  0.53035695438E+02 -0.80490480822E+02  0.49896374386E+02  0.10854100916E+03  0.00000000000E+00 0. -1.
         -5    1    3    3    0  503 -0.10189080365E+03  0.56653434471E+02 -0.67792524360E+02  0.13494170543E+03  0.47000000000E+01 0.  1.
         13    1    4    4    0    0 -0.50738264736E+02  0.43048828974E+02 -0.22049231094E+01  0.66576533932E+02  0.00000000000E+00 0. -1.
        -14    1    4    4    0    0  0.58398042949E+01  0.84712828113E+02  0.34329418635E+02  0.91590804915E+02  0.00000000000E+00 0.  1.
</event>
<event>
12    1  0.8052519E-002  0.1753151E+03  0.7818608E-02  0.1172839E+00
         21   -1    0    0  501  502  0.00000000000E+00  0.00000000000E+00  0.37785886518E+02  0.37785886518E+02  0.00000000000E+00 0.  1.
         21   -1    0    0  502  503 -0.00000000000E+00 -0.00000000000E+00 -0.89183532702E+03  0.89183532702E+03  0.00000000000E+00 0.  1.
         -6    2    1    2    0  503  0.23865461524E+02 -0.78667003955E+01 -0.28436830745E+03  0.33406691813E+03  0.17350483071E+03 0.  0.
        -24    2    3    3    0    0 -0.30734659000E+02  0.34306430380E+02 -0.94939697011E+02  0.13241118533E+03  0.79985158011E+02 0.  0.
          6    2    1    2  501    0 -0.23865461524E+02  0.78667003955E+01 -0.56968113305E+03  0.59555429541E+03  0.17180477348E+03 0.  0.
         24    2    5    5    0    0 -0.32586826756E+02  0.59964976245E+01 -0.57677812010E+03  0.58322477412E+03  0.79876642764E+02 0.  0.
          5    1    5    5  501    0  0.87213652327E+01  0.18702027710E+01  0.70969870481E+01  0.12329521284E+02  0.47000000000E+01 0. -1.
        -11    1    6    6    0    0 -0.58530195799E+02  0.12159835277E+00 -0.34559248448E+03  0.35051385698E+03  0.00000000000E+00 0.  1.
         12    1    6    6    0    0  0.25943369043E+02  0.58748992717E+01 -0.23118563562E+03  0.23271091714E+03  0.00000000000E+00 0. -1.
         -5    1    3    3    0  503  0.54600120524E+02 -0.42173130776E+02 -0.18942861044E+03  0.20165573280E+03  0.47000000000E+01 0.  1.
         13    1    4    4    0    0 -0.21721429447E+02  0.56201637505E+02 -0.89866051120E+02  0.10819589502E+03  0.00000000000E+00 0. -1.
        -14    1    4    4    0    0 -0.90132295533E+01 -0.21895207125E+02 -0.50736458919E+01  0.24215290307E+02  0.00000000000E+00 0.  1.
</event>
<event>
12    1  0.8052519E-002  0.2168600E+03  0.7818608E-02  0.1136280E+00
         21   -1    0    0  501  502  0.00000000000E+00  0.00000000000E+00  0.20523356112E+04  0.20523356112E+04  0.00000000000E+00 0. -1.
         21   -1    0    0  502  503 -0.00000000000E+00 -0.00000000000E+00 -0.23127124658E+02  0.23127124658E+02  0.00000000000E+00 0.  1.
         -6    2    1    2    0  503 -0.11286746773E+03  0.69693519632E+02  0.11188954090E+04  0.11397171628E+04  0.17155763737E+03 0.  0.
        -24    2    3    3    0    0 -0.95087462245E+02 -0.18458022104E+02  0.59079949040E+03  0.60399875528E+03  0.79925806043E+02 0.  0.
          6    2    1    2  501    0  0.11286746773E+03 -0.69693519632E+02  0.91031307757E+03  0.93574557309E+03  0.17132900050E+03 0.  0.
         24    2    5    5    0    0 -0.10514512760E+02 -0.34502387778E+02  0.37233154843E+03  0.38265629950E+03  0.80585928329E+02 0.  0.
          5    1    5    5  501    0  0.12338198049E+03 -0.35191131854E+02  0.53798152913E+03  0.55308927359E+03  0.47000000000E+01 0. -1.
        -13    1    6    6    0    0 -0.19958462206E+02 -0.58857440996E+02  0.26567872841E+03  0.27285110464E+03  0.00000000000E+00 0.  1.
         14    1    6    6    0    0  0.94439494455E+01  0.24355053217E+02  0.10665282002E+03  0.10980519485E+03  0.00000000000E+00 0. -1.
         -5    1    3    3    0  503 -0.17780005489E+02  0.88151541737E+02  0.52809591858E+03  0.53571840749E+03  0.47000000000E+01 0.  1.
         13    1    4    4    0    0 -0.16591842899E+02 -0.19885078685E+02  0.34489150604E+03  0.34586248213E+03  0.00000000000E+00 0. -1.
        -14    1    4    4    0    0 -0.78495619346E+02  0.14270565805E+01  0.24590798436E+03  0.25813627316E+03  0.00000000000E+00 0.  1.
</event>
<event>
12    1  0.8052519E-002  0.1870482E+03  0.7818608E-02  0.1161535E+00
         21   -1    0    0  503  502  0.00000000000E+00  0.00000000000E+00  0.18153713400E+03  0.18153713400E+03  0.00000000000E+00 0.  1.
         21   -1    0    0  501  503 -0.00000000000E+00 -0.00000000000E+00 -0.27759210367E+03  0.27759210367E+03  0.00000000000E+00 0.  1.
          6    2    1    2  501    0 -0.76390674091E+02  0.74813564281E+01 -0.17608108883E+03  0.25568095093E+03  0.16875038680E+03 0.  0.
         24    2    3    3    0    0 -0.80131868948E+02 -0.34024316389E+02 -0.59295622442E+02  0.13159367288E+03  0.78880627377E+02 0.  0.
         -6    2    1    2    0  502  0.76390674091E+02 -0.74813564281E+01  0.80026119156E+02  0.20344828674E+03  0.17057408903E+03 0.  0.
        -24    2    5    5    0    0  0.59886473873E+02  0.37398879553E+02  0.10833786513E+03  0.14767849952E+03  0.71321667486E+02 0.  0.
          5    1    3    3  501    0  0.37411948571E+01  0.41505672817E+02 -0.11678546638E+03  0.12408727805E+03  0.47000000000E+01 0. -1.
        -13    1    4    4    0    0 -0.74988828313E+02 -0.20914903278E+02 -0.76645039391E+02  0.10924843072E+03  0.00000000000E+00 0.  1.
         14    1    4    4    0    0 -0.51430406359E+01 -0.13109413112E+02  0.17349416948E+02  0.22345242168E+02  0.00000000000E+00 0. -1.
         -5    1    5    5    0  502  0.16504200218E+02 -0.44880235981E+02 -0.28311745976E+02  0.55769787222E+02  0.47000000000E+01 0.  1.
         11    1    6    6    0    0  0.38410497396E+01  0.43447255757E+02  0.41018265462E+02  0.59874166361E+02  0.00000000000E+00 0. -1.
        -12    1    6    6    0    0  0.56045424134E+02 -0.60483762037E+01  0.67319599670E+02  0.87804333155E+02  0.00000000000E+00 0.  1.
</event>
<event>
12    1  0.8052519E-002  0.2313684E+03  0.7818608E-02  0.1126277E+00
         21   -1    0    0  501  502  0.00000000000E+00  0.00000000000E+00  0.22616956098E+03  0.22616956098E+03  0.00000000000E+00 0. -1.
         21   -1    0    0  502  503 -0.00000000000E+00 -0.00000000000E+00 -0.29953413328E+03  0.29953413328E+03  0.00000000000E+00 0.  1.
         -6    2    1    2    0  503  0.70339133509E+02  0.13665863222E+03 -0.16055785502E+03  0.28162060807E+03  0.17293977742E+03 0.  0.
        -24    2    3    3    0    0  0.37644429416E+02  0.16431679385E+03 -0.13339754942E+03  0.23069232731E+03  0.83707418314E+02 0.  0.
          6    2    1    2  501    0 -0.70339133509E+02 -0.13665863222E+03  0.87193282725E+02  0.24408308619E+03  0.16837668767E+03 0.  0.
         24    2    5    5    0    0 -0.58978553220E+02 -0.16316190299E+03  0.95785188263E+02  0.21362989282E+03  0.79766236516E+02 0.  0.
          5    1    5    5  501    0 -0.11360580288E+02  0.26503270767E+02 -0.85919055383E+01  0.30453193373E+02  0.47000000000E+01 0. -1.
        -11    1    6    6    0    0  0.58399779104E+01  0.65600557081E+01  0.13894123179E+01  0.88921391958E+01  0.00000000000E+00 0.  1.
         12    1    6    6    0    0 -0.64818531131E+02 -0.16972195870E+03  0.94395775945E+02  0.20473775362E+03  0.00000000000E+00 0. -1.
         -5    1    3    3    0  503  0.32694704093E+02 -0.27658161630E+02 -0.27160305605E+02  0.50928280758E+02  0.47000000000E+01 0.  1.
         11    1    4    4    0    0  0.42051302250E+02  0.14148309363E+03 -0.70380361698E+02  0.16352117024E+03  0.00000000000E+00 0. -1.
        -12    1    4    4    0    0 -0.44068728339E+01  0.22833700224E+02 -0.63017187719E+02  0.67171157070E+02  0.00000000000E+00 0.  1.
</event>
<event>
12    1  0.8052519E-002  0.2318364E+03  0.7818608E-02  0.1125434E+00
         21   -1    0    0  501  502  0.00000000000E+00  0.00000000000E+00  0.28796244014E+03  0.28796244014E+03  0.00000000000E+00 0. -1.
         21   -1    0    0  502  503 -0.00000000000E+00 -0.00000000000E+00 -0.21126701402E+03  0.21126701402E+03  0.00000000000E+00 0. -1.
         -6    2    1    2    0  503  0.10437836016E+03  0.11509556674E+03 -0.47463234151E+02  0.23664501992E+03  0.17206474160E+03 0.  0.
        -24    2    3    3    0    0  0.41226491220E+02  0.32627850884E+02 -0.83039711794E+02  0.12675025903E+03  0.80036455424E+02 0.  0.
          6    2    1    2  501    0 -0.10437836016E+03 -0.11509556674E+03  0.12415866027E+03  0.26258443424E+03  0.17144497843E+03 0.  0.
         24    2    5    5    0    0  0.13646309502E+02 -0.53919355639E+02  0.62050170108E+02  0.11577875994E+03  0.80380215027E+02 0.  0.
          5    1    5    5  501    0 -0.11802466967E+03 -0.61176211101E+02  0.62108490163E+02  0.14680567429E+03  0.47000000000E+01 0. -1.
        -13    1    6    6    0    0 -0.20663900083E+02  0.11632542603E+02  0.16595703484E+02  0.28943569030E+02  0.00000000000E+00 0.  1.
         14    1    6    6    0    0  0.34310209584E+02 -0.65551898242E+02  0.45454466624E+02  0.86835190913E+02  0.00000000000E+00 0. -1.
         -5    1    3    3    0  503  0.63151868944E+02  0.82467715857E+02  0.35576477643E+02  0.10989476089E+03  0.47000000000E+01 0.  1.
         13    1    4    4    0    0  0.21729106822E+02  0.43210547948E+02 -0.91103190241E+02  0.10314599754E+03  0.00000000000E+00 0. -1.
        -14    1    4    4    0    0  0.19497384397E+02 -0.10582697064E+02  0.80634784465E+01  0.23604261483E+02  0.00000000000E+00 0.  1.
</event>
<event>
12    1  0.8052519E-002  0.2172314E+03  0.7818608E-02  0.1136317E+00
         21   -1    0    0  501  502  0.00000000000E+00  0.00000000000E+00  0.42559608601E+02  0.42559608601E+02  0.00000000000E+00 0. -1.
         21   -1    0    0  502  503 -0.00000000000E+00 -0.00000000000E+00 -0.11803811641E+04  0.11803811641E+04  0.00000000000E+00 0.  1.
         -6    2    1    2    0  503 -0.57098059555E+01  0.13014301844E+03 -0.72684980741E+03  0.75808891909E+03  0.17151781126E+03 0.  0.
        -24    2    3    3    0    0 -0.41157786716E+00  0.53262103358E+02 -0.16051004813E+03  0.18651078859E+03  0.78649714927E+02 0.  0.
          6    2    1    2  501    0  0.57098059555E+01 -0.13014301844E+03 -0.41097174807E+03  0.46485185359E+03  0.17383803078E+03 0.  0.
         24    2    5    5    0    0  0.62686729943E+02 -0.11046492583E+03 -0.23759781756E+03  0.28123756500E+03  0.80682830319E+02 0.  0.
          5    1    5    5  501    0 -0.56976923988E+02 -0.19678092610E+02 -0.17337393050E+03  0.18361428859E+03  0.47000000000E+01 0. -1.
        -13    1    6    6    0    0  0.17648877767E+01  0.57434069208E+01  0.33510517574E+01  0.68797601559E+01  0.00000000000E+00 0.  1.
         14    1    6    6    0    0  0.60921842167E+02 -0.11620833275E+03 -0.24094886932E+03  0.27435780485E+03  0.00000000000E+00 0. -1.
         -5    1    3    3    0  503 -0.52982280883E+01  0.76880915080E+02 -0.56633975928E+03  0.57157813050E+03  0.47000000000E+01 0.  1.
         11    1    4    4    0    0  0.25136405771E+02  0.24830865406E+02 -0.19385553907E+02  0.40301494665E+02  0.00000000000E+00 0. -1.
        -12    1    4    4    0    0 -0.25547983639E+02  0.28431237952E+02 -0.14112449422E+03  0.14620929392E+03  0.00000000000E+00 0.  1.
</event>
<event>
12    1  0.8052519E-002  0.1913773E+03  0.7818608E-02  0.1157900E+00
         21   -1    0    0  501  502  0.00000000000E+00  0.00000000000E+00  0.14254291254E+03  0.14254291254E+03  0.00000000000E+00 0. -1.
         21   -1    0    0  502  503 -0.00000000000E+00 -0.00000000000E+00 -0.25376583035E+03  0.25376583035E+03  0.00000000000E+00 0. -1.
         -6    2    1    2    0  503 -0.68475295105E+02  0.56670262617E+02 -0.66519034864E+02  0.19977957820E+03  0.16609248376E+03 0.  0.
        -24    2    3    3    0    0 -0.99682900983E+02  0.41430843672E+02 -0.86019684887E+02  0.15967322078E+03  0.80268024085E+02 0.  0.
          6    2    1    2  501    0  0.68475295105E+02 -0.56670262617E+02 -0.44703882952E+02  0.19652916469E+03  0.16948419017E+03 0.  0.
         24    2    5    5    0    0  0.35161711556E+02 -0.35144212076E+02 -0.94072935782E+02  0.13302673105E+03  0.79843173312E+02 0.  0.
          5    1    5    5  501    0  0.33313583549E+02 -0.21526050541E+02  0.49369052829E+02  0.63502433639E+02  0.47000000000E+01 0. -1.
        -11    1    6    6    0    0 -0.23186836445E+02 -0.25951131197E+02 -0.30882561574E+02  0.46527660634E+02  0.00000000000E+00 0.  1.
         12    1    6    6    0    0  0.58348548001E+02 -0.91930808796E+01 -0.63190374208E+02  0.86499070413E+02  0.00000000000E+00 0. -1.
         -5    1    3    3    0  503  0.31207605878E+02  0.15239418945E+02  0.19500650022E+02  0.40106357423E+02  0.47000000000E+01 0.  1.
         11    1    4    4    0    0 -0.10937978604E+03  0.50635129022E+02 -0.72483187849E+02  0.14064731211E+03  0.00000000000E+00 0. -1.
        -12    1    4    4    0    0  0.96968850521E+01 -0.92042853502E+01 -0.13536497038E+02  0.19025908666E+02  0.00000000000E+00 0.  1.
</event>
<event>
12    1  0.8052519E-002  0.1825488E+03  0.7818608E-02  0.1165374E+00
         21   -1    0    0  503  502  0.00000000000E+00  0.00000000000E+00  0.66017329222E+03  0.66017329222E+03  0.00000000000E+00 0. -1.
         21   -1    0    0  501  503 -0.00000000000E+00 -0.00000000000E+00 -0.21500260708E+03  0.21500260708E+03  0.00000000000E+00 0. -1.
          6    2    1    2  501    0  0.20044258042E+02  0.58856991268E+02 -0.16023280162E+03  0.24284888973E+03  0.17156664835E+03 0.  0.
         24    2    3    3    0    0  0.26227909755E+02  0.25150697824E+02 -0.34462626684E+02  0.11240894696E+03  0.10063616580E+03 0.  0.
         -6    2    1    2    0  502 -0.20044258042E+02 -0.58856991268E+02  0.60540348676E+03  0.63232700957E+03  0.17163375994E+03 0.  0.
        -24    2    5    5    0    0 -0.60057625661E+01  0.18623305364E+02  0.45607486893E+03  0.46344420458E+03  0.79958414167E+02 0.  0.
          5    1    3    3  501    0 -0.61836517128E+01  0.33706293444E+02 -0.12577017494E+03  0.13043994277E+03  0.47000000000E+01 0. -1.
        -13    1    4    4    0    0 -0.16578875955E+02 -0.10047822928E+02  0.24663417999E+02  0.31370401032E+02  0.00000000000E+00 0.  1.
         14    1    4    4    0    0  0.42806785710E+02  0.35198520752E+02 -0.59126044682E+02  0.81038545926E+02  0.00000000000E+00 0. -1.
         -5    1    5    5    0  502 -0.14038495476E+02 -0.77480296633E+02  0.14932861782E+03  0.16888280499E+03  0.47000000000E+01 0.  1.
         11    1    6    6    0    0 -0.23091471367E+02  0.86106484440E+01  0.42998027549E+03  0.43068596056E+03  0.00000000000E+00 0. -1.
        -12    1    6    6    0    0  0.17085708801E+02  0.10012656920E+02  0.26094593446E+02  0.32758244015E+02  0.00000000000E+00 0.  1.
</event>
<event>
12    1  0.8052519E-002  0.1956207E+03  0.7818608E-02  0.1154848E+00
         21   -1    0    0  501  502  0.00000000000E+00  0.00000000000E+00  0.11255494983E+03  0.11255494983E+03  0.00000000000E+00 0.  1.
         21   -1    0    0  502  503 -0.00000000000E+00 -0.00000000000E+00 -0.51672938348E+03  0.51672938348E+03  0.00000000000E+00 0.  1.
         -6    2    1    2    0  503 -0.73694304446E+02  0.48791330806E+02 -0.38947556802E+03  0.43311220998E+03  0.16758139479E+03 0.  0.
        -24    2    3    3    0    0 -0.43102599250E+02 -0.51206717876E+00 -0.90660599664E+02  0.12867970056E+03  0.80504811842E+02 0.  0.
          6    2    1    2  501    0  0.73694304446E+02 -0.48791330806E+02 -0.14698865634E+02  0.19617212333E+03  0.17451647731E+03 0.  0.
         24    2    5    5    0    0 -0.15835458302E+01 -0.78582547129E+02  0.79122936389E+01  0.11198408478E+03  0.79373210352E+02 0.  0.
          5    1    5    5  501    0  0.75277850276E+02  0.29791216323E+02 -0.22611159273E+02  0.84188038556E+02  0.47000000000E+01 0. -1.
        -13    1    6    6    0    0  0.32219032528E+02 -0.88825261095E+01 -0.38116480236E+01  0.33637687016E+02  0.00000000000E+00 0.  1.
         14    1    6    6    0    0 -0.33802578358E+02 -0.69700021020E+02  0.11723941663E+02  0.78346397760E+02  0.00000000000E+00 0. -1.
         -5    1    3    3    0  503 -0.30591705196E+02  0.49303397985E+02 -0.29881496835E+03  0.30443250942E+03  0.47000000000E+01 0.  1.
         11    1    4    4    0    0 -0.26285363547E+01  0.29729863136E+02 -0.66049631624E+02  0.72479844116E+02  0.00000000000E+00 0. -1.
        -12    1    4    4    0    0 -0.40474062895E+02 -0.30241930314E+02 -0.24610968040E+02  0.56199856443E+02  0.00000000000E+00 0.  1.
</event>
<event>
12    1  0.8052519E-002  0.3531371E+03  0.7818608E-02  0.1061501E+00
         21   -1    0    0  503  502  0.00000000000E+00  0.00000000000E+00  0.56413279500E+03  0.56413279500E+03  0.00000000000E+00 0. -1.
         21   -1    0    0  501  503 -0.00000000000E+00 -0.00000000000E+00 -0.26912277193E+03  0.26912277193E+03  0.00000000000E+00 0. -1.
          6    2    1    2  501    0 -0.75345918493E+02 -0.29692362781E+03 -0.30711207083E+02  0.35283893953E+03  0.17237021443E+03 0.  0.
         24    2    3    3    0    0 -0.93739750706E+02 -0.30495230842E+03 -0.21126338172E+02  0.33010674896E+03  0.82104155031E+02 0.  0.
         -6    2    1    2    0  502  0.75345918493E+02  0.29692362781E+03  0.32572123015E+03  0.48041662741E+03  0.17568485402E+03 0.  0.
        -24    2    5    5    0    0  0.10698104428E+03  0.15892220179E+03  0.22446901022E+03  0.30629231318E+03  0.82020939402E+02 0.  0.
          5    1    3    3  501    0  0.18393832214E+02  0.80286806095E+01 -0.95848689107E+01  0.22732190565E+02  0.47000000000E+01 0. -1.
        -13    1    4    4    0    0  0.14972138173E+02 -0.30036068652E+02  0.16427301140E+01  0.33601025338E+02  0.00000000000E+00 0.  1.
         14    1    4    4    0    0 -0.10871188888E+03 -0.27491623977E+03 -0.22769068286E+02  0.29650572362E+03  0.00000000000E+00 0. -1.
         -5    1    5    5    0  502 -0.31635125792E+02  0.13800142601E+03  0.10125221993E+03  0.17412431423E+03  0.47000000000E+01 0.  1.
         13    1    6    6    0    0  0.35182040129E+01  0.48595799472E+02  0.21726450904E+02  0.53347616204E+02  0.00000000000E+00 0. -1.
        -14    1    6    6    0    0  0.10346284027E+03  0.11032640232E+03  0.20274255932E+03  0.25294469697E+03  0.00000000000E+00 0.  1.
</event>
<event>
12    1  0.8052519E-002  0.1788277E+03  0.7818608E-02  0.1169183E+00
         21   -1    0    0  501  502  0.00000000000E+00  0.00000000000E+00  0.63230866918E+02  0.63230866918E+02  0.00000000000E+00 0. -1.
         21   -1    0    0  502  503 -0.00000000000E+00 -0.00000000000E+00 -0.66321758398E+03  0.66321758398E+03  0.00000000000E+00 0. -1.
         -6    2    1    2    0  503 -0.15385944784E+02  0.42478371953E+02 -0.47915322749E+03  0.51143637803E+03  0.17302662794E+03 0.  0.
        -24    2    3    3    0    0 -0.21599901037E+02 -0.39610178819E+02 -0.15781138079E+03  0.17968373544E+03  0.73118334813E+02 0.  0.
          6    2    1    2  501    0  0.15385944784E+02 -0.42478371953E+02 -0.12083348958E+03  0.21501207288E+03  0.17201255739E+03 0.  0.
         24    2    5    5    0    0  0.69696864540E+02  0.49793514573E+01 -0.67352469520E+02  0.12509977660E+03  0.78937646824E+02 0.  0.
          5    1    5    5  501    0 -0.54310919757E+02 -0.47457723411E+02 -0.53481020060E+02  0.89912296283E+02  0.47000000000E+01 0. -1.
        -11    1    6    6    0    0 -0.43932895219E+01  0.26468307359E+02 -0.26900693633E+02  0.37993678490E+02  0.00000000000E+00 0.  1.
         12    1    6    6    0    0  0.74090154062E+02 -0.21488955902E+02 -0.40451775887E+02  0.87106098105E+02  0.00000000000E+00 0. -1.
         -5    1    3    3    0  503  0.62139562531E+01  0.82088550772E+02 -0.32134184670E+03  0.33175264258E+03  0.47000000000E+01 0.  1.
         13    1    4    4    0    0  0.27489233477E+01  0.16741173242E+02 -0.73255283188E+02  0.75194148549E+02  0.00000000000E+00 0. -1.
        -14    1    4    4    0    0 -0.24348824384E+02 -0.56351352061E+02 -0.84556097600E+02  0.10448958689E+03  0.00000000000E+00 0.  1.
</event>
<event>
12    1  0.8052519E-002  0.2716196E+03  0.7818608E-02  0.1100364E+00
         21   -1    0    0  503  502  0.00000000000E+00  0.00000000000E+00  0.50209295906E+02  0.50209295906E+02  0.00000000000E+00 0.  1.
         21   -1    0    0  501  503 -0.00000000000E+00 -0.00000000000E+00 -0.15613166955E+04  0.15613166955E+04  0.00000000000E+00 0.  1.
          6    2    1    2  501    0  0.38353775948E+02  0.20588720599E+03 -0.95147470753E+03  0.98948539062E+03  0.17296434737E+03 0.  0.
         24    2    3    3    0    0 -0.38148140926E+02  0.12335084096E+03 -0.42863138603E+03  0.45464707517E+03  0.79425356451E+02 0.  0.
         -6    2    1    2    0  502 -0.38353775948E+02 -0.20588720599E+03 -0.55963269202E+03  0.62204060074E+03  0.17287337932E+03 0.  0.
        -24    2    5    5    0    0 -0.43179875241E+02 -0.26151572759E+02 -0.19572085203E+03  0.21610697764E+03  0.76466773690E+02 0.  0.
          5    1    3    3  501    0  0.76501916873E+02  0.82536365029E+02 -0.52284332150E+03  0.53483831545E+03  0.47000000000E+01 0. -1.
        -13    1    4    4    0    0 -0.25613414635E+02  0.71025261046E+02 -0.35789443716E+03  0.36577187271E+03  0.00000000000E+00 0.  1.
         14    1    4    4    0    0 -0.12534726291E+02  0.52325579913E+02 -0.70736948868E+02  0.88875202456E+02  0.00000000000E+00 0. -1.
         -5    1    5    5    0  502  0.48260992930E+01 -0.17973563323E+03 -0.36391183999E+03  0.40593362311E+03  0.47000000000E+01 0.  1.
         11    1    6    6    0    0 -0.40112905964E+02 -0.41957905904E+02 -0.19055076099E+03  0.19919614355E+03  0.00000000000E+00 0. -1.
        -12    1    6    6    0    0 -0.30669692767E+01  0.15806333145E+02 -0.51700910470E+01  0.16910834086E+02  0.00000000000E+00 0.  1.
</event>
<event>
12    1  0.8052519E-002  0.1994066E+03  0.7818608E-02  0.1150626E+00
         21   -1    0    0  501  502  0.00000000000E+00  0.00000000000E+00  0.24700723218E+03  0.24700723218E+03  0.00000000000E+00 0. -1.
         21   -1    0    0  502  503 -0.00000000000E+00 -0.00000000000E+00 -0.55579982675E+03  0.55579982675E+03  0.00000000000E+00 0. -1.
         -6    2    1    2    0  503  0.37467474817E+01  0.96715189141E+02 -0.49313313867E+03  0.53124781562E+03  0.17226747580E+03 0.  0.
        -24    2    3    3    0    0  0.20040663798E+02  0.13111134086E+03 -0.33991170655E+03  0.37330008938E+03  0.78874435506E+02 0.  0.
          6    2    1    2  501    0 -0.37467474817E+01 -0.96715189141E+02  0.18434054410E+03  0.27155924331E+03  0.17434196426E+03 0.  0.
         24    2    5    5    0    0 -0.15119327196E+02 -0.39518695319E+02  0.13219873416E+02  0.90713595288E+02  0.79144614361E+02 0.  0.
          5    1    5    5  501    0  0.11372579714E+02 -0.57196493823E+02  0.17112067068E+03  0.18084564803E+03  0.47000000000E+01 0. -1.
        -13    1    6    6    0    0  0.20544355970E+02 -0.47952374105E+02  0.13271718692E+01  0.52184884111E+02  0.00000000000E+00 0.  1.
         14    1    6    6    0    0 -0.35663683166E+02  0.84336787864E+01  0.11892701546E+02  0.38528711177E+02  0.00000000000E+00 0. -1.
         -5    1    3    3    0  503 -0.16293916317E+02 -0.34396151717E+02 -0.15322143213E+03  0.15794772624E+03  0.47000000000E+01 0.  1.
         11    1    4    4    0    0 -0.10043329503E+02  0.99621609052E+02 -0.29132841627E+03  0.30805450749E+03  0.00000000000E+00 0. -1.
        -12    1    4    4    0    0  0.30083993301E+02  0.31489731806E+02 -0.48583290274E+02  0.65245581889E+02  0.00000000000E+00 0.  1.
</event>
<event>
12    1  0.8052519E-002  0.2094939E+03  0.7818608E-02  0.1142177E+00
         21   -1    0    0  503  502  0.00000000000E+00  0.00000000000E+00  0.46431559994E+03  0.46431559994E+03  0.00000000000E+00 0.  1.
         21   -1    0    0  501  503 -0.00000000000E+00 -0.00000000000E+00 -0.10626453958E+03  0.10626453958E+03  0.00000000000E+00 0.  1.
          6    2    1    2  501    0 -0.11834849557E+02  0.11854530868E+03  0.82686913412E+02  0.22522168722E+03  0.17232129546E+03 0.  0.
         24    2    3    3    0    0  0.52126780395E+02  0.29832567255E+02  0.46929338166E+02  0.11006208152E+03  0.79398461600E+02 0.  0.
         -6    2    1    2    0  502  0.11834849557E+02 -0.11854530868E+03  0.27536414695E+03  0.34535845231E+03  0.17103798782E+03 0.  0.
        -24    2    5    5    0    0  0.20338248219E+02  0.16799276301E+01  0.73471366847E+02  0.11017937183E+03  0.79529778908E+02 0.  0.
          5    1    3    3  501    0 -0.63961629953E+02  0.88712741424E+02  0.35757575246E+02  0.11515960570E+03  0.47000000000E+01 0. -1.
        -11    1    4    4    0    0  0.53307862261E+00 -0.11107703839E+02 -0.15657228717E+02  0.19204532499E+02  0.00000000000E+00 0.  1.
         12    1    4    4    0    0  0.51593701773E+02  0.40940271094E+02  0.62586566883E+02  0.90857549021E+02  0.00000000000E+00 0. -1.
         -5    1    5    5    0  502 -0.85033986612E+01 -0.12022523631E+03  0.20189278010E+03  0.23517908047E+03  0.47000000000E+01 0.  1.
         11    1    6    6    0    0  0.45539469633E+02 -0.13500099838E+02  0.25514173318E+02  0.53917242420E+02  0.00000000000E+00 0. -1.
        -12    1    6    6    0    0 -0.25201221414E+02  0.15180027468E+02  0.47957193529E+02  0.56262129411E+02  0.00000000000E+00 0.  1.
</event>
<event>
12    1  0.8052519E-002  0.1993516E+03  0.7818608E-02  0.1150852E+00
         21   -1    0    0  501  502  0.00000000000E+00  0.00000000000E+00  0.13359626549E+04  0.13359626549E+04  0.00000000000E+00 0. -1.
         21   -1    0    0  502  503 -0.00000000000E+00 -0.00000000000E+00 -0.42268644059E+02  0.42268644059E+02  0.00000000000E+00 0. -1.
         -6    2    1    2    0  503  0.67816295902E+02  0.71575094575E+02  0.26893717141E+03  0.33476596562E+03  0.17325993600E+03 0.  0.
        -24    2    3    3    0    0  0.19322081140E+02 -0.94452110907E+01  0.52280567277E+02  0.98380363462E+02  0.80516354661E+02 0.  0.
          6    2    1    2  501    0 -0.67816295902E+02 -0.71575094575E+02  0.10247568394E+04  0.10434653333E+04  0.17020951136E+03 0.  0.
         24    2    5    5    0    0 -0.69305321926E+02 -0.21471545705E+02  0.34173503669E+03  0.35859055951E+03  0.80870879448E+02 0.  0.
          5    1    5    5  501    0  0.14890260237E+01 -0.50103548870E+02  0.68302180274E+03  0.68487477383E+03  0.47000000000E+01 0. -1.
        -13    1    6    6    0    0 -0.26921206631E+01 -0.39526586011E+02  0.12730869071E+03  0.13333079631E+03  0.00000000000E+00 0.  1.
         14    1    6    6    0    0 -0.66613201263E+02  0.18055040305E+02  0.21442634598E+03  0.22525976319E+03  0.00000000000E+00 0. -1.
         -5    1    3    3    0  503  0.48494214763E+02  0.81020305666E+02  0.21665660413E+03  0.23638560216E+03  0.47000000000E+01 0.  1.
         11    1    4    4    0    0  0.45366559525E+02  0.14749471152E+02  0.32169134086E+02  0.57537160255E+02  0.00000000000E+00 0. -1.
        -12    1    4    4    0    0 -0.26044478385E+02 -0.24194682243E+02  0.20111433191E+02  0.40843203207E+02  0.00000000000E+00 0.  1.
</event>
<event>
12    1  0.8052519E-002  0.1854868E+03  0.7818608E-02  0.1162736E+00
         21   -1    0    0  503  502  0.00000000000E+00  0.00000000000E+00  0.32074075755E+03  0.32074075755E+03  0.00000000000E+00 0.  1.
         21   -1    0    0  501  503 -0.00000000000E+00 -0.00000000000E+00 -0.16258736727E+03  0.16258736727E+03  0.00000000000E+00 0. -1.
          6    2    1    2  501    0  0.17966347489E+02  0.64871400256E+02 -0.62411033044E+02  0.19513721655E+03  0.17219845535E+03 0.  0.
         24    2    3    3    0    0  0.18296470040E+02  0.74359471824E+02 -0.10428464197E+03  0.15194437447E+03  0.79672545565E+02 0.  0.
         -6    2    1    2    0  502 -0.17966347489E+02 -0.64871400256E+02  0.22056442332E+03  0.28819090828E+03  0.17284168063E+03 0.  0.
        -24    2    5    5    0    0  0.37825073221E+02 -0.88420946042E+02  0.15568847808E+03  0.19931885416E+03  0.78994326086E+02 0.  0.
          5    1    3    3  501    0 -0.33012255148E+00 -0.94880715683E+01  0.41873608923E+02  0.43192842083E+02  0.47000000000E+01 0. -1.
        -11    1    4    4    0    0 -0.19488573882E+02  0.62423462320E+02 -0.40708352725E+02  0.77030274188E+02  0.00000000000E+00 0.  1.
         12    1    4    4    0    0  0.37785043923E+02  0.11936009504E+02 -0.63576289242E+02  0.74914100281E+02  0.00000000000E+00 0. -1.
         -5    1    5    5    0  502 -0.55791420710E+02  0.23549545786E+02  0.64875945245E+02  0.88872054117E+02  0.47000000000E+01 0.  1.
         13    1    6    6    0    0 -0.67154457305E+01 -0.71182140746E+02  0.64097068585E+02  0.96023062718E+02  0.00000000000E+00 0. -1.
        -14    1    6    6    0    0  0.44540518951E+02 -0.17238805296E+02  0.91591409493E+02  0.10329579144E+03  0.00000000000E+00 0.  1.
</event>
<event>
12    1  0.8052519E-002  0.1995437E+03  0.7818608E-02  0.1150139E+00
         21   -1    0    0  503  502  0.00000000000E+00  0.00000000000E+00  0.58873753931E+03  0.58873753931E+03  0.00000000000E+00 0.  1.
         21   -1    0    0  501  503 -0.00000000000E+00 -0.00000000000E+00 -0.90198980658E+02  0.90198980658E+02  0.00000000000E+00 0.  1.
          6    2    1    2  501    0 -0.85783377356E+02 -0.50361320841E+02  0.79356346505E+02  0.21468290327E+03  0.17290537516E+03 0.  0.
         24    2    3    3    0    0 -0.92620374642E+02 -0.94423705411E+02  0.62298160037E+02  0.16671093238E+03  0.80106830474E+02 0.  0.
         -6    2    1    2    0  502  0.85783377356E+02  0.50361320841E+02  0.41918221215E+03  0.46425361669E+03  0.17298162667E+03 0.  0.
        -24    2    5    5    0    0  0.24683288863E+02  0.84514802524E+02  0.18339471182E+03  0.21825053453E+03  0.79042133722E+02 0.  0.
          5    1    3    3  501    0  0.68369972866E+01  0.44062384570E+02  0.17058186468E+02  0.47971970894E+02  0.47000000000E+01 0. -1.
        -11    1    4    4    0    0 -0.48972132953E+02 -0.21982575329E+02 -0.10998151901E+02  0.54794733044E+02  0.00000000000E+00 0.  1.
         12    1    4    4    0    0 -0.43648241689E+02 -0.72441130082E+02  0.73296311938E+02  0.11191619934E+03  0.00000000000E+00 0. -1.
         -5    1    5    5    0  502  0.61100088492E+02 -0.34153481683E+02  0.23578750033E+03  0.24600308217E+03  0.47000000000E+01 0.  1.
         13    1    6    6    0    0 -0.15660269699E+02 -0.54246790801E+01  0.47950462184E+02  0.50733795579E+02  0.00000000000E+00 0. -1.
        -14    1    6    6    0    0  0.40343558562E+02  0.89939481604E+02  0.13544424964E+03  0.16751673895E+03  0.00000000000E+00 0.  1.
</event>
<event>
12    1  0.8052519E-002  0.2839543E+03  0.7818608E-02  0.1093636E+00
         21   -1    0    0  503  502  0.00000000000E+00  0.00000000000E+00  0.31138027610E+03  0.31138027610E+03  0.00000000000E+00 0.  1.
         21   -1    0    0  501  503 -0.00000000000E+00 -0.00000000000E+00 -0.26680882877E+03  0.26680882877E+03  0.00000000000E+00 0.  1.
          6    2    1    2  501    0 -0.22564864159E+03  0.73053587247E+01 -0.29219216504E+02  0.28480355462E+03  0.17113919595E+03 0.  0.
         24    2    3    3    0    0 -0.11942497048E+03 -0.50826247076E+02 -0.46881153117E+02  0.16234218968E+03  0.85507386034E+02 0.  0.
         -6    2    1    2    0  502  0.22564864159E+03 -0.73053587247E+01  0.73790663838E+02  0.29338555025E+03  0.17221887616E+03 0.  0.
        -24    2    5    5    0    0  0.52615296436E+02 -0.41324289642E+02  0.66422736638E+01  0.10462956359E+03  0.80169566820E+02 0.  0.
          5    1    3    3  501    0 -0.10622367111E+03  0.58131605800E+02  0.17661936613E+02  0.12246136494E+03  0.47000000000E+01 0. -1.
        -13    1    4    4    0    0 -0.38564321844E+02  0.23369278905E+02 -0.20156884967E+02  0.49392612073E+02  0.00000000000E+00 0.  1.
         14    1    4    4    0    0 -0.80860648638E+02 -0.74195525980E+02 -0.26724268150E+02  0.11294957761E+03  0.00000000000E+00 0. -1.
         -5    1    5    5    0  502  0.17303334516E+03  0.34018930917E+02  0.67148390175E+02  0.18875598666E+03  0.47000000000E+01 0.  1.
         11    1    6    6    0    0  0.71731577634E+01  0.50898189261E+01  0.33280977512E+02  0.34423595296E+02  0.00000000000E+00 0. -1.
        -12    1    6    6    0    0  0.45442138672E+02 -0.46414108568E+02 -0.26638703848E+02  0.70205968293E+02  0.00000000000E+00 0.  1.
</event>
<event>
12    1  0.8052519E-002  0.2174562E+03  0.7818608E-02  0.1135916E+00
         21   -1    0    0  503  502  0.00000000000E+00  0.00000000000E+00  0.17252486752E+03  0.17252486752E+03  0.00000000000E+00 0.  1.
         21   -1    0    0  501  503 -0.00000000000E+00 -0.00000000000E+00 -0.46255045454E+03  0.46255045454E+03  0.00000000000E+00 0. -1.
          6    2    1    2  501    0 -0.10749337802E+03  0.75660876786E+02 -0.34800873019E+03  0.41002144007E+03  0.17241841675E+03 0.  0.
         24    2    3    3    0    0 -0.76558144827E+02  0.70815105653E+02 -0.11662775723E+03  0.17648404521E+03  0.81661837649E+02 0.  0.
         -6    2    1    2    0  502  0.10749337802E+03 -0.75660876786E+02  0.57983143167E+02  0.22505388200E+03  0.17322762573E+03 0.  0.
        -24    2    5    5    0    0  0.19538082980E+02 -0.60763810171E+02 -0.25765043477E+02  0.10260427896E+03  0.76090888295E+02 0.  0.
          5    1    3    3  501    0 -0.30935233191E+02  0.48457711324E+01 -0.23138097296E+03  0.23353739486E+03  0.47000000000E+01 0. -1.
        -11    1    4    4    0    0 -0.39850611841E+02  0.68803965786E+02 -0.11483845336E+03  0.13967794150E+03  0.00000000000E+00 0.  1.
         12    1    4    4    0    0 -0.36707532987E+02  0.20111398670E+01 -0.17893038668E+01  0.36806103704E+02  0.00000000000E+00 0. -1.
         -5    1    5    5    0  502  0.87955295038E+02 -0.14897066615E+02  0.83748186644E+02  0.12244960304E+03  0.47000000000E+01 0.  1.
         13    1    6    6    0    0 -0.29055020344E+02 -0.18624324724E+02 -0.42035004024E+01  0.34766781477E+02  0.00000000000E+00 0. -1.
        -14    1    6    6    0    0  0.48593103324E+02 -0.42139485446E+02 -0.21561543074E+02  0.67837497478E+02  0.00000000000E+00 0.  1.
</event>
<event>
12    1  0.8052519E-002  0.2090701E+03  0.7818608E-02  0.1142449E+00
         21   -1    0    0  501  502  0.00000000000E+00  0.00000000000E+00  0.31210245541E+04  0.31210245541E+04  0.00000000000E+00 0.  1.
         21   -1    0    0  502  503 -0.00000000000E+00 -0.00000000000E+00 -0.14800267262E+02  0.14800267262E+02  0.00000000000E+00 0.  1.
         -6    2    1    2    0  503 -0.98740732892E+02  0.64550961171E+02  0.19300267861E+04  0.19413175124E+04  0.17260860308E+03 0.  0.
        -24    2    3    3    0    0 -0.75549044354E+02  0.11069469077E+03  0.13619590298E+04  0.13708877060E+04  0.80247934948E+02 0.  0.
          6    2    1    2  501    0  0.98740732892E+02 -0.64550961171E+02  0.11761975007E+04  0.11945073090E+04  0.17172824918E+03 0.  0.
         24    2    5    5    0    0  0.68358037723E+02 -0.58936171691E+02  0.39920962428E+03  0.41689115420E+03  0.79269266920E+02 0.  0.
          5    1    5    5  501    0  0.30382695170E+02 -0.56147894797E+01  0.77698787645E+03  0.77761615478E+03  0.47000000000E+01 0. -1.
        -13    1    6    6    0    0  0.39099859419E+02 -0.86124358648E+01  0.56350791143E+02  0.69125861445E+02  0.00000000000E+00 0.  1.
         14    1    6    6    0    0  0.29258178304E+02 -0.50323735827E+02  0.34285883314E+03  0.34776529276E+03  0.00000000000E+00 0. -1.
         -5    1    3    3    0  503 -0.23191688539E+02 -0.46143729600E+02  0.56806775636E+03  0.57042980638E+03  0.47000000000E+01 0.  1.
         13    1    4    4    0    0 -0.20889035393E+02  0.79467098974E+02  0.50707649704E+03  0.51369051526E+03  0.00000000000E+00 0. -1.
        -14    1    4    4    0    0 -0.54660008961E+02  0.31227591797E+02  0.85488253275E+03  0.85719719077E+03  0.00000000000E+00 0.  1.
</event>
<event>
12    1  0.8052519E-002  0.1948753E+03  0.7818608E-02  0.1154150E+00
         21   -1    0    0  501  502  0.00000000000E+00  0.00000000000E+00  0.30915615801E+02  0.30915615801E+02  0.00000000000E+00 0. -1.
         21   -1    0    0  502  503 -0.00000000000E+00 -0.00000000000E+00 -0.19353495639E+04  0.19353495639E+04  0.00000000000E+00 0. -1.
         -6    2    1    2    0  503  0.69811642017E+02 -0.59122108800E+02 -0.15464855848E+04  0.15587073155E+04  0.17199343680E+03 0.  0.
        -24    2    3    3    0    0  0.48492409779E+02 -0.31158469902E+02 -0.14801782155E+04  0.14835060390E+04  0.80871837189E+02 0.  0.
          6    2    1    2  501    0 -0.69811642017E+02  0.59122108800E+02 -0.35794836333E+03  0.40755786423E+03  0.17206769823E+03 0.  0.
         24    2    5    5    0    0 -0.44993223300E+02 -0.27483212601E+02 -0.24767973705E+03  0.26508788302E+03  0.78400360096E+02 0.  0.
          5    1    5    5  501    0 -0.24818418717E+02  0.86605321401E+02 -0.11026862629E+03  0.14246998121E+03  0.47000000000E+01 0. -1.
        -11    1    6    6    0    0 -0.86170541799E+01  0.27349317262E+02 -0.74188099137E+02  0.79536864604E+02  0.00000000000E+00 0.  1.
         12    1    6    6    0    0 -0.36376169120E+02 -0.54832529863E+02 -0.17349163791E+03  0.18555101842E+03  0.00000000000E+00 0. -1.
         -5    1    3    3    0  503  0.21319232238E+02 -0.27963638898E+02 -0.66307369238E+02  0.75201276445E+02  0.47000000000E+01 0.  1.
         11    1    4    4    0    0  0.54532766305E+02 -0.53362118853E+02 -0.11328237289E+04  0.11353902144E+04  0.00000000000E+00 0. -1.
        -12    1    4    4    0    0 -0.60403565259E+01  0.22203648951E+02 -0.34735448664E+03  0.34811582458E+03  0.00000000000E+00 0.  1.
</event>
<event>
12    1  0.8052519E-002  0.1766387E+03  0.7818608E-02  0.1172359E+00
         21   -1    0    0  501  502  0.00000000000E+00  0.00000000000E+00  0.44520035911E+03  0.44520035911E+03  0.00000000000E+00 0.  1.
         21   -1    0    0  502  503 -0.00000000000E+00 -0.00000000000E+00 -0.88512075904E+02  0.88512075904E+02  0.00000000000E+00 0. -1.
         -6    2    1    2    0  503  0.12096125944E+02 -0.47262314751E+02  0.52206664056E+02  0.18419224205E+03  0.16976808770E+03 0.  0.
        -24    2    3    3    0    0  0.34263940552E+02 -0.84226137980E+02  0.59942296651E+01  0.12082493720E+03  0.79338986121E+02 0.  0.
          6    2    1    2  501    0 -0.12096125944E+02  0.47262314751E+02  0.30448161915E+03  0.34952019296E+03  0.16454563570E+03 0.  0.
         24    2    5    5    0    0 -0.64650320566E+02  0.28548866808E+02  0.24916321862E+03  0.27081598758E+03  0.79147254369E+02 0.  0.
          5    1    5    5  501    0  0.52554194622E+02  0.18713447944E+02  0.55318400530E+02  0.78704205374E+02  0.47000000000E+01 0. -1.
        -13    1    6    6    0    0  0.12171967644E+02  0.25516550229E+02  0.51907060320E+02  0.59106632817E+02  0.00000000000E+00 0.  1.
         14    1    6    6    0    0 -0.76822288210E+02  0.30323165785E+01  0.19725615830E+03  0.21170935477E+03  0.00000000000E+00 0. -1.
         -5    1    3    3    0  503 -0.22167814608E+02  0.36963823228E+02  0.46212434391E+02  0.63367304854E+02  0.47000000000E+01 0.  1.
         11    1    4    4    0    0 -0.58525749453E+01 -0.73924709832E+02  0.20504641875E+02  0.76938648907E+02  0.00000000000E+00 0. -1.
        -12    1    4    4    0    0  0.40116515497E+02 -0.10301428147E+02 -0.14510412210E+02  0.43886288292E+02  0.00000000000E+00 0.  1.
</event>
<event>
12    1  0.8052519E-002  0.1929025E+03  0.7818608E-02  0.1156029E+00
         21   -1    0    0  503  502  0.00000000000E+00  0.00000000000E+00  0.92997314032E+02  0.92997314032E+02  0.00000000000E+00 0.  1.
         21   -1    0    0  501  503 -0.00000000000E+00 -0.00000000000E+00 -0.10968249245E+04  0.10968249245E+04  0.00000000000E+00 0.  1.
          6    2    1    2  501    0 -0.38438993232E+02 -0.76368768685E+02 -0.97621688553E+03  0.99495370427E+03  0.17211542931E+03 0.  0.
         24    2    3    3    0    0  0.33514306579E+02 -0.55914007322E+02 -0.74409043940E+03  0.75102656020E+03  0.78235076334E+02 0.  0.
         -6    2    1    2    0  502  0.38438993232E+02  0.76368768685E+02 -0.27610724888E+02  0.19486853422E+03  0.17292093126E+03 0.  0.
        -24    2    5    5    0    0 -0.13039187833E+02  0.19740830636E+02 -0.69102187204E+02  0.10768850245E+03  0.79132676374E+02 0.  0.
          5    1    3    3  501    0 -0.71953299811E+02 -0.20454761363E+02 -0.23212644614E+03  0.24392714407E+03  0.47000000000E+01 0. -1.
        -13    1    4    4    0    0  0.17247271955E+02  0.67704308930E+00 -0.48591631559E+03  0.48622278076E+03  0.00000000000E+00 0.  1.
         14    1    4    4    0    0  0.16267034624E+02 -0.56591050411E+02 -0.25817412381E+03  0.26480377944E+03  0.00000000000E+00 0. -1.
         -5    1    5    5    0  502  0.51478181065E+02  0.56627938048E+02  0.41491462316E+02  0.87180031765E+02  0.47000000000E+01 0.  1.
         11    1    6    6    0    0  0.10918724693E+02 -0.26504912816E+02 -0.35825666458E+02  0.45882538393E+02  0.00000000000E+00 0. -1.
        -12    1    6    6    0    0 -0.23957912526E+02  0.46245743452E+02 -0.33276520747E+02  0.61805964057E+02  0.00000000000E+00 0.  1.
</event>
<event>
12    1  0.8052519E-002  0.2320248E+03  0.7818608E-02  0.1125326E+00
         21   -1    0    0  501  502  0.00000000000E+00  0.00000000000E+00  0.21487882582E+04  0.21487882582E+04  0.00000000000E+00 0.  1.
         21   -1    0    0  502  503 -0.00000000000E+00 -0.00000000000E+00 -0.42220738005E+02  0.42220738005E+02  0.00000000000E+00 0. -1.
         -6    2    1    2    0  503  0.15673719967E+03 -0.50096493550E+01  0.35423400127E+03  0.42345864289E+03  0.17100832796E+03 0.  0.
        -24    2    3    3    0    0  0.17582489323E+02 -0.18312077336E+02  0.19011287678E+03  0.20782278894E+03  0.80018307767E+02 0.  0.
          6    2    1    2  501    0 -0.15673719967E+03  0.50096493550E+01  0.17523335189E+04  0.17675503533E+04  0.17020529846E+03 0.  0.
         24    2    5    5    0    0 -0.11016818055E+03  0.72809578446E+00  0.16415773928E+04  0.16472340422E+04  0.80412033599E+02 0.  0.
          5    1    5    5  501    0 -0.46569019123E+02  0.42815535705E+01  0.11075612607E+03  0.12031631105E+03  0.47000000000E+01 0. -1.
        -13    1    6    6    0    0 -0.18972639411E+02  0.12583408937E+01  0.88150830771E+03  0.88171335537E+03  0.00000000000E+00 0.  1.
         14    1    6    6    0    0 -0.91195541140E+02 -0.53024510926E+00  0.76006908510E+03  0.76552068686E+03  0.00000000000E+00 0. -1.
         -5    1    3    3    0  503  0.13915471035E+03  0.13302427981E+02  0.16412112449E+03  0.21563585394E+03  0.47000000000E+01 0.  1.
         13    1    4    4    0    0 -0.24524849914E+02 -0.10782954232E+02  0.22958899703E+02  0.35282452308E+02  0.00000000000E+00 0. -1.
        -14    1    4    4    0    0  0.42107339237E+02 -0.75291231046E+01  0.16715397708E+03  0.17254033664E+03  0.00000000000E+00 0.  1.
</event>
<event>
12    1  0.8052519E-002  0.2160390E+03  0.7818608E-02  0.1137122E+00
         21   -1    0    0  503  502  0.00000000000E+00  0.00000000000E+00  0.15092180977E+03  0.15092180977E+03  0.00000000000E+00 0.  1.
         21   -1    0    0  501  503 -0.00000000000E+00 -0.00000000000E+00 -0.61666186258E+03  0.61666186258E+03  0.00000000000E+00 0. -1.
          6    2    1    2  501    0 -0.12762748574E+03  0.31512529364E+02 -0.50502127996E+03  0.54928983481E+03  0.17143807860E+03 0.  0.
         24    2    3    3    0    0 -0.75633966862E+02  0.84372269249E+02 -0.37888264072E+03  0.40289815330E+03  0.77043427587E+02 0.  0.
         -6    2    1    2    0  502  0.12762748574E+03 -0.31512529364E+02  0.39281227158E+02  0.21829383753E+03  0.16978624819E+03 0.  0.
        -24    2    5    5    0    0  0.33716288312E+02  0.32517719974E+02  0.48056944176E+02  0.10419612046E+03  0.79706784057E+02 0.  0.
          5    1    3    3  501    0 -0.51993518882E+02 -0.52859739885E+02 -0.12613863924E+03  0.14639168151E+03  0.47000000000E+01 0. -1.
        -13    1    4    4    0    0 -0.42892825513E+01  0.60329385702E+01  0.19048823989E+01  0.76434854321E+01  0.00000000000E+00 0.  1.
         14    1    4    4    0    0 -0.71344684310E+02  0.78339330679E+02 -0.38078752312E+03  0.39525466787E+03  0.00000000000E+00 0. -1.
         -5    1    5    5    0  502  0.93911197431E+02 -0.64030249338E+02 -0.87757170183E+01  0.11409771708E+03  0.47000000000E+01 0.  1.
         11    1    6    6    0    0  0.36262155233E+02  0.36473822187E+02 -0.43152708732E+01  0.51613032945E+02  0.00000000000E+00 0. -1.
        -12    1    6    6    0    0 -0.25458669204E+01 -0.39561022124E+01  0.52372215049E+02  0.52583087511E+02  0.00000000000E+00 0.  1.
</event>
<event>
12    1  0.8052519E-002  0.2315555E+03  0.7818608E-02  0.1125746E+00
         21   -1    0    0  503  502  0.00000000000E+00  0.00000000000E+00  0.70413095297E+03  0.70413095297E+03  0.00000000000E+00 0. -1.
         21   -1    0    0  501  503 -0.00000000000E+00 -0.00000000000E+00 -0.19384203699E+03  0.19384203699E+03  0.00000000000E+00 0. -1.
          6    2    1    2  501    0 -0.10718614500E+03 -0.11209407298E+03 -0.95014282479E+02  0.25029117712E+03  0.17194187563E+03 0.  0.
         24    2    3    3    0    0 -0.60777960434E+02 -0.76969154155E+01  0.18691194704E+00  0.10150326255E+03  0.80930058638E+02 0.  0.
         -6    2    1    2    0  502  0.10718614500E+03  0.11209407298E+03  0.60530319845E+03  0.64768181284E+03  0.17042833612E+03 0.  0.
        -24    2    5    5    0    0  0.13779388051E+03  0.11827147571E+03  0.52081221174E+03  0.55748308439E+03  0.81035387423E+02 0.  0.
          5    1    3    3  501    0 -0.46408184563E+02 -0.10439715756E+03 -0.95201194426E+02  0.14878791457E+03  0.47000000000E+01 0. -1.
        -11    1    4    4    0    0  0.22045764318E+01 -0.15287636840E+02 -0.28083538061E+02  0.32050851899E+02  0.00000000000E+00 0.  1.
         12    1    4    4    0    0 -0.62982536866E+02  0.75907214250E+01  0.28270450009E+02  0.69452410653E+02  0.00000000000E+00 0. -1.
         -5    1    5    5    0  502 -0.30607735516E+02 -0.61774027268E+01  0.84490986711E+02  0.90198728446E+02  0.47000000000E+01 0.  1.
         11    1    6    6    0    0  0.10551047163E+02  0.17664710994E+02  0.16695223131E+03  0.16821538025E+03  0.00000000000E+00 0. -1.
        -12    1    6    6    0    0  0.12724283335E+03  0.10060676471E+03  0.35385998042E+03  0.38926770415E+03  0.00000000000E+00 0.  1.
</event>
<event>
12    1  0.8052519E-002  0.2114670E+03  0.7818608E-02  0.1140520E+00
         21   -1    0    0  503  502  0.00000000000E+00  0.00000000000E+00  0.20932279406E+04  0.20932279406E+04  0.00000000000E+00 0.  1.
         21   -1    0    0  501  503 -0.00000000000E+00 -0.00000000000E+00 -0.23113958507E+02  0.23113958507E+02  0.00000000000E+00 0.  1.
          6    2    1    2  501    0  0.12294817047E+03 -0.87466427461E+01  0.13322418383E+04  0.13489205277E+04  0.17182990991E+03 0.  0.
         24    2    3    3    0    0  0.22898392988E+02  0.58254467253E+01  0.94346722846E+03  0.94718667174E+03  0.80460597261E+02 0.  0.
         -6    2    1    2    0  502 -0.12294817047E+03  0.87466427461E+01  0.73787214380E+03  0.76742137142E+03  0.17113592356E+03 0.  0.
        -24    2    5    5    0    0 -0.14608870360E+03 -0.23996740989E+02  0.54464036425E+03  0.57001766304E+03  0.79807624405E+02 0.  0.
          5    1    3    3  501    0  0.10004977748E+03 -0.14572089471E+02  0.38877460983E+03  0.40173385594E+03  0.47000000000E+01 0. -1.
        -11    1    4    4    0    0  0.39880982975E+02 -0.20855391536E+02  0.35064183403E+03  0.35351822574E+03  0.00000000000E+00 0.  1.
         12    1    4    4    0    0 -0.16982589987E+02  0.26680838261E+02  0.59282539443E+03  0.59366844600E+03  0.00000000000E+00 0. -1.
         -5    1    5    5    0  502  0.23140533133E+02  0.32743383736E+02  0.19323177955E+03  0.19740370838E+03  0.47000000000E+01 0.  1.
         13    1    6    6    0    0 -0.29786917605E+01  0.46133282044E+01 -0.65493132318E+00  0.55303107294E+01  0.00000000000E+00 0. -1.
        -14    1    6    6    0    0 -0.14311001184E+03 -0.28610069194E+02  0.54529529557E+03  0.56448735231E+03  0.00000000000E+00 0.  1.
</event>
<event>
12    1  0.8052519E-002  0.1761756E+03  0.7818608E-02  0.1171720E+00
         21   -1    0    0  501  502  0.00000000000E+00  0.00000000000E+00  0.25825752497E+03  0.25825752497E+03  0.00000000000E+00 0. -1.
         21   -1    0    0  502  503 -0.00000000000E+00 -0.00000000000E+00 -0.25639004257E+03  0.25639004257E+03  0.00000000000E+00 0. -1.
         -6    2    1    2    0  503  0.32559962397E+02  0.11213346577E+02 -0.18692996753E+03  0.25641839166E+03  0.17210952481E+03 0.  0.
        -24    2    3    3    0    0  0.25141868113E+02  0.66992263561E+02 -0.16246591000E+03  0.19488063241E+03  0.80394104680E+02 0.  0.
          6    2    1    2  501    0 -0.32559962397E+02 -0.11213346577E+02  0.18879744993E+03  0.25822917587E+03  0.17277713934E+03 0.  0.
         24    2    5    5    0    0  0.13398686950E+02  0.13924622937E+02  0.23902939276E+02  0.85149989935E+02  0.79408754832E+02 0.  0.
          5    1    5    5  501    0 -0.45958649347E+02 -0.25137969514E+02  0.16489451065E+03  0.17307918594E+03  0.47000000000E+01 0. -1.
        -11    1    6    6    0    0  0.44457794704E+02  0.22037810328E+02  0.14961629142E+02  0.51826739629E+02  0.00000000000E+00 0.  1.
         12    1    6    6    0    0 -0.31059107753E+02 -0.81131873906E+01  0.89413101347E+01  0.33323250307E+02  0.00000000000E+00 0. -1.
         -5    1    3    3    0  503  0.74180942840E+01 -0.55778916985E+02 -0.24464057525E+02  0.61537759249E+02  0.47000000000E+01 0.  1.
         13    1    4    4    0    0  0.17699298003E+02 -0.13774348610E+02 -0.16322772095E+02  0.27738614210E+02  0.00000000000E+00 0. -1.
        -14    1    4    4    0    0  0.74425701097E+01  0.80766612171E+02 -0.14614313791E+03  0.16714201820E+03  0.00000000000E+00 0.  1.
</event>
<event>
12    1  0.8052519E-002  0.1997021E+03  0.7818608E-02  0.1150316E+00
         21   -1    0    0  501  502  0.00000000000E+00  0.00000000000E+00  0.31813245913E+03  0.31813245913E+03  0.00000000000E+00 0.  1.
         21   -1    0    0  502  503 -0.00000000000E+00 -0.00000000000E+00 -0.14530656129E+03  0.14530656129E+03  0.00000000000E+00 0.  1.
         -6    2    1    2    0  503  0.90403735792E+02  0.39763053476E+02  0.17402528058E+03  0.26373327319E+03  0.17180368227E+03 0.  0.
        -24    2    3    3    0    0  0.64401543913E+02  0.81977017117E+02  0.16408087989E+03  0.21294829693E+03  0.86929004517E+02 0.  0.
          6    2    1    2  501    0 -0.90403735792E+02 -0.39763053476E+02 -0.11993827457E+01  0.19970574723E+03  0.17357134294E+03 0.  0.
         24    2    5    5    0    0 -0.89010476672E+02 -0.80210272481E+02 -0.33804985066E+02  0.14752209080E+03  0.79141882012E+02 0.  0.
          5    1    5    5  501    0 -0.13932591196E+01  0.40447219005E+02  0.32605602320E+02  0.52183656434E+02  0.47000000000E+01 0. -1.
        -13    1    6    6    0    0 -0.10380037080E+03 -0.67600389131E+02 -0.32378779969E+02  0.12803403837E+03  0.00000000000E+00 0.  1.
         14    1    6    6    0    0  0.14789894127E+02 -0.12609883350E+02 -0.14262050970E+01  0.19488052426E+02  0.00000000000E+00 0. -1.
         -5    1    3    3    0  503  0.26002191879E+02 -0.42213963640E+02  0.99444006870E+01  0.50784976260E+02  0.47000000000E+01 0.  1.
         11    1    4    4    0    0 -0.16537481383E+02  0.31092342381E+02  0.21435793958E+02  0.41227603712E+02  0.00000000000E+00 0. -1.
        -12    1    4    4    0    0  0.80939025296E+02  0.50884674736E+02  0.14264508594E+03  0.17172069322E+03  0.00000000000E+00 0.  1.
</event>
<event>
12    1  0.8052519E-002  0.1755591E+03  0.7818608E-02  0.1176527E+00
         21   -1    0    0  503  502  0.00000000000E+00  0.00000000000E+00  0.38605020905E+03  0.38605020905E+03  0.00000000000E+00 0. -1.
         21   -1    0    0  501  503 -0.00000000000E+00 -0.00000000000E+00 -0.85703880502E+02  0.85703880502E+02  0.00000000000E+00 0. -1.
          6    2    1    2  501    0  0.19403106797E+02 -0.38013633584E+02  0.63950125170E+02  0.18684379359E+03  0.17029230106E+03 0.  0.
         24    2    3    3    0    0  0.52174089145E+02  0.75312363327E+01 -0.55122863652E+01  0.97426854051E+02  0.81748097779E+02 0.  0.
         -6    2    1    2    0  502 -0.19403106797E+02  0.38013633584E+02  0.23639620338E+03  0.28491029597E+03  0.15319658901E+03 0.  0.
        -24    2    5    5    0    0 -0.39292523598E+02  0.82589397709E+01  0.67964364316E+02  0.11265378632E+03  0.80371688166E+02 0.  0.
          5    1    3    3  501    0 -0.32770982348E+02 -0.45544869917E+02  0.69462411535E+02  0.89416939536E+02  0.47000000000E+01 0. -1.
        -11    1    4    4    0    0  0.26582633701E+01  0.33306083534E+02  0.16693014655E+02  0.37349943813E+02  0.00000000000E+00 0.  1.
         12    1    4    4    0    0  0.49515825775E+02 -0.25774847201E+02 -0.22205301021E+02  0.60076910239E+02  0.00000000000E+00 0. -1.
         -5    1    5    5    0  502  0.19889416800E+02  0.29754693813E+02  0.16843183906E+03  0.17225650965E+03  0.47000000000E+01 0.  1.
         11    1    6    6    0    0 -0.14580983536E+02  0.16369507810E+02  0.80749836970E+02  0.83672588328E+02  0.00000000000E+00 0. -1.
        -12    1    6    6    0    0 -0.24711540062E+02 -0.81105680395E+01 -0.12785472653E+02  0.28981197993E+02  0.00000000000E+00 0.  1.
</event>
<event>
12    1  0.8052519E-002  0.2291967E+03  0.7818608E-02  0.1128303E+00
         21   -1    0    0  503  502  0.00000000000E+00  0.00000000000E+00  0.70630155723E+02  0.70630155723E+02  0.00000000000E+00 0. -1.
         21   -1    0    0  501  503 -0.00000000000E+00 -0.00000000000E+00 -0.79342022404E+03  0.79342022404E+03  0.00000000000E+00 0. -1.
          6    2    1    2  501    0 -0.13793262729E+03  0.61657090151E+02 -0.48468227371E+03  0.53355616244E+03  0.16412880794E+03 0.  0.
         24    2    3    3    0    0 -0.61349141425E+02  0.55997231884E+02 -0.41232703469E+03  0.42794160418E+03  0.78873480469E+02 0.  0.
         -6    2    1    2    0  502  0.13793262729E+03 -0.61657090151E+02 -0.23810779461E+03  0.33049421732E+03  0.17234877252E+03 0.  0.
        -24    2    5    5    0    0  0.97385704241E+02 -0.70690675540E+02 -0.24908465194E+03  0.28727107501E+03  0.77461988792E+02 0.  0.
          5    1    3    3  501    0 -0.76583485869E+02  0.56598582668E+01 -0.72355239017E+02  0.10561455826E+03  0.47000000000E+01 0. -1.
        -11    1    4    4    0    0  0.18693192160E+02  0.48069207792E+01 -0.80372452948E+02  0.82657565373E+02  0.00000000000E+00 0.  1.
         12    1    4    4    0    0 -0.80042333585E+02  0.51190311105E+02 -0.33195458174E+03  0.34528403881E+03  0.00000000000E+00 0. -1.
         -5    1    5    5    0  502  0.40546923053E+02  0.90335853887E+01  0.10976857331E+02  0.43223142307E+02  0.47000000000E+01 0.  1.
         11    1    6    6    0    0  0.77097329394E+02 -0.29264077864E+02 -0.21393170995E+03  0.22927529517E+03  0.00000000000E+00 0. -1.
        -12    1    6    6    0    0  0.20288374847E+02 -0.41426597676E+02 -0.35152941988E+02  0.57995779840E+02  0.00000000000E+00 0.  1.
</event>
<event>
12    1  0.8052519E-002  0.2526593E+03  0.7818608E-02  0.1111693E+00
         21   -1    0    0  503  502  0.00000000000E+00  0.00000000000E+00  0.28293167756E+03  0.28293167756E+03  0.00000000000E+00 0.  1.
         21   -1    0    0  501  503 -0.00000000000E+00 -0.00000000000E+00 -0.36513551894E+03  0.36513551894E+03  0.00000000000E+00 0. -1.
          6    2    1    2  501    0 -0.15317252179E+03 -0.10258958855E+03 -0.24161220505E+03  0.34932356200E+03  0.17223254114E+03 0.  0.
         24    2    3    3    0    0 -0.75942739148E+02 -0.11891007317E+03 -0.20902814285E+03  0.26379807659E+03  0.77393511209E+02 0.  0.
         -6    2    1    2    0  502  0.15317252179E+03  0.10258958855E+03  0.15940836368E+03  0.29874363450E+03  0.17277235785E+03 0.  0.
        -24    2    5    5    0    0  0.17718753481E+03  0.83487453833E+02  0.16364719631E+03  0.26741201942E+03  0.79769704963E+02 0.  0.
          5    1    3    3  501    0 -0.77229782639E+02  0.16320484627E+02 -0.32584062207E+02  0.85525485411E+02  0.47000000000E+01 0. -1.
        -13    1    4    4    0    0 -0.38360338764E+01 -0.64791531825E+02 -0.53870224174E+02  0.84348436884E+02  0.00000000000E+00 0.  1.
         14    1    4    4    0    0 -0.72106705271E+02 -0.54118541349E+02 -0.15515791867E+03  0.17944963970E+03  0.00000000000E+00 0. -1.
         -5    1    5    5    0  502 -0.24015013028E+02  0.19102134713E+02 -0.42388326370E+01  0.31331615079E+02  0.47000000000E+01 0.  1.
         11    1    6    6    0    0 -0.68878529987E+00 -0.10836835846E+01 -0.68134757125E+01  0.69334152180E+01  0.00000000000E+00 0. -1.
        -12    1    6    6    0    0  0.17787632011E+03  0.84571137418E+02  0.17046067202E+03  0.26047860421E+03  0.00000000000E+00 0.  1.
</event>
<event>
12    1  0.8052519E-002  0.1991209E+03  0.7818608E-02  0.1150674E+00
         21   -1    0    0  501  502  0.00000000000E+00  0.00000000000E+00  0.22313667391E+03  0.22313667391E+03  0.00000000000E+00 0. -1.
         21   -1    0    0  502  503 -0.00000000000E+00 -0.00000000000E+00 -0.21274550022E+03  0.21274550022E+03  0.00000000000E+00 0. -1.
         -6    2    1    2    0  503  0.49698836630E+02 -0.85441056484E+02 -0.84287154473E+02  0.21539834497E+03  0.17181959758E+03 0.  0.
        -24    2    3    3    0    0  0.10497785330E+02 -0.11172700100E+03 -0.94369999755E+02  0.16690682952E+03  0.79743756100E+02 0.  0.
          6    2    1    2  501    0 -0.49698836630E+02  0.85441056484E+02  0.94678328167E+02  0.22048382916E+03  0.17285538639E+03 0.  0.
         24    2    5    5    0    0 -0.52009845740E+00  0.35405019456E+01 -0.44414869335E+01  0.82741036730E+02  0.82544210557E+02 0.  0.
          5    1    5    5  501    0 -0.49178738173E+02  0.81900554539E+02  0.99119815100E+02  0.13774279243E+03  0.47000000000E+01 0. -1.
        -13    1    6    6    0    0 -0.11371896482E+01  0.46163759264E+01  0.38996546692E+02  0.39285299806E+02  0.00000000000E+00 0.  1.
         14    1    6    6    0    0  0.61709119081E+00 -0.10758739808E+01 -0.43438033625E+02  0.43455736924E+02  0.00000000000E+00 0. -1.
         -5    1    3    3    0  503  0.39201051300E+02  0.26285944513E+02  0.10082845282E+02  0.48491515453E+02  0.47000000000E+01 0.  1.
         13    1    4    4    0    0  0.16474128949E+02 -0.70578638645E+01 -0.49908525888E+02  0.53028966832E+02  0.00000000000E+00 0. -1.
        -14    1    4    4    0    0 -0.59763436192E+01 -0.10466913713E+03 -0.44461473867E+02  0.11387786268E+03  0.00000000000E+00 0.  1.
</event>
<event>
12    1  0.8052519E-002  0.2130753E+03  0.7818608E-02  0.1139537E+00
         21   -1    0    0  501  502  0.00000000000E+00  0.00000000000E+00  0.79890556608E+02  0.79890556608E+02  0.00000000000E+00 0. -1.
         21   -1    0    0  502  503 -0.00000000000E+00 -0.00000000000E+00 -0.57827732550E+03  0.57827732550E+03  0.00000000000E+00 0.  1.
         -6    2    1    2    0  503  0.37027885815E+01  0.12138846181E+03 -0.19470808142E+03  0.28719373414E+03  0.17268507364E+03 0.  0.
        -24    2    3    3    0    0 -0.39394566868E+02  0.12459931949E+03 -0.18746184329E+03  0.24312231914E+03  0.83003596645E+02 0.  0.
          6    2    1    2  501    0 -0.37027885815E+01 -0.12138846181E+03 -0.30367868747E+03  0.37097414796E+03  0.17507770825E+03 0.  0.
         24    2    5    5    0    0 -0.70497619193E+02 -0.74686467428E+02 -0.20322509414E+03  0.24153056917E+03  0.80551810840E+02 0.  0.
          5    1    5    5  501    0  0.66794830611E+02 -0.46701994385E+02 -0.10045359334E+03  0.12944357879E+03  0.47000000000E+01 0. -1.
        -11    1    6    6    0    0 -0.41281463672E+02 -0.46966854833E+02 -0.18858015731E+03  0.19867692475E+03  0.00000000000E+00 0.  1.
         12    1    6    6    0    0 -0.29216155521E+02 -0.27719612595E+02 -0.14644936824E+02  0.42853644425E+02  0.00000000000E+00 0. -1.
         -5    1    3    3    0  503  0.43097355449E+02 -0.32108576817E+01 -0.72462381315E+01  0.44071415008E+02  0.47000000000E+01 0.  1.
         11    1    4    4    0    0  0.44291238104E+01  0.54511676693E+02 -0.23548201635E+02  0.59545426641E+02  0.00000000000E+00 0. -1.
        -12    1    4    4    0    0 -0.43823690678E+02  0.70087642802E+02 -0.16391364165E+03  0.18357689249E+03  0.00000000000E+00 0.  1.
</event>
<event>
12    1  0.8052519E-002  0.2103650E+03  0.7818608E-02  0.1142444E+00
         21   -1    0    0  501  502  0.00000000000E+00  0.00000000000E+00  0.32370450160E+02  0.32370450160E+02  0.00000000000E+00 0.  1.
         21   -1    0    0  502  503 -0.00000000000E+00 -0.00000000000E+00 -0.17317045709E+04  0.17317045709E+04  0.00000000000E+00 0.  1.
         -6    2    1    2    0  503 -0.96563951305E+01 -0.12357935838E+03 -0.12655465989E+04  0.12819702275E+04  0.16270945416E+03 0.  0.
        -24    2    3    3    0    0  0.28914052801E+02 -0.10190114271E+02 -0.54955919908E+03  0.55601923273E+03  0.78754130016E+02 0.  0.
          6    2    1    2  501    0  0.96563951305E+01  0.12357935838E+03 -0.43378752190E+03  0.48210479360E+03  0.16996562614E+03 0.  0.
         24    2    5    5    0    0 -0.34258519790E+02  0.61323538800E+02 -0.12511158953E+03  0.16413116568E+03  0.79698852721E+02 0.  0.
          5    1    5    5  501    0  0.43914914921E+02  0.62255819584E+02 -0.30867593238E+03  0.31797362792E+03  0.47000000000E+01 0. -1.
        -13    1    6    6    0    0 -0.59603556648E+02  0.52358928592E+02 -0.92141780673E+02  0.12159008641E+03  0.00000000000E+00 0.  1.
         14    1    6    6    0    0  0.25345036858E+02  0.89646102081E+01 -0.32969808852E+02  0.42541079268E+02  0.00000000000E+00 0. -1.
         -5    1    3    3    0  503 -0.38570447931E+02 -0.11338924411E+03 -0.71598739977E+03  0.72595099474E+03  0.47000000000E+01 0.  1.
         11    1    4    4    0    0 -0.21821285175E+02 -0.43455911698E+01 -0.63517249636E+02  0.67301512989E+02  0.00000000000E+00 0. -1.
        -12    1    4    4    0    0  0.50735337976E+02 -0.58445231015E+01 -0.48604194945E+03  0.48871771974E+03  0.00000000000E+00 0.  1.
</event>
<event>
12    1  0.8052519E-002  0.2077644E+03  0.7818608E-02  0.1143583E+00
         21   -1    0    0  501  502  0.00000000000E+00  0.00000000000E+00  0.21837516879E+03  0.21837516879E+03  0.00000000000E+00 0. -1.
         21   -1    0    0  502  503 -0.00000000000E+00 -0.00000000000E+00 -0.22442604140E+03  0.22442604140E+03  0.00000000000E+00 0. -1.
         -6    2    1    2    0  503 -0.58814741035E+02 -0.10224858874E+03 -0.81041349204E+02  0.22301061682E+03  0.17103241585E+03 0.  0.
        -24    2    3    3    0    0 -0.10482954697E+03 -0.89751574286E+02 -0.67990535617E+02  0.17335226937E+03  0.79898168680E+02 0.  0.
          6    2    1    2  501    0  0.58814741035E+02  0.10224858874E+03  0.74990476591E+02  0.21979059337E+03  0.16961835305E+03 0.  0.
         24    2    5    5    0    0 -0.27244772012E+02  0.42917878373E+02  0.29554366902E+01  0.92757094041E+02  0.77530136095E+02 0.  0.
          5    1    5    5  501    0  0.86059513048E+02  0.59330710368E+02  0.72035039901E+02  0.12703349933E+03  0.47000000000E+01 0. -1.
        -13    1    6    6    0    0 -0.13252935689E+02  0.22574400372E+02 -0.37278366337E+02  0.45551294749E+02  0.00000000000E+00 0.  1.
         14    1    6    6    0    0 -0.13991836323E+02  0.20343478001E+02  0.40233803027E+02  0.47205799293E+02  0.00000000000E+00 0. -1.
         -5    1    3    3    0  503  0.46014805937E+02 -0.12497014455E+02 -0.13050813587E+02  0.49658347445E+02  0.47000000000E+01 0.  1.
         13    1    4    4    0    0 -0.52795233742E+02 -0.90097214688E+02 -0.29147187675E+02  0.10841772618E+03  0.00000000000E+00 0. -1.
        -14    1    4    4    0    0 -0.52034313230E+02  0.34564040179E+00 -0.38843347942E+02  0.64934543195E+02  0.00000000000E+00 0.  1.
</event>
<event>
12    1  0.8052519E-002  0.1879520E+03  0.7818608E-02  0.1163015E+00
         21   -1    0    0  501  502  0.00000000000E+00  0.00000000000E+00  0.26798783538E+03  0.26798783538E+03  0.00000000000E+00 0.  1.
         21   -1    0    0  502  503 -0.00000000000E+00 -0.00000000000E+00 -0.19055914310E+03  0.19055914310E+03  0.00000000000E+00 0.  1.
         -6    2    1    2    0  503  0.13356481746E+02 -0.69985122211E+02 -0.97579953954E+02  0.20173194361E+03  0.16154756799E+03 0.  0.
        -24    2    3    3    0    0  0.56455557407E+02 -0.81773135551E+02 -0.52095731409E+02  0.13779922834E+03  0.80003665162E+02 0.  0.
          6    2    1    2  501    0 -0.13356481746E+02  0.69985122211E+02  0.17500864623E+03  0.25681503487E+03  0.17392418736E+03 0.  0.
         24    2    5    5    0    0  0.76622853963E+01  0.20291476788E+01  0.16755424472E+03  0.18513894996E+03  0.78352905572E+02 0.  0.
          5    1    5    5  501    0 -0.21018767142E+02  0.67955974532E+02  0.74544015094E+01  0.71676084914E+02  0.47000000000E+01 0. -1.
        -11    1    6    6    0    0  0.13195251989E+02  0.17687879266E+02  0.16707340511E+03  0.16852447431E+03  0.00000000000E+00 0.  1.
         12    1    6    6    0    0 -0.55329665931E+01 -0.15658731588E+02  0.48083960834E+00  0.16614475646E+02  0.00000000000E+00 0. -1.
         -5    1    3    3    0  503 -0.43099075661E+02  0.11788013340E+02 -0.45484222545E+02  0.63932715271E+02  0.47000000000E+01 0.  1.
         13    1    4    4    0    0  0.35743382787E+02 -0.62630864685E+02  0.68667674625E+01  0.72438712852E+02  0.00000000000E+00 0. -1.
        -14    1    4    4    0    0  0.20712174620E+02 -0.19142270866E+02 -0.58962498871E+02  0.65360515486E+02  0.00000000000E+00 0.  1.
</event>
<event>
12    1  0.8052519E-002  0.1964957E+03  0.7818608E-02  0.1152736E+00
         21   -1    0    0  503  502  0.00000000000E+00  0.00000000000E+00  0.13635265684E+03  0.13635265684E+03  0.00000000000E+00 0.  1.
         21   -1    0    0  501  503 -0.00000000000E+00 -0.00000000000E+00 -0.84239946784E+03  0.84239946784E+03  0.00000000000E+00 0.  1.
          6    2    1    2  501    0  0.52608646796E+02 -0.77491922127E+02 -0.75176008525E+03  0.77700907418E+03  0.17270555254E+03 0.  0.
         24    2    3    3    0    0  0.16410032890E+02 -0.11149558576E+03 -0.43123261808E+03  0.45262267496E+03  0.78772839055E+02 0.  0.
         -6    2    1    2    0  502 -0.52608646796E+02  0.77491922127E+02  0.45713274247E+02  0.20174305051E+03  0.17273646770E+03 0.  0.
        -24    2    5    5    0    0  0.18000574065E+02  0.53217028739E+02  0.73884509233E+02  0.12180156566E+03  0.78870957122E+02 0.  0.
          5    1    3    3  501    0  0.36198613906E+02  0.34003663629E+02 -0.32052746717E+03  0.32438639922E+03  0.47000000000E+01 0. -1.
        -13    1    4    4    0    0  0.14639877725E+02  0.29552747249E+01 -0.12152808457E+03  0.12244237424E+03  0.00000000000E+00 0.  1.
         14    1    4    4    0    0  0.17701551653E+01 -0.11445086048E+03 -0.30970453350E+03  0.33018030073E+03  0.00000000000E+00 0. -1.
         -5    1    5    5    0  502 -0.70609220862E+02  0.24274893387E+02 -0.28171234986E+02  0.79941484852E+02  0.47000000000E+01 0.  1.
         11    1    6    6    0    0  0.31560628998E+02 -0.81786800396E+01  0.35198110923E+02  0.47977819068E+02  0.00000000000E+00 0. -1.
        -12    1    6    6    0    0 -0.13560054933E+02  0.61395708779E+02  0.38686398310E+02  0.73823746589E+02  0.00000000000E+00 0.  1.
</event>
<event>
12    1  0.8052519E-002  0.2188467E+03  0.7818608E-02  0.1134987E+00
         21   -1    0    0  503  502  0.00000000000E+00  0.00000000000E+00  0.41976449415E+03  0.41976449415E+03  0.00000000000E+00 0.  1.
         21   -1    0    0  501  503 -0.00000000000E+00 -0.00000000000E+00 -0.41749114890E+03  0.41749114890E+03  0.00000000000E+00 0. -1.
          6    2    1    2  501    0 -0.11638552989E+03  0.66546558802E+02 -0.35612364516E+03  0.41732435244E+03  0.17135205993E+03 0.  0.
         24    2    3    3    0    0 -0.77133146382E+02  0.10843101896E+03 -0.21793995906E+03  0.26761837822E+03  0.80093460793E+02 0.  0.
         -6    2    1    2    0  502  0.11638552989E+03 -0.66546558802E+02  0.35839699040E+03  0.41993129061E+03  0.17297355302E+03 0.  0.
        -24    2    5    5    0    0 -0.33072268550E+01  0.14149562102E+01  0.10483689227E+03  0.13138331036E+03  0.79106639480E+02 0.  0.
          5    1    3    3  501    0 -0.39252383503E+02 -0.41884460160E+02 -0.13818368610E+03  0.14970597422E+03  0.47000000000E+01 0. -1.
        -11    1    4    4    0    0 -0.14216188851E+02  0.56165700393E+02 -0.36189020669E+02  0.68310549281E+02  0.00000000000E+00 0.  1.
         12    1    4    4    0    0 -0.62916957531E+02  0.52265318569E+02 -0.18175093839E+03  0.19930782894E+03  0.00000000000E+00 0. -1.
         -5    1    5    5    0  502  0.11969275674E+03 -0.67961515012E+02  0.25356009813E+03  0.28854798025E+03  0.47000000000E+01 0.  1.
         11    1    6    6    0    0  0.37571428292E+02  0.59861766327E+01  0.51397404662E+02  0.63946381763E+02  0.00000000000E+00 0. -1.
        -12    1    6    6    0    0 -0.40878655148E+02 -0.45712204225E+01  0.53439487607E+02  0.67436928597E+02  0.00000000000E+00 0.  1.
</event>
<event>
12    1  0.8052519E-002  0.4226584E+03  0.7818608E-02  0.1036206E+00
         21   -1    0    0  501  502  0.00000000000E+00  0.00000000000E+00  0.21205660648E+03  0.21205660648E+03  0.00000000000E+00 0.  1.
         21   -1    0    0  502  503 -0.00000000000E+00 -0.00000000000E+00 -0.94765115206E+03  0.94765115206E+03  0.00000000000E+00 0. -1.
         -6    2    1    2    0  503  0.50029717250E+02 -0.38200755912E+03 -0.56105793678E+03  0.70242977795E+03  0.17374935020E+03 0.  0.
        -24    2    3    3    0    0 -0.27488968894E+01 -0.95633092981E+02 -0.13660344442E+03  0.18766806313E+03  0.86055540103E+02 0.  0.
          6    2    1    2  501    0 -0.50029717250E+02  0.38200755912E+03 -0.17453660881E+03  0.45727798059E+03  0.17380269238E+03 0.  0.
         24    2    5    5    0    0 -0.90884362313E+02  0.19818300193E+03 -0.67480357885E+02  0.24061303024E+03  0.76187676496E+02 0.  0.
          5    1    5    5  501    0  0.40854645063E+02  0.18382455719E+03 -0.10705625092E+03  0.21666495035E+03  0.47000000000E+01 0. -1.
        -13    1    6    6    0    0  0.61829303428E+01  0.18070783897E+02  0.10329819182E+02  0.21713751924E+02  0.00000000000E+00 0.  1.
         14    1    6    6    0    0 -0.97067292656E+02  0.18011221804E+03 -0.77810177067E+02  0.21889927831E+03  0.00000000000E+00 0. -1.
         -5    1    3    3    0  503  0.52778614140E+02 -0.28637446614E+03 -0.42445449236E+03  0.51476171482E+03  0.47000000000E+01 0.  1.
         13    1    4    4    0    0  0.34695082091E+02 -0.18808012739E+02 -0.23591417939E+02  0.45978745795E+02  0.00000000000E+00 0. -1.
        -14    1    4    4    0    0 -0.37443978981E+02 -0.76825080242E+02 -0.11301202648E+03  0.14168931733E+03  0.00000000000E+00 0.  1.
</event>
<event>
12    1  0.8052519E-002  0.1759320E+03  0.7818608E-02  0.1172451E+00
         21   -1    0    0  503  502  0.00000000000E+00  0.00000000000E+00  0.26292030530E+02  0.26292030530E+02  0.00000000000E+00 0. -1.
         21   -1    0    0  501  503 -0.00000000000E+00 -0.00000000000E+00 -0.16934217555E+04  0.16934217555E+04  0.00000000000E+00 0. -1.
          6    2    1    2  501    0 -0.19270431388E+02 -0.59394730766E+01 -0.13204154466E+04  0.13320844637E+04  0.17477253820E+03 0.  0.
         24    2    3    3    0    0  0.51069047898E+02 -0.17207532345E+01 -0.54811792503E+03  0.55656464341E+03  0.81975202985E+02 0.  0.
         -6    2    1    2    0  502  0.19270431388E+02  0.59394730766E+01 -0.34671427844E+03  0.38762932234E+03  0.17216002380E+03 0.  0.
        -24    2    5    5    0    0 -0.47828994457E+02  0.94706043544E+01 -0.11768487221E+03  0.14890068821E+03  0.77099810268E+02 0.  0.
          5    1    3    3  501    0 -0.70339479287E+02 -0.42187198421E+01 -0.77229752154E+03  0.77551982033E+03  0.47000000000E+01 0. -1.
        -13    1    4    4    0    0  0.46887535581E+01  0.33470234261E+02 -0.28997526647E+03  0.29193817181E+03  0.00000000000E+00 0.  1.
         14    1    4    4    0    0  0.46380294340E+02 -0.35190987496E+02 -0.25814265856E+03  0.26462647160E+03  0.00000000000E+00 0. -1.
         -5    1    5    5    0  502  0.67099425846E+02 -0.35311312778E+01 -0.22902940623E+03  0.23872863413E+03  0.47000000000E+01 0.  1.
         11    1    6    6    0    0 -0.61175626079E+02  0.23708078920E+02 -0.10968459967E+03  0.12780939573E+03  0.00000000000E+00 0. -1.
        -12    1    6    6    0    0  0.13346631621E+02 -0.14237474565E+02 -0.80002725439E+01  0.21091292478E+02  0.00000000000E+00 0.  1.
</event>
<event>
12    1  0.8052519E-002  0.1980894E+03  0.7818608E-02  0.1151787E+00
         21   -1    0    0  501  502  0.00000000000E+00  0.00000000000E+00  0.20201715822E+03  0.20201715822E+03  0.00000000000E+00 0. -1.
         21   -1    0    0  502  503 -0.00000000000E+00 -0.00000000000E+00 -0.23376078681E+03  0.23376078681E+03  0.00000000000E+00 0. -1.
         -6    2    1    2    0  503 -0.47475430335E+02  0.85028987143E+02 -0.10757169868E+03  0.22367111043E+03  0.17021530526E+03 0.  0.
        -24    2    3    3    0    0 -0.22065837419E+02  0.12409563901E+03 -0.79936278265E+02  0.16928676377E+03  0.79884735735E+02 0.  0.
          6    2    1    2  501    0  0.47475430335E+02 -0.85028987143E+02  0.75828070088E+02  0.21210683460E+03  0.17249802297E+03 0.  0.
         24    2    5    5    0    0  0.14660376463E+02 -0.54581643539E+02 -0.25506567693E+02  0.10122551378E+03  0.80012106548E+02 0.  0.
          5    1    5    5  501    0  0.32815053872E+02 -0.30447343604E+02  0.10133463778E+03  0.11088132082E+03  0.47000000000E+01 0. -1.
        -13    1    6    6    0    0 -0.25911269218E+02 -0.31798300775E+02  0.10556759536E+02  0.42355294552E+02  0.00000000000E+00 0.  1.
         14    1    6    6    0    0  0.40571645681E+02 -0.22783342764E+02 -0.36063327228E+02  0.58870219225E+02  0.00000000000E+00 0. -1.
         -5    1    3    3    0  503 -0.25409592916E+02 -0.39066651863E+02 -0.27635420410E+02  0.54384346656E+02  0.47000000000E+01 0.  1.
         13    1    4    4    0    0 -0.31645980446E+02  0.19646348703E+02 -0.45691062083E+02  0.58950150551E+02  0.00000000000E+00 0. -1.
        -14    1    4    4    0    0  0.95801430263E+01  0.10444929030E+03 -0.34245216182E+02  0.11033661322E+03  0.00000000000E+00 0.  1.
</event>
<event>
12    1  0.8052519E-002  0.1860969E+03  0.7818608E-02  0.1162808E+00
         21   -1    0    0  501  502  0.00000000000E+00  0.00000000000E+00  0.22784657453E+03  0.22784657453E+03  0.00000000000E+00 0.  1.
         21   -1    0    0  502  503 -0.00000000000E+00 -0.00000000000E+00 -0.42265560413E+03  0.42265560413E+03  0.00000000000E+00 0. -1.
         -6    2    1    2    0  503  0.30733511359E+02 -0.55975601614E+02 -0.35866596387E+03  0.40254824051E+03  0.17124834481E+03 0.  0.
        -24    2    3    3    0    0  0.47086982854E+02  0.60547207922E+01 -0.30770615427E+03  0.32048613523E+03  0.75989748677E+02 0.  0.
          6    2    1    2  501    0 -0.30733511359E+02  0.55975601614E+02  0.16385693427E+03  0.24795393815E+03  0.17479772263E+03 0.  0.
         24    2    5    5    0    0 -0.30133072561E+02 -0.32247103101E+02  0.11772179913E+03  0.14828374778E+03  0.78624233826E+02 0.  0.
          5    1    5    5  501    0 -0.60043879801E+00  0.88222704715E+02  0.46135135145E+02  0.99670190372E+02  0.47000000000E+01 0. -1.
        -13    1    6    6    0    0 -0.21854311274E+02  0.24346126300E+02  0.48265710261E+02  0.58308863598E+02  0.00000000000E+00 0.  1.
         14    1    6    6    0    0 -0.82787612866E+01 -0.56593229401E+02  0.69456088868E+02  0.89974884180E+02  0.00000000000E+00 0. -1.
         -5    1    3    3    0  503 -0.16353471495E+02 -0.62030322407E+02 -0.50959809608E+02  0.82062105281E+02  0.47000000000E+01 0.  1.
         13    1    4    4    0    0  0.52158129454E+02 -0.24399705171E+02 -0.17476775862E+03  0.18400974304E+03  0.00000000000E+00 0. -1.
        -14    1    4    4    0    0 -0.50711465995E+01  0.30454425964E+02 -0.13293839565E+03  0.13647639219E+03  0.00000000000E+00 0.  1.
</event>
<event>
12    1  0.8052519E-002  0.1771792E+03  0.7818608E-02  0.1170595E+00
         21   -1    0    0  503  502  0.00000000000E+00  0.00000000000E+00  0.43019862813E+03  0.43019862813E+03  0.00000000000E+00 0.  1.
         21   -1    0    0  501  503 -0.00000000000E+00 -0.00000000000E+00 -0.10002966571E+03  0.10002966571E+03  0.00000000000E+00 0.  1.
          6    2    1    2  501    0  0.27565668167E+02 -0.32040769779E+02  0.27013886410E+02  0.17909373852E+03  0.17192539117E+03 0.  0.
         24    2    3    3    0    0  0.60504938643E+01 -0.71915687819E+02 -0.25244460782E+02  0.10976887527E+03  0.78761973988E+02 0.  0.
         -6    2    1    2    0  502 -0.27565668167E+02  0.32040769779E+02  0.30315507601E+03  0.35113455532E+03  0.17206393823E+03 0.  0.
        -24    2    5    5    0    0 -0.75755863099E+01  0.87767515088E+02  0.22542450756E+03  0.25331224301E+03  0.74768694209E+02 0.  0.
          5    1    3    3  501    0  0.21515174302E+02  0.39874918040E+02  0.52258347192E+02  0.69324863254E+02  0.47000000000E+01 0. -1.
        -13    1    4    4    0    0  0.21737829372E+02 -0.60714145203E+02 -0.47672093264E+02  0.80195817408E+02  0.00000000000E+00 0.  1.
         14    1    4    4    0    0 -0.15687335508E+02 -0.11201542615E+02  0.22427632482E+02  0.29573057858E+02  0.00000000000E+00 0. -1.
         -5    1    5    5    0  502 -0.19990081857E+02 -0.55726745309E+02  0.77730568450E+02  0.97822312316E+02  0.47000000000E+01 0.  1.
         13    1    6    6    0    0 -0.23868116067E+02  0.70851500512E+02  0.95511321925E+02  0.12129317666E+03  0.00000000000E+00 0. -1.
        -14    1    6    6    0    0  0.16292529757E+02  0.16916014576E+02  0.12991318564E+03  0.13201906634E+03  0.00000000000E+00 0.  1.
</event>
<event>
12    1  0.8052519E-002  0.2288040E+03  0.7818608E-02  0.1127520E+00
         21   -1    0    0  501  502  0.00000000000E+00  0.00000000000E+00  0.21495917562E+03  0.21495917562E+03  0.00000000000E+00 0.  1.
         21   -1    0    0  502  503 -0.00000000000E+00 -0.00000000000E+00 -0.24406787463E+03  0.24406787463E+03  0.00000000000E+00 0. -1.
         -6    2    1    2    0  503 -0.11952426431E+03 -0.92888700480E+02 -0.27195532303E+02  0.23041457297E+03  0.17157190336E+03 0.  0.
        -24    2    3    3    0    0 -0.21797579885E+02  0.13405598315E+02  0.50392181136E+01  0.82393790850E+02  0.78156883870E+02 0.  0.
          6    2    1    2  501    0  0.11952426431E+03  0.92888700480E+02 -0.19131667062E+01  0.22861247728E+03  0.17130570371E+03 0.  0.
         24    2    5    5    0    0  0.14043330348E+03  0.85466763660E+02  0.34702196021E+02  0.18554221082E+03  0.78712064954E+02 0.  0.
          5    1    5    5  501    0 -0.20909039172E+02  0.74219368194E+01 -0.36615362727E+02  0.43070266460E+02  0.47000000000E+01 0. -1.
        -13    1    6    6    0    0 -0.32540095631E+01  0.14675175097E+01  0.17905536748E+02  0.18257886847E+02  0.00000000000E+00 0.  1.
         14    1    6    6    0    0  0.14368731304E+03  0.83999246151E+02  0.16796659273E+02  0.16728432397E+03  0.00000000000E+00 0. -1.
         -5    1    3    3    0  503 -0.97726684424E+02 -0.10629429879E+03 -0.32234750417E+02  0.14802078212E+03  0.47000000000E+01 0.  1.
         13    1    4    4    0    0 -0.16870447864E+02  0.12682809124E+02 -0.35634702366E+02  0.41416152297E+02  0.00000000000E+00 0. -1.
        -14    1    4    4    0    0 -0.49271320205E+01  0.72278919162E+00  0.40673920479E+02  0.40977638552E+02  0.00000000000E+00 0.  1.
</event>
<event>
12    1  0.8052519E-002  0.1835958E+03  0.7818608E-02  0.1164791E+00
         21   -1    0    0  501  502  0.00000000000E+00  0.00000000000E+00  0.24608851119E+03  0.24608851119E+03  0.00000000000E+00 0. -1.
         21   -1    0    0  502  503 -0.00000000000E+00 -0.00000000000E+00 -0.13570760173E+03  0.13570760173E+03  0.00000000000E+00 0. -1.
         -6    2    1    2    0  503  0.53230860758E+02 -0.28782839329E+02  0.59071448873E+02  0.19116534012E+03  0.17144321163E+03 0.  0.
        -24    2    3    3    0    0 -0.29315760705E+02 -0.23673932162E+02  0.61676790978E+02  0.10828637140E+03  0.80635245375E+02 0.  0.
          6    2    1    2  501    0 -0.53230860758E+02  0.28782839329E+02  0.51309460594E+02  0.19063077280E+03  0.17333624669E+03 0.  0.
         24    2    5    5    0    0 -0.38868198427E+02 -0.54244421332E+02  0.32091905317E+02  0.10407895877E+03  0.73139217773E+02 0.  0.
          5    1    5    5  501    0 -0.14362662330E+02  0.83027260661E+02  0.19217555277E+02  0.86551814036E+02  0.47000000000E+01 0. -1.
        -13    1    6    6    0    0 -0.43373525543E+02 -0.26059965213E+02  0.49385953703E+02  0.70706130767E+02  0.00000000000E+00 0.  1.
         14    1    6    6    0    0  0.45053271151E+01 -0.28184456119E+02 -0.17294048386E+02  0.33372828000E+02  0.00000000000E+00 0. -1.
         -5    1    3    3    0  503  0.82546621463E+02 -0.51089071666E+01 -0.26053421051E+01  0.82878968712E+02  0.47000000000E+01 0.  1.
         11    1    4    4    0    0  0.14216365670E+02 -0.14989993247E+02 -0.10788006656E+02  0.23306351882E+02  0.00000000000E+00 0. -1.
        -12    1    4    4    0    0 -0.43532126375E+02 -0.86839389151E+01  0.72464797635E+02  0.84980019523E+02  0.00000000000E+00 0.  1.
</event>
<event>
12    1  0.8052519E-002  0.1709572E+03  0.7818608E-02  0.1177388E+00
         21   -1    0    0  501  502  0.00000000000E+00  0.00000000000E+00  0.69996235605E+03  0.69996235605E+03  0.00000000000E+00 0.  1.
         21   -1    0    0  502  503 -0.00000000000E+00 -0.00000000000E+00 -0.41888456724E+02  0.41888456724E+02  0.00000000000E+00 0.  1.
         -6    2    1    2    0  503 -0.73710088489E+01  0.19391034438E+02  0.28142889201E+03  0.32822318028E+03  0.16762425488E+03 0.  0.
        -24    2    3    3    0    0 -0.58583010585E+02  0.42717959561E+02  0.21720220193E+03  0.24270141535E+03  0.80438717615E+02 0.  0.
          6    2    1    2  501    0  0.73710088489E+01 -0.19391034438E+02  0.37664500731E+03  0.41362763249E+03  0.16969387980E+03 0.  0.
         24    2    5    5    0    0  0.68974630343E+02 -0.11526241879E+02  0.25164073188E+03  0.27396725866E+03  0.82732381772E+02 0.  0.
          5    1    5    5  501    0 -0.61603621494E+02 -0.78647925595E+01  0.12500427543E+03  0.13966037383E+03  0.47000000000E+01 0. -1.
        -13    1    6    6    0    0 -0.11866051548E+02  0.18528756892E+02  0.47053757608E+02  0.51943951682E+02  0.00000000000E+00 0.  1.
         14    1    6    6    0    0  0.80840681891E+02 -0.30054998770E+02  0.20458697427E+03  0.22202330698E+03  0.00000000000E+00 0. -1.
         -5    1    3    3    0  503  0.51212001736E+02 -0.23326925123E+02  0.64226690086E+02  0.85521764931E+02  0.47000000000E+01 0.  1.
         13    1    4    4    0    0 -0.57594172533E+00  0.34537275769E+02  0.27475980850E+02  0.44137111936E+02  0.00000000000E+00 0. -1.
        -14    1    4    4    0    0 -0.58007068860E+02  0.81806837915E+01  0.18972622108E+03  0.19856430341E+03  0.00000000000E+00 0.  1.
</event>
<event>
12    1  0.8052519E-002  0.1760087E+03  0.7818608E-02  0.1171775E+00
         21   -1    0    0  503  502  0.00000000000E+00  0.00000000000E+00  0.64519668215E+03  0.64519668215E+03  0.00000000000E+00 0.  1.
         21   -1    0    0  501  503 -0.00000000000E+00 -0.00000000000E+00 -0.71549379337E+02  0.71549379337E+02  0.00000000000E+00 0.  1.
          6    2    1    2  501    0  0.36785160776E+02 -0.65595134235E+01  0.81155165225E+02  0.19381754341E+03  0.17199681399E+03 0.  0.
         24    2    3    3    0    0  0.16617927270E+02 -0.66910225707E+02  0.87551129159E+02  0.12969325679E+03  0.66347621123E+02 0.  0.
         -6    2    1    2    0  502 -0.36785160776E+02  0.65595134235E+01  0.49249213759E+03  0.52292851808E+03  0.17178345135E+03 0.  0.
        -24    2    5    5    0    0 -0.32423333791E+02 -0.55116146723E+02  0.34701725729E+03  0.36478951787E+03  0.92527581205E+02 0.  0.
          5    1    3    3  501    0  0.20167233506E+02  0.60350712283E+02 -0.63959639341E+01  0.64124286624E+02  0.47000000000E+01 0. -1.
        -11    1    4    4    0    0  0.12730527644E+02  0.91165049373E+01  0.31437029345E+02  0.35120703444E+02  0.00000000000E+00 0.  1.
         12    1    4    4    0    0  0.38873996259E+01 -0.76026730644E+02  0.56114099814E+02  0.94572553345E+02  0.00000000000E+00 0. -1.
         -5    1    5    5    0  502 -0.43618269854E+01  0.61675660146E+02  0.14547488030E+03  0.15813900021E+03  0.47000000000E+01 0.  1.
         11    1    6    6    0    0  0.74678779221E+01 -0.95512484570E+01  0.25084887374E+03  0.25114169905E+03  0.00000000000E+00 0. -1.
        -12    1    6    6    0    0 -0.39891211713E+02 -0.45564898266E+02  0.96168383558E+02  0.11364781882E+03  0.00000000000E+00 0.  1.
</event>
<event>
12    1  0.8052519E-002  0.1767238E+03  0.7818608E-02  0.1171276E+00
         21   -1    0    0  501  502  0.00000000000E+00  0.00000000000E+00  0.85452265812E+02  0.85452265812E+02  0.00000000000E+00 0.  1.
         21   -1    0    0  502  503 -0.00000000000E+00 -0.00000000000E+00 -0.39584121884E+03  0.39584121884E+03  0.00000000000E+00 0.  1.
         -6    2    1    2    0  503  0.84592224941E+01 -0.31837861926E+02 -0.22463590554E+03  0.28581915504E+03  0.17362629821E+03 0.  0.
        -24    2    3    3    0    0  0.58639569762E+00  0.20085258800E+02 -0.21794283077E+03  0.23266956315E+03  0.78944832968E+02 0.  0.
          6    2    1    2  501    0 -0.84592224941E+01  0.31837861926E+02 -0.85753047483E+02  0.19547432961E+03  0.17254396682E+03 0.  0.
         24    2    5    5    0    0 -0.42790759791E+02  0.45047677975E+02 -0.11067626104E+03  0.15079312252E+03  0.81418601240E+02 0.  0.
          5    1    5    5  501    0  0.34331537297E+02 -0.13209816049E+02  0.24923213555E+02  0.44681207091E+02  0.47000000000E+01 0. -1.
        -13    1    6    6    0    0 -0.96907965283E+01 -0.19761689568E+02 -0.54763951765E+02  0.59021405650E+02  0.00000000000E+00 0.  1.
         14    1    6    6    0    0 -0.33099963262E+02  0.64809367543E+02 -0.55912309273E+02  0.91771716871E+02  0.00000000000E+00 0. -1.
         -5    1    3    3    0  503  0.78728267965E+01 -0.51923120726E+02 -0.66930747725E+01  0.53149591885E+02  0.47000000000E+01 0.  1.
         11    1    4    4    0    0  0.13047569867E+02 -0.23093528148E+02 -0.14175018817E+03  0.14421049188E+03  0.00000000000E+00 0. -1.
        -12    1    4    4    0    0 -0.12461174170E+02  0.43178786948E+02 -0.76192642595E+02  0.88459071268E+02  0.00000000000E+00 0.  1.
</event>
<event>
12    1  0.8052519E-002  0.1761734E+03  0.7818608E-02  0.1171589E+00
         21   -1    0    0  501  502  0.00000000000E+00  0.00000000000E+00  0.15741835742E+03  0.15741835742E+03  0.00000000000E+00 0. -1.
         21   -1    0    0  502  503 -0.00000000000E+00 -0.00000000000E+00 -0.19763841107E+03  0.19763841107E+03  0.00000000000E+00 0. -1.
         -6    2    1    2    0  503 -0.33782694995E+02 -0.26491614898E+01 -0.10244639671E+02  0.17647098516E+03  0.17288368177E+03 0.  0.
        -24    2    3    3    0    0  0.27713697629E+02  0.36540283619E+02 -0.34690393665E+02  0.99417083231E+02  0.81099270418E+02 0.  0.
          6    2    1    2  501    0  0.33782694995E+02  0.26491614898E+01 -0.29975413980E+02  0.17858578333E+03  0.17276014595E+03 0.  0.
         24    2    5    5    0    0 -0.12290721510E+02  0.24742048844E+02 -0.73767367735E+02  0.11112705081E+03  0.78386006805E+02 0.  0.
          5    1    5    5  501    0  0.46073416505E+02 -0.22092887354E+02  0.43791953755E+02  0.67458732525E+02  0.47000000000E+01 0. -1.
        -13    1    6    6    0    0  0.28569550214E+02  0.28757913023E+02 -0.26086354409E+02  0.48205130922E+02  0.00000000000E+00 0.  1.
         14    1    6    6    0    0 -0.40860271724E+02 -0.40158641792E+01 -0.47681013326E+02  0.62921919887E+02  0.00000000000E+00 0. -1.
         -5    1    3    3    0  503 -0.61496392624E+02 -0.39189445108E+02  0.24445753994E+02  0.77053901926E+02  0.47000000000E+01 0.  1.
         13    1    4    4    0    0  0.38837412940E+02 -0.11097795218E+02 -0.17285092670E+01  0.40428868979E+02  0.00000000000E+00 0. -1.
        -14    1    4    4    0    0 -0.11123715311E+02  0.47638078837E+02 -0.32961884398E+02  0.58988214252E+02  0.00000000000E+00 0.  1.
</event>
<event>
12    1  0.8052519E-002  0.2243738E+03  0.7818608E-02  0.1131089E+00
         21   -1    0    0  501  502  0.00000000000E+00  0.00000000000E+00  0.13205743162E+04  0.13205743162E+04  0.00000000000E+00 0.  1.
         21   -1    0    0  502  503 -0.00000000000E+00 -0.00000000000E+00 -0.12437531012E+03  0.12437531012E+03  0.00000000000E+00 0.  1.
         -6    2    1    2    0  503  0.11586405843E+03  0.78868240237E+02 -0.39738025078E+01  0.22440902518E+03  0.17521113013E+03 0.  0.
        -24    2    3    3    0    0  0.38661854112E+02 -0.98567833930E+01  0.38490209397E+02  0.99278723190E+02  0.82358202485E+02 0.  0.
          6    2    1    2  501    0 -0.11586405843E+03 -0.78868240237E+02  0.12001728086E+04  0.12205406012E+04  0.17222052491E+03 0.  0.
         24    2    5    5    0    0 -0.11469011454E+03 -0.98197758858E+02  0.11797229223E+04  0.11919872076E+04  0.79313980365E+02 0.  0.
          5    1    5    5  501    0 -0.11739438829E+01  0.19329518622E+02  0.20449886384E+02  0.28553393625E+02  0.47000000000E+01 0.  1.
        -13    1    6    6    0    0 -0.74586748076E+02 -0.80923312169E+02  0.55900678950E+03  0.56973709388E+03  0.00000000000E+00 0.  1.
         14    1    6    6    0    0 -0.40103366467E+02 -0.17274446689E+02  0.62071613276E+03  0.62225011368E+03  0.00000000000E+00 0. -1.
         -5    1    3    3    0  503  0.77202204314E+02  0.88725023630E+02 -0.42464011905E+02  0.12513030199E+03  0.47000000000E+01 0.  1.
         13    1    4    4    0    0  0.43712673772E+02  0.28622173109E+02  0.17166964199E+02  0.54997557233E+02  0.00000000000E+00 0. -1.
        -14    1    4    4    0    0 -0.50508196602E+01 -0.38478956502E+02  0.21323245198E+02  0.44281165957E+02  0.00000000000E+00 0.  1.
</event>
<event>
12    1  0.8052519E-002  0.1880696E+03  0.7818608E-02  0.1160498E+00
         21   -1    0    0  501  502  0.00000000000E+00  0.00000000000E+00  0.35876950739E+03  0.35876950739E+03  0.00000000000E+00 0.  1.
         21   -1    0    0  502  503 -0.00000000000E+00 -0.00000000000E+00 -0.10878148000E+03  0.10878148000E+03  0.00000000000E+00 0.  1.
         -6    2    1    2    0  503 -0.52848265071E+02  0.52565032540E+02  0.50815004977E+02  0.19361659372E+03  0.17131607883E+03 0.  0.
        -24    2    3    3    0    0 -0.35295118246E+01  0.37950784435E+02 -0.33348382800E+02  0.94867003791E+02  0.80217917449E+02 0.  0.
          6    2    1    2  501    0  0.52848265071E+02 -0.52565032540E+02  0.19917302242E+03  0.27393439367E+03  0.17266770806E+03 0.  0.
         24    2    5    5    0    0  0.81668650949E+01  0.64382967702E+01  0.18079172569E+03  0.19752901138E+03  0.78891779722E+02 0.  0.
          5    1    5    5  501    0  0.44681399976E+02 -0.59003329310E+02  0.18381296736E+02  0.76405382292E+02  0.47000000000E+01 0. -1.
        -11    1    6    6    0    0 -0.20900956691E+02 -0.23612353880E+02  0.11763028524E+03  0.12178373148E+03  0.00000000000E+00 0.  1.
         12    1    6    6    0    0  0.29067821786E+02  0.30050650650E+02  0.63161440442E+02  0.75745279897E+02  0.00000000000E+00 0. -1.
         -5    1    3    3    0  503 -0.49318753246E+02  0.14614248105E+02  0.84163387776E+02  0.98749589931E+02  0.47000000000E+01 0.  1.
         11    1    4    4    0    0 -0.27583565816E+01 -0.20701638223E+02  0.87732471517E+01  0.22652510274E+02  0.00000000000E+00 0. -1.
        -12    1    4    4    0    0 -0.77115524304E+00  0.58652422658E+02 -0.42121629952E+02  0.72214493517E+02  0.00000000000E+00 0.  1.
</event>
<event>
12    1  0.8052519E-002  0.1770522E+03  0.7818608E-02  0.1171910E+00
         21   -1    0    0  503  502  0.00000000000E+00  0.00000000000E+00  0.42427928836E+03  0.42427928836E+03  0.00000000000E+00 0. -1.
         21   -1    0    0  501  503 -0.00000000000E+00 -0.00000000000E+00 -0.73297154917E+02  0.73297154917E+02  0.00000000000E+00 0. -1.
          6    2    1    2  501    0  0.76478387764E+01  0.88392374420E+01  0.14310408732E+03  0.22765385169E+03  0.17666599793E+03 0.  0.
         24    2    3    3    0    0  0.21335271698E+02  0.90170690177E+01  0.17424061915E+03  0.19331799495E+03  0.80470817432E+02 0.  0.
         -6    2    1    2    0  502 -0.76478387764E+01 -0.88392374420E+01  0.20787804612E+03  0.26992259159E+03  0.17177980624E+03 0.  0.
        -24    2    5    5    0    0  0.25087665173E+02 -0.33882087075E+02  0.42981570387E+02  0.99888197283E+02  0.79704766451E+02 0.  0.
          5    1    3    3  501    0 -0.13687432921E+02 -0.17783157566E+00 -0.31136531826E+02  0.34335856742E+02  0.47000000000E+01 0. -1.
        -11    1    4    4    0    0 -0.25322514184E+02  0.22312330373E+02  0.54262950858E+02  0.63902563697E+02  0.00000000000E+00 0.  1.
         12    1    4    4    0    0  0.46657785881E+02 -0.13295261356E+02  0.11997766829E+03  0.12941543125E+03  0.00000000000E+00 0. -1.
         -5    1    5    5    0  502 -0.32735503950E+02  0.25042849633E+02  0.16489647574E+03  0.17003439431E+03  0.47000000000E+01 0.  1.
         11    1    6    6    0    0 -0.10281688104E+02 -0.86718172769E+00  0.49950669983E+02  0.51005240380E+02  0.00000000000E+00 0. -1.
        -12    1    6    6    0    0  0.35369353278E+02 -0.33014905348E+02 -0.69690995963E+01  0.48882956903E+02  0.00000000000E+00 0.  1.
</event>
<event>
12    1  0.8052519E-002  0.2766684E+03  0.7818608E-02  0.1097695E+00
         21   -1    0    0  503  502  0.00000000000E+00  0.00000000000E+00  0.30640981187E+03  0.30640981187E+03  0.00000000000E+00 0. -1.
         21   -1    0    0  501  503 -0.00000000000E+00 -0.00000000000E+00 -0.30872166952E+03  0.30872166952E+03  0.00000000000E+00 0.  1.
          6    2    1    2  501    0  0.73958762049E+02 -0.20281225869E+03 -0.13677596127E+03  0.30863093514E+03  0.17303953244E+03 0.  0.
         24    2    3    3    0    0  0.53243889941E+02 -0.20746863915E+03 -0.71064771562E+02  0.23941505360E+03  0.79945094199E+02 0.  0.
         -6    2    1    2    0  502 -0.73958762049E+02  0.20281225869E+03  0.13446410362E+03  0.30650054625E+03  0.17105343881E+03 0.  0.
        -24    2    5    5    0    0 -0.18328283404E+02  0.19913047497E+03  0.12727266321E+03  0.25009032997E+03  0.79736881743E+02 0.  0.
          5    1    3    3  501    0  0.20714872108E+02  0.46563804604E+01 -0.65711189705E+02  0.69215881543E+02  0.47000000000E+01 0. -1.
        -11    1    4    4    0    0  0.71084390338E+02 -0.14304303362E+03 -0.35249080807E+02  0.16357505224E+03  0.00000000000E+00 0.  1.
         12    1    4    4    0    0 -0.17840500397E+02 -0.64425605524E+02 -0.35815690754E+02  0.75840001357E+02  0.00000000000E+00 0. -1.
         -5    1    5    5    0  502 -0.55630478645E+02  0.36817837228E+01  0.71914404153E+01  0.56410216281E+02  0.47000000000E+01 0.  1.
         11    1    6    6    0    0 -0.42492964836E+02  0.16173319109E+03  0.11785459644E+03  0.20458001629E+03  0.00000000000E+00 0. -1.
        -12    1    6    6    0    0  0.24164681432E+02  0.37397283871E+02  0.94180667716E+01  0.45510313681E+02  0.00000000000E+00 0.  1.
</event>
<event>
12    1  0.8052519E-002  0.2321567E+03  0.7818608E-02  0.1125369E+00
         21   -1    0    0  503  502  0.00000000000E+00  0.00000000000E+00  0.23434202620E+04  0.23434202620E+04  0.00000000000E+00 0. -1.
         21   -1    0    0  501  503 -0.00000000000E+00 -0.00000000000E+00 -0.42203388617E+02  0.42203388617E+02  0.00000000000E+00 0. -1.
          6    2    1    2  501    0 -0.14277425013E+03  0.63836599858E+02  0.34499581986E+03  0.41583510232E+03  0.17157248795E+03 0.  0.
         24    2    3    3    0    0 -0.78398112802E+02  0.63394126219E+02  0.10162539939E+03  0.16405000666E+03  0.80122428524E+02 0.  0.
         -6    2    1    2    0  502  0.14277425013E+03 -0.63836599858E+02  0.19562210536E+04  0.19697885483E+04  0.16972482661E+03 0.  0.
        -24    2    5    5    0    0  0.10388095793E+03 -0.10451339808E+03  0.16556067438E+04  0.16639154646E+04  0.76594252888E+02 0.  0.
          5    1    3    3  501    0 -0.64376137325E+02  0.44247363970E+00  0.24337042047E+03  0.25178509567E+03  0.47000000000E+01 0. -1.
        -13    1    4    4    0    0  0.14650537049E+02 -0.18277649653E+01  0.78504147924E+01  0.16721482381E+02  0.00000000000E+00 0.  1.
         14    1    4    4    0    0 -0.93048649851E+02  0.65221891184E+02  0.93774984599E+02  0.14732852428E+03  0.00000000000E+00 0. -1.
         -5    1    5    5    0  502  0.38893292193E+02  0.40676798219E+02  0.30061430977E+03  0.30587308369E+03  0.47000000000E+01 0.  1.
         11    1    6    6    0    0  0.40236099091E+02  0.14668928622E+01  0.53424806462E+03  0.53576309129E+03  0.00000000000E+00 0. -1.
        -12    1    6    6    0    0  0.63644858842E+02 -0.10598029094E+03  0.11213586792E+04  0.11281523733E+04  0.00000000000E+00 0.  1.
</event>
<event>
12    1  0.8052519E-002  0.1854628E+03  0.7818608E-02  0.1163548E+00
         21   -1    0    0  503  502  0.00000000000E+00  0.00000000000E+00  0.22565106301E+03  0.22565106301E+03  0.00000000000E+00 0. -1.
         21   -1    0    0  501  503 -0.00000000000E+00 -0.00000000000E+00 -0.15162121637E+03  0.15162121637E+03  0.00000000000E+00 0. -1.
          6    2    1    2  501    0 -0.38025978107E+02  0.62114935713E+02  0.61222212133E+02  0.19530648023E+03  0.17056442100E+03 0.  0.
         24    2    3    3    0    0 -0.30235420319E+02  0.29861204120E+02 -0.37118894394E+02  0.91412018271E+02  0.71919904130E+02 0.  0.
         -6    2    1    2    0  502  0.38025978107E+02 -0.62114935713E+02  0.12807634507E+02  0.18196579916E+03  0.16626267264E+03 0.  0.
        -24    2    5    5    0    0  0.61139508198E+01 -0.21594538572E+02  0.67669466101E+02  0.10651919131E+03  0.79142131539E+02 0.  0.
          5    1    3    3  501    0 -0.77905577885E+01  0.32253731593E+02  0.98341106527E+02  0.10389446196E+03  0.47000000000E+01 0. -1.
        -11    1    4    4    0    0 -0.16767115850E+02  0.51549553050E+02 -0.37439100494E+02  0.65880033693E+02  0.00000000000E+00 0.  1.
         12    1    4    4    0    0 -0.13468304468E+02 -0.21688348930E+02  0.32020609952E+00  0.25531984578E+02  0.00000000000E+00 0. -1.
         -5    1    5    5    0  502  0.31912027287E+02 -0.40520397141E+02 -0.54861831594E+02  0.75446607849E+02  0.47000000000E+01 0.  1.
         11    1    6    6    0    0 -0.45525473769E+01  0.18944416986E+02 -0.71523502628E+01  0.20755065330E+02  0.00000000000E+00 0. -1.
        -12    1    6    6    0    0  0.10666498197E+02 -0.40538955558E+02  0.74821816364E+02  0.85764125982E+02  0.00000000000E+00 0.  1.
</event>
<event>
12    1  0.8052519E-002  0.2809420E+03  0.7818608E-02  0.1095462E+00
         21   -1    0    0  501  502  0.00000000000E+00  0.00000000000E+00  0.12358993811E+04  0.12358993811E+04  0.00000000000E+00 0.  1.
         21   -1    0    0  502  503 -0.00000000000E+00 -0.00000000000E+00 -0.68924777893E+02  0.68924777893E+02  0.00000000000E+00 0. -1.
         -6    2    1    2    0  503 -0.20799195881E+03  0.69733455028E+02  0.39653236907E+03  0.48475731381E+03  0.17212880029E+03 0.  0.
        -24    2    3    3    0    0 -0.11706847325E+03 -0.12798815756E+02  0.13817570274E+03  0.19866482354E+03  0.80661949959E+02 0.  0.
          6    2    1    2  501    0  0.20799195881E+03 -0.69733455028E+02  0.77044223416E+03  0.82006684521E+03  0.17551348881E+03 0.  0.
         24    2    5    5    0    0  0.76756075178E+02 -0.93237328438E+02  0.34051472352E+03  0.36991682175E+03  0.79394480835E+02 0.  0.
          5    1    5    5  501    0  0.13123588363E+03  0.23503873410E+02  0.42992751064E+03  0.45015002346E+03  0.47000000000E+01 0. -1.
        -13    1    6    6    0    0  0.57430454605E+02 -0.29374439374E+02  0.24537330863E+03  0.25371081055E+03  0.00000000000E+00 0.  1.
         14    1    6    6    0    0  0.19325620572E+02 -0.63862889064E+02  0.95141414895E+02  0.11620601120E+03  0.00000000000E+00 0. -1.
         -5    1    3    3    0  503 -0.90923485558E+02  0.82532270784E+02  0.25835666634E+03  0.28609249027E+03  0.47000000000E+01 0.  1.
         13    1    4    4    0    0 -0.18946672016E+02 -0.19350863466E+02 -0.23096578521E+01  0.27180265207E+02  0.00000000000E+00 0. -1.
        -14    1    4    4    0    0 -0.98121801237E+02  0.65520477096E+01  0.14048536059E+03  0.17148455833E+03  0.00000000000E+00 0.  1.
</event>
<event>
12    1  0.8052519E-002  0.1805994E+03  0.7818608E-02  0.1167825E+00
         21   -1    0    0  503  502  0.00000000000E+00  0.00000000000E+00  0.36327336807E+02  0.36327336807E+02  0.00000000000E+00 0. -1.
         21   -1    0    0  501  503 -0.00000000000E+00 -0.00000000000E+00 -0.11406252183E+04  0.11406252183E+04  0.00000000000E+00 0.  1.
          6    2    1    2  501    0  0.56087326485E+02  0.59900423080E+01 -0.82745647616E+03  0.84641164423E+03  0.16895793189E+03 0.  0.
         24    2    3    3    0    0  0.78720151594E+02  0.17156084223E+02 -0.33784110731E+03  0.35612374444E+03  0.78716669604E+02 0.  0.
         -6    2    1    2    0  502 -0.56087326485E+02 -0.59900423080E+01 -0.27684140528E+03  0.33054091083E+03  0.17156474362E+03 0.  0.
        -24    2    5    5    0    0 -0.73375844740E+02  0.48624566170E+02 -0.15424139624E+03  0.19513596063E+03  0.80865764003E+02 0.  0.
          5    1    3    3  501    0 -0.22632825109E+02 -0.11166041915E+02 -0.48961536885E+03  0.49028789979E+03  0.47000000000E+01 0. -1.
        -11    1    4    4    0    0  0.32865364058E+01 -0.20014448543E+02 -0.13540273814E+03  0.13691340683E+03  0.00000000000E+00 0.  1.
         12    1    4    4    0    0  0.75433615188E+02  0.37170532766E+02 -0.20243836916E+03  0.21921033761E+03  0.00000000000E+00 0. -1.
         -5    1    5    5    0  502  0.17288518255E+02 -0.54614608478E+02 -0.12260000904E+03  0.13540495020E+03  0.47000000000E+01 0.  1.
         13    1    6    6    0    0 -0.39589452651E+02  0.45258407008E+02 -0.31693820694E+02  0.67971659067E+02  0.00000000000E+00 0. -1.
        -14    1    6    6    0    0 -0.33786392089E+02  0.33661591619E+01 -0.12254757555E+03  0.12716430156E+03  0.00000000000E+00 0.  1.
</event>
<event>
12    1  0.8052519E-002  0.2886529E+03  0.7818608E-02  0.1091166E+00
         21   -1    0    0  503  502  0.00000000000E+00  0.00000000000E+00  0.17828978746E+03  0.17828978746E+03  0.00000000000E+00 0. -1.
         21   -1    0    0  501  503 -0.00000000000E+00 -0.00000000000E+00 -0.87130754976E+03  0.87130754976E+03  0.00000000000E+00 0. -1.
          6    2    1    2  501    0 -0.11013663973E+03 -0.20280092023E+03 -0.70418304305E+03  0.76072860252E+03  0.17197661448E+03 0.  0.
         24    2    3    3    0    0 -0.35845208282E+02 -0.11909832905E+02 -0.16805190975E+03  0.18677973190E+03  0.72239191577E+02 0.  0.
         -6    2    1    2    0  502  0.11013663973E+03  0.20280092023E+03  0.11165280747E+02  0.28886873469E+03  0.17338451410E+03 0.  0.
        -24    2    5    5    0    0  0.13464301206E+03  0.17073754859E+03  0.44288890187E+02  0.23644845628E+03  0.81647507543E+02 0.  0.
          5    1    3    3  501    0 -0.74291431450E+02 -0.19089108733E+03 -0.53613113329E+03  0.57394887063E+03  0.47000000000E+01 0. -1.
        -11    1    4    4    0    0 -0.16323266510E+02 -0.14438952601E+02 -0.16550144718E+03  0.16693010932E+03  0.00000000000E+00 0.  1.
         12    1    4    4    0    0 -0.19521941772E+02  0.25291196957E+01 -0.25504625778E+01  0.19849622574E+02  0.00000000000E+00 0. -1.
         -5    1    5    5    0  502 -0.24506372333E+02  0.32063371642E+02 -0.33123609441E+02  0.52420278408E+02  0.47000000000E+01 0.  1.
         13    1    6    6    0    0  0.32613887717E+02  0.92358505383E+02  0.44992524654E+02  0.10778722774E+03  0.00000000000E+00 0. -1.
        -14    1    6    6    0    0  0.10202912435E+03  0.78379043205E+02 -0.70363446612E+00  0.12866122854E+03  0.00000000000E+00 0.  1.
</event>
<event>
12    1  0.8052519E-002  0.1962512E+03  0.7818608E-02  0.1153642E+00
         21   -1    0    0  501  502  0.00000000000E+00  0.00000000000E+00  0.30242743155E+02  0.30242743155E+02  0.00000000000E+00 0. -1.
         21   -1    0    0  502  503 -0.00000000000E+00 -0.00000000000E+00 -0.13433450899E+04  0.13433450899E+04  0.00000000000E+00 0.  1.
         -6    2    1    2    0  503 -0.81353075920E+02  0.34362879900E+02 -0.82985563536E+03  0.85201145409E+03  0.17165084296E+03 0.  0.
        -24    2    3    3    0    0 -0.20910700916E+02  0.71311485793E+02 -0.33762013148E+03  0.35468222565E+03  0.79306636537E+02 0.  0.
          6    2    1    2  501    0  0.81353075920E+02 -0.34362879900E+02 -0.48324671138E+03  0.52157637896E+03  0.17525810838E+03 0.  0.
         24    2    5    5    0    0  0.43976507046E+02 -0.80518323127E+02 -0.40654314370E+03  0.42445346644E+03  0.80413207599E+02 0.  0.
          5    1    5    5  501    0  0.37376568875E+02  0.46155443228E+02 -0.76703567681E+02  0.97122912515E+02  0.47000000000E+01 0. -1.
        -11    1    6    6    0    0 -0.14179071828E+02 -0.11004147399E+02 -0.17319321395E+03  0.17412072449E+03  0.00000000000E+00 0.  1.
         12    1    6    6    0    0  0.58155578873E+02 -0.69514175728E+02 -0.23334992975E+03  0.25033274195E+03  0.00000000000E+00 0. -1.
         -5    1    3    3    0  503 -0.60442375005E+02 -0.36948605893E+02 -0.49223550388E+03  0.49732922844E+03  0.47000000000E+01 0.  1.
         13    1    4    4    0    0  0.10359668345E+02 -0.13349396451E+02 -0.34571149536E+02  0.38479780327E+02  0.00000000000E+00 0. -1.
        -14    1    4    4    0    0 -0.31270369261E+02  0.84660882244E+02 -0.30304898194E+03  0.31620244533E+03  0.00000000000E+00 0.  1.
</event>
<event>
12    1  0.8052519E-002  0.1918722E+03  0.7818608E-02  0.1156817E+00
         21   -1    0    0  503  502  0.00000000000E+00  0.00000000000E+00  0.40550526284E+02  0.40550526284E+02  0.00000000000E+00 0.  1.
         21   -1    0    0  501  503 -0.00000000000E+00 -0.00000000000E+00 -0.10722766885E+04  0.10722766885E+04  0.00000000000E+00 0.  1.
          6    2    1    2  501    0 -0.74940286155E+02  0.38237864504E+02 -0.73437510714E+03  0.75902683613E+03  0.17244349571E+03 0.  0.
         24    2    3    3    0    0 -0.62705968838E+02  0.91494570509E+02 -0.55750673075E+03  0.57384998061E+03  0.78655899038E+02 0.  0.
         -6    2    1    2    0  502  0.74940286155E+02 -0.38237864504E+02 -0.29735105509E+03  0.35380037866E+03  0.17227558506E+03 0.  0.
        -24    2    5    5    0    0  0.10758622214E+03 -0.60916003714E+01 -0.16326424353E+03  0.21202413782E+03  0.81774806706E+02 0.  0.
          5    1    3    3  501    0 -0.12234317317E+02 -0.53256706005E+02 -0.17686837639E+03  0.18517685552E+03  0.47000000000E+01 0. -1.
        -11    1    4    4    0    0 -0.78866480083E+02  0.55856338696E+02 -0.41071344360E+03  0.42193054524E+03  0.00000000000E+00 0.  1.
         12    1    4    4    0    0  0.16160511246E+02  0.35638231813E+02 -0.14679328715E+03  0.15191943537E+03  0.00000000000E+00 0. -1.
         -5    1    5    5    0  502 -0.32645935989E+02 -0.32146264133E+02 -0.13408681156E+03  0.14177624085E+03  0.47000000000E+01 0.  1.
         11    1    6    6    0    0  0.68522408408E+02 -0.37592431078E+01 -0.15835313330E+03  0.17258379758E+03  0.00000000000E+00 0. -1.
        -12    1    6    6    0    0  0.39063813736E+02 -0.23323572636E+01 -0.49111102288E+01  0.39440340233E+02  0.00000000000E+00 0.  1.
</event>
<event>
12    1  0.8052519E-002  0.3430203E+03  0.7818608E-02  0.1065564E+00
         21   -1    0    0  503  502  0.00000000000E+00  0.00000000000E+00  0.94284245945E+02  0.94284245945E+02  0.00000000000E+00 0.  1.
         21   -1    0    0  501  503 -0.00000000000E+00 -0.00000000000E+00 -0.13383753785E+04  0.13383753785E+04  0.00000000000E+00 0. -1.
          6    2    1    2  501    0  0.27791012186E+03  0.10262878438E+03 -0.43457390745E+03  0.55364011280E+03  0.17290514814E+03 0.  0.
         24    2    3    3    0    0  0.67477764228E+02  0.13626604200E+02 -0.84133953173E+02  0.13527016076E+03  0.80501933575E+02 0.  0.
         -6    2    1    2    0  502 -0.27791012186E+03 -0.10262878438E+03 -0.80951722510E+03  0.87901951164E+03  0.17201878062E+03 0.  0.
        -24    2    5    5    0    0 -0.27104871299E+03 -0.73503111435E+02 -0.79422482719E+03  0.84508824007E+03  0.67163570286E+02 0.  0.
          5    1    3    3  501    0  0.21043235763E+03  0.89002180182E+02 -0.35043995427E+03  0.41836995204E+03  0.47000000000E+01 0. -1.
        -13    1    4    4    0    0  0.56513876086E+02 -0.32664943163E+00 -0.79793069052E+01  0.57075338184E+02  0.00000000000E+00 0.  1.
         14    1    4    4    0    0  0.10963888142E+02  0.13953253632E+02 -0.76154646268E+02  0.78194822580E+02  0.00000000000E+00 0. -1.
         -5    1    5    5    0  502 -0.68614088659E+01 -0.29125672948E+02 -0.15292397913E+02  0.33931271568E+02  0.47000000000E+01 0.  1.
         13    1    6    6    0    0 -0.12472794648E+03 -0.37285620581E+02 -0.46715533305E+03  0.48495503228E+03  0.00000000000E+00 0. -1.
        -14    1    6    6    0    0 -0.14632076652E+03 -0.36217490854E+02 -0.32706949414E+03  0.36013320779E+03  0.00000000000E+00 0.  1.
</event>
<event>
12    1  0.8052519E-002  0.1744625E+03  0.7818608E-02  0.1173379E+00
         21   -1    0    0  501  502  0.00000000000E+00  0.00000000000E+00  0.68209356406E+03  0.68209356406E+03  0.00000000000E+00 0.  1.
         21   -1    0    0  502  503 -0.00000000000E+00 -0.00000000000E+00 -0.71464762542E+02  0.71464762542E+02  0.00000000000E+00 0.  1.
         -6    2    1    2    0  503  0.22282185276E+02  0.26648169991E+02  0.74169441764E+02  0.18957393414E+03  0.17096944075E+03 0.  0.
        -24    2    3    3    0    0  0.34879359557E+02 -0.29386955841E+02  0.92275527837E+02  0.12917075144E+03  0.78039394502E+02 0.  0.
          6    2    1    2  501    0 -0.22282185276E+02 -0.26648169991E+02  0.53645935975E+03  0.56398439246E+03  0.17053776570E+03 0.  0.
         24    2    5    5    0    0 -0.43511915199E+02  0.61018454155E+01  0.14934108653E+03  0.17487526586E+03  0.79674834185E+02 0.  0.
          5    1    5    5  501    0  0.21229729923E+02 -0.32750015406E+02  0.38711827322E+03  0.38910912660E+03  0.47000000000E+01 0. -1.
        -11    1    6    6    0    0  0.10423917059E+02 -0.26101393889E+02  0.49203867709E+02  0.56665345736E+02  0.00000000000E+00 0.  1.
         12    1    6    6    0    0 -0.53935832258E+02  0.32203239304E+02  0.10013721882E+03  0.11820992013E+03  0.00000000000E+00 0. -1.
         -5    1    3    3    0  503 -0.12597174281E+02  0.56035125832E+02 -0.18106086073E+02  0.60403182696E+02  0.47000000000E+01 0.  1.
         11    1    4    4    0    0  0.39366715854E+01 -0.36233375244E+02  0.55885642430E+01  0.36872576734E+02  0.00000000000E+00 0. -1.
        -12    1    4    4    0    0  0.30942687971E+02  0.68464194023E+01  0.86686963594E+02  0.92298174709E+02  0.00000000000E+00 0.  1.
</event>
<event>
12    1  0.8052519E-002  0.1974759E+03  0.7818608E-02  0.1152555E+00
         21   -1    0    0  501  502  0.00000000000E+00  0.00000000000E+00  0.58011979742E+02  0.58011979742E+02  0.00000000000E+00 0. -1.
         21   -1    0    0  502  503 -0.00000000000E+00 -0.00000000000E+00 -0.70124225223E+03  0.70124225223E+03  0.00000000000E+00 0.  1.
         -6    2    1    2    0  503 -0.19327552987E+02 -0.95979390919E+02 -0.22910598550E+03  0.30045618544E+03  0.16792489093E+03 0.  0.
        -24    2    3    3    0    0 -0.22812097368E+02  0.34455447539E+01 -0.62972783904E+02  0.10675592588E+03  0.83060174772E+02 0.  0.
          6    2    1    2  501    0  0.19327552987E+02  0.95979390919E+02 -0.41412428699E+03  0.45879804653E+03  0.17149671902E+03 0.  0.
         24    2    5    5    0    0  0.49540113104E+02  0.15015676922E+02 -0.11084898276E+03  0.14341586261E+03  0.74839289887E+02 0.  0.
          5    1    5    5  501    0 -0.30212560117E+02  0.80963713997E+02 -0.30327530423E+03  0.31538218391E+03  0.47000000000E+01 0. -1.
        -13    1    6    6    0    0  0.21233833130E+02  0.44980186732E+02 -0.58568608570E+02  0.76839929579E+02  0.00000000000E+00 0.  1.
         14    1    6    6    0    0  0.28306279974E+02 -0.29964509810E+02 -0.52280374190E+02  0.66575933035E+02  0.00000000000E+00 0. -1.
         -5    1    3    3    0  503  0.34845443813E+01 -0.99424935673E+02 -0.16613320159E+03  0.19370025956E+03  0.47000000000E+01 0.  1.
         11    1    4    4    0    0  0.30303748372E+02  0.82373385079E+01 -0.14121621309E+02  0.34432413501E+02  0.00000000000E+00 0. -1.
        -12    1    4    4    0    0 -0.53115845741E+02 -0.47917937540E+01 -0.48851162595E+02  0.72323512380E+02  0.00000000000E+00 0.  1.
</event>
<event>
12    1  0.8052519E-002  0.2070866E+03  0.7818608E-02  0.1144328E+00
         21   -1    0    0  501  502  0.00000000000E+00  0.00000000000E+00  0.58568706571E+02  0.58568706571E+02  0.00000000000E+00 0. -1.
         21   -1    0    0  502  503 -0.00000000000E+00 -0.00000000000E+00 -0.80514274509E+03  0.80514274509E+03  0.00000000000E+00 0. -1.
         -6    2    1    2    0  503  0.31595219539E+02  0.10655845887E+03 -0.51156950339E+03  0.55189510187E+03  0.17473375064E+03 0.  0.
        -24    2    3    3    0    0  0.36916596202E+02  0.47203046469E+01 -0.35679908264E+03  0.36648933107E+03  0.74991519955E+02 0.  0.
          6    2    1    2  501    0 -0.31595219539E+02 -0.10655845887E+03 -0.23500453513E+03  0.31181634979E+03  0.17218984120E+03 0.  0.
         24    2    5    5    0    0 -0.13583909765E+02  0.56574309598E+01 -0.55282574814E+02  0.99122000478E+02  0.80947382732E+02 0.  0.
          5    1    5    5  501    0 -0.18011309774E+02 -0.11221588983E+03 -0.17972196031E+03  0.21269434931E+03  0.47000000000E+01 0. -1.
        -11    1    6    6    0    0  0.26083601439E+02  0.10223907736E+00  0.51822490538E+01  0.26593616191E+02  0.00000000000E+00 0.  1.
         12    1    6    6    0    0 -0.39667511204E+02  0.55551918824E+01 -0.60464823868E+02  0.72528384287E+02  0.00000000000E+00 0. -1.
         -5    1    3    3    0  503 -0.53213766635E+01  0.10183815423E+03 -0.15477042075E+03  0.18540577080E+03  0.47000000000E+01 0.  1.
         11    1    4    4    0    0 -0.30484827402E+01  0.28152370997E+02 -0.22520943004E+03  0.22698267912E+03  0.00000000000E+00 0. -1.
        -12    1    4    4    0    0  0.39965078942E+02 -0.23432066350E+02 -0.13158965260E+03  0.13950665195E+03  0.00000000000E+00 0.  1.
</event>
<event>
12    1  0.8052519E-002  0.1962457E+03  0.7818608E-02  0.1153317E+00
         21   -1    0    0  503  502  0.00000000000E+00  0.00000000000E+00  0.14409893562E+03  0.14409893562E+03  0.00000000000E+00 0. -1.
         21   -1    0    0  501  503 -0.00000000000E+00 -0.00000000000E+00 -0.17537031923E+04  0.17537031923E+04  0.00000000000E+00 0.  1.
          6    2    1    2  501    0  0.39476786049E+02 -0.82368126085E+02 -0.16785594106E+04  0.16897944237E+04  0.17175731357E+03 0.  0.
         24    2    3    3    0    0  0.47762613165E+02 -0.12029373956E+03 -0.11852293615E+04  0.11949170304E+04  0.79411706972E+02 0.  0.
         -6    2    1    2    0  502 -0.39476786049E+02  0.82368126085E+02  0.68955153905E+02  0.20800770419E+03  0.17369360069E+03 0.  0.
        -24    2    5    5    0    0 -0.61803906700E+02 -0.40518203085E+01  0.12497822216E+02  0.10228907881E+03  0.80440785378E+02 0.  0.
          5    1    3    3  501    0 -0.82858271158E+01  0.37925613472E+02 -0.49333004909E+03  0.49487739332E+03  0.47000000000E+01 0. -1.
        -11    1    4    4    0    0  0.27327692556E+02 -0.26178624892E+02 -0.13269827977E+03  0.13798897288E+03  0.00000000000E+00 0.  1.
         12    1    4    4    0    0  0.20434920609E+02 -0.94115114664E+02 -0.10525310817E+04  0.10569280575E+04  0.00000000000E+00 0. -1.
         -5    1    5    5    0  502  0.22327120651E+02  0.86419946393E+02  0.56457331688E+02  0.10571862538E+03  0.47000000000E+01 0.  1.
         13    1    6    6    0    0 -0.61513238690E+01 -0.17127803920E+02  0.36109883064E+02  0.40436667856E+02  0.00000000000E+00 0. -1.
        -14    1    6    6    0    0 -0.55652582831E+02  0.13075983611E+02 -0.23612060847E+02  0.61852410953E+02  0.00000000000E+00 0.  1.
</event>
<event>
12    1  0.8052519E-002  0.1885411E+03  0.7818608E-02  0.1159802E+00
         21   -1    0    0  503  502  0.00000000000E+00  0.00000000000E+00  0.13947612672E+03  0.13947612672E+03  0.00000000000E+00 0. -1.
         21   -1    0    0  501  503 -0.00000000000E+00 -0.00000000000E+00 -0.69713636223E+03  0.69713636223E+03  0.00000000000E+00 0. -1.
          6    2    1    2  501    0  0.65226242329E+02 -0.36938961066E+02 -0.61207192521E+03  0.64045278489E+03  0.17299935987E+03 0.  0.
         24    2    3    3    0    0  0.10075698859E+03  0.10511882790E+01 -0.51401723947E+03  0.52935599478E+03  0.76491640058E+02 0.  0.
         -6    2    1    2    0  502 -0.65226242329E+02  0.36938961066E+02  0.54411689690E+02  0.19615970406E+03  0.17291341182E+03 0.  0.
        -24    2    5    5    0    0 -0.68949871814E+02  0.75763990898E+02  0.77559627039E+02  0.15056183830E+03  0.78479960925E+02 0.  0.
          5    1    3    3  501    0 -0.35530746257E+02 -0.37990149345E+02 -0.98054685740E+02  0.11109679011E+03  0.47000000000E+01 0. -1.
        -13    1    4    4    0    0  0.61381618806E+02 -0.29968725113E+02 -0.38366138141E+03  0.38969460247E+03  0.00000000000E+00 0.  1.
         14    1    4    4    0    0  0.39375369780E+02  0.31019913392E+02 -0.13035585806E+03  0.13966139231E+03  0.00000000000E+00 0. -1.
         -5    1    5    5    0  502  0.37236294848E+01 -0.38825029832E+02 -0.23147937349E+02  0.45597865756E+02  0.47000000000E+01 0.  1.
         11    1    6    6    0    0 -0.67917053279E+02  0.20764890644E+02  0.27416528788E+02  0.76128659914E+02  0.00000000000E+00 0. -1.
        -12    1    6    6    0    0 -0.10328185355E+01  0.54999100254E+02  0.50143098250E+02  0.74433178389E+02  0.00000000000E+00 0.  1.
</event>
<event>
12    1  0.8052519E-002  0.2345632E+03  0.7818608E-02  0.1123644E+00
         21   -1    0    0  501  502  0.00000000000E+00  0.00000000000E+00  0.44613341983E+03  0.44613341983E+03  0.00000000000E+00 0.  1.
         21   -1    0    0  502  503 -0.00000000000E+00 -0.00000000000E+00 -0.13492105140E+03  0.13492105140E+03  0.00000000000E+00 0. -1.
         -6    2    1    2    0  503 -0.47738452314E+02  0.15189680979E+03  0.68802066338E+02  0.24444549529E+03  0.17224481177E+03 0.  0.
        -24    2    3    3    0    0 -0.34901323334E+02  0.30439023718E+02  0.79298434408E+02  0.12177092816E+03  0.79970499003E+02 0.  0.
          6    2    1    2  501    0  0.47738452314E+02 -0.15189680979E+03  0.24241030209E+03  0.33660897593E+03  0.17085446282E+03 0.  0.
         24    2    5    5    0    0  0.77473277109E+00 -0.55562602884E+02  0.19829971874E+03  0.22061887318E+03  0.79133467632E+02 0.  0.
          5    1    5    5  501    0  0.46963719543E+02 -0.96334206904E+02  0.44110583351E+02  0.11599010275E+03  0.47000000000E+01 0. -1.
        -11    1    6    6    0    0 -0.26631538026E+02 -0.60899574823E+02  0.15969397686E+03  0.17297445845E+03  0.00000000000E+00 0.  1.
         12    1    6    6    0    0  0.27406270797E+02  0.53369719392E+01  0.38605741886E+02  0.47644414731E+02  0.00000000000E+00 0. -1.
         -5    1    3    3    0  503 -0.12837128980E+02  0.12145778607E+03 -0.10496368069E+02  0.12267456713E+03  0.47000000000E+01 0.  1.
         11    1    4    4    0    0 -0.58758327420E+02  0.11937819092E+02  0.39431831387E+02  0.71762956269E+02  0.00000000000E+00 0. -1.
        -12    1    4    4    0    0  0.23857004086E+02  0.18501204626E+02  0.39866603020E+02  0.50007971894E+02  0.00000000000E+00 0.  1.
</event>
<event>
12    1  0.8052519E-002  0.2281923E+03  0.7818608E-02  0.1127995E+00
         21   -1    0    0  503  502  0.00000000000E+00  0.00000000000E+00  0.66083600176E+02  0.66083600176E+02  0.00000000000E+00 0.  1.
         21   -1    0    0  501  503 -0.00000000000E+00 -0.00000000000E+00 -0.80501564075E+03  0.80501564075E+03  0.00000000000E+00 0.  1.
          6    2    1    2  501    0  0.46269794049E+02 -0.14296751861E+03 -0.30372839216E+03  0.37989821987E+03  0.17172977621E+03 0.  0.
         24    2    3    3    0    0  0.27081834506E+02 -0.17200900412E+03 -0.27210192543E+03  0.33263397259E+03  0.79280379952E+02 0.  0.
         -6    2    1    2    0  502 -0.46269794049E+02  0.14296751861E+03 -0.43520364842E+03  0.49120102106E+03  0.17115963974E+03 0.  0.
        -24    2    5    5    0    0 -0.59230914747E+02  0.81236617392E+02 -0.39862508941E+03  0.41813409425E+03  0.76331314668E+02 0.  0.
          5    1    3    3  501    0  0.19187959544E+02  0.29041485513E+02 -0.31626466731E+02  0.47264247271E+02  0.47000000000E+01 0. -1.
        -11    1    4    4    0    0 -0.42740237746E+01 -0.62960736426E+02 -0.16478745880E+03  0.17645744016E+03  0.00000000000E+00 0.  1.
         12    1    4    4    0    0  0.31355858280E+02 -0.10904826769E+03 -0.10731446662E+03  0.15617653243E+03  0.00000000000E+00 0. -1.
         -5    1    5    5    0  502  0.12961120697E+02  0.61730901215E+02 -0.36578559006E+02  0.73066926810E+02  0.47000000000E+01 0.  1.
         11    1    6    6    0    0 -0.56098450378E+02  0.93808374922E+02 -0.38027041687E+03  0.39566733159E+03  0.00000000000E+00 0. -1.
        -12    1    6    6    0    0 -0.31324643681E+01 -0.12571757530E+02 -0.18354672549E+02  0.22466762668E+02  0.00000000000E+00 0.  1.
</event>
<event>
12    1  0.8052519E-002  0.2012991E+03  0.7818608E-02  0.1149074E+00
         21   -1    0    0  501  502  0.00000000000E+00  0.00000000000E+00  0.85334507629E+02  0.85334507629E+02  0.00000000000E+00 0. -1.
         21   -1    0    0  502  503 -0.00000000000E+00 -0.00000000000E+00 -0.61047613002E+03  0.61047613002E+03  0.00000000000E+00 0.  1.
         -6    2    1    2    0  503 -0.10678823092E+03 -0.17926329323E+01 -0.42838444946E+03  0.47246499660E+03  0.16823494488E+03 0.  0.
        -24    2    3    3    0    0 -0.12723241664E+03  0.22703462489E+02 -0.25110428890E+03  0.29227518349E+03  0.75285350018E+02 0.  0.
          6    2    1    2  501    0  0.10678823092E+03  0.17926329323E+01 -0.96757172929E+02  0.22334564105E+03  0.17062937926E+03 0.  0.
         24    2    5    5    0    0  0.12526646060E+03  0.27754152648E+02 -0.11212225949E+03  0.18765780890E+03  0.78626159938E+02 0.  0.
          5    1    5    5  501    0 -0.18478229683E+02 -0.25961519716E+02  0.15365086566E+02  0.35687832147E+02  0.47000000000E+01 0. -1.
        -13    1    6    6    0    0  0.17883596600E+02 -0.77606214071E+00 -0.64211506370E+02  0.66659904366E+02  0.00000000000E+00 0.  1.
         14    1    6    6    0    0  0.10738286400E+03  0.28530214789E+02 -0.47910753125E+02  0.12099790453E+03  0.00000000000E+00 0. -1.
         -5    1    3    3    0  503  0.20444185723E+02 -0.24496095422E+02 -0.17728016056E+03  0.18018981311E+03  0.47000000000E+01 0.  1.
         13    1    4    4    0    0 -0.61887705630E+01 -0.11752242203E+02 -0.23385658537E+01  0.13486473525E+02  0.00000000000E+00 0. -1.
        -14    1    4    4    0    0 -0.12104364608E+03  0.34455704693E+02 -0.24876572305E+03  0.27878870997E+03  0.00000000000E+00 0.  1.
</event>
<event>
12    1  0.8052519E-002  0.2330904E+03  0.7818608E-02  0.1124497E+00
         21   -1    0    0  501  502  0.00000000000E+00  0.00000000000E+00  0.21902119558E+03  0.21902119558E+03  0.00000000000E+00 0.  1.
         21   -1    0    0  502  503 -0.00000000000E+00 -0.00000000000E+00 -0.37138405477E+03  0.37138405477E+03  0.00000000000E+00 0. -1.
         -6    2    1    2    0  503  0.13936648819E+03 -0.71818515226E+02 -0.24635826879E+03  0.33915117886E+03  0.17248248711E+03 0.  0.
        -24    2    3    3    0    0  0.10788219943E+03 -0.10304523278E+03 -0.24093947960E+03  0.29423100963E+03  0.79140162003E+02 0.  0.
          6    2    1    2  501    0 -0.13936648819E+03  0.71818515226E+02  0.93995409610E+02  0.25125407149E+03  0.17237329913E+03 0.  0.
         24    2    5    5    0    0 -0.41084146050E+02  0.15520504126E+01 -0.14933840923E+02  0.88513583363E+02  0.76950106679E+02 0.  0.
          5    1    5    5  501    0 -0.98282342140E+02  0.70266464814E+02  0.10892925053E+03  0.16274048813E+03  0.47000000000E+01 0. -1.
        -13    1    6    6    0    0 -0.49435180317E+02 -0.20694609824E+01 -0.38860037262E+02  0.62914403897E+02  0.00000000000E+00 0.  1.
         14    1    6    6    0    0  0.83510342664E+01  0.36215113950E+01  0.23926196339E+02  0.25599179466E+02  0.00000000000E+00 0. -1.
         -5    1    3    3    0  503  0.31484288759E+02  0.31226717552E+02 -0.54187891927E+01  0.44920169234E+02  0.47000000000E+01 0.  1.
         11    1    4    4    0    0  0.84497411581E+02 -0.81386452131E+02 -0.11485661361E+03  0.16418163370E+03  0.00000000000E+00 0. -1.
        -12    1    4    4    0    0  0.23384787850E+02 -0.21658780647E+02 -0.12608286599E+03  0.13004937593E+03  0.00000000000E+00 0.  1.
</event>
<event>
12    1  0.8052519E-002  0.1873227E+03  0.7818608E-02  0.1160949E+00
         21   -1    0    0  501  502  0.00000000000E+00  0.00000000000E+00  0.40593278222E+03  0.40593278222E+03  0.00000000000E+00 0.  1.
         21   -1    0    0  502  503 -0.00000000000E+00 -0.00000000000E+00 -0.15151929780E+03  0.15151929780E+03  0.00000000000E+00 0.  1.
         -6    2    1    2    0  503 -0.44980060284E+02  0.59059293875E+02  0.31005632564E+03  0.36224951793E+03  0.17198424973E+03 0.  0.
        -24    2    3    3    0    0  0.15429655267E+01  0.59141514242E+02  0.80011079628E+02  0.12750006872E+03  0.79714460492E+02 0.  0.
          6    2    1    2  501    0  0.44980060284E+02 -0.59059293875E+02 -0.55642841222E+02  0.19520256209E+03  0.17174605804E+03 0.  0.
         24    2    5    5    0    0  0.93846847020E+01 -0.92422219867E+02 -0.70151411675E+02  0.14408794373E+03  0.84912754852E+02 0.  0.
          5    1    5    5  501    0  0.35595375582E+02  0.33362925993E+02  0.14508570452E+02  0.51114618361E+02  0.47000000000E+01 0. -1.
        -11    1    6    6    0    0 -0.51199153156E+01 -0.81580954314E+02 -0.86983951027E+02  0.11936445608E+03  0.00000000000E+00 0.  1.
         12    1    6    6    0    0  0.14504600018E+02 -0.10841265554E+02  0.16832539352E+02  0.24723487649E+02  0.00000000000E+00 0. -1.
         -5    1    3    3    0  503 -0.46523025811E+02 -0.82220367441E-01  0.23004524601E+03  0.23474944921E+03  0.47000000000E+01 0.  1.
         11    1    4    4    0    0  0.12560435863E+02  0.10101311973E+02 -0.13704296440E+02  0.21156767087E+02  0.00000000000E+00 0. -1.
        -12    1    4    4    0    0 -0.11017470337E+02  0.49040202269E+02  0.93715376068E+02  0.10634330164E+03  0.00000000000E+00 0.  1.
</event>
<event>
12    1  0.8052519E-002  0.1990491E+03  0.7818608E-02  0.1150761E+00
         21   -1    0    0  501  502  0.00000000000E+00  0.00000000000E+00  0.88113829729E+03  0.88113829729E+03  0.00000000000E+00 0. -1.
         21   -1    0    0  502  503 -0.00000000000E+00 -0.00000000000E+00 -0.78788131107E+02  0.78788131107E+02  0.00000000000E+00 0. -1.
         -6    2    1    2    0  503 -0.44504500653E+02  0.87391992337E+02  0.86220057470E+02  0.21692038837E+03  0.17321242934E+03 0.  0.
        -24    2    3    3    0    0  0.31509955715E+02  0.71818598794E+02  0.18284700192E+02  0.11368264851E+03  0.80241048525E+02 0.  0.
          6    2    1    2  501    0  0.44504500653E+02 -0.87391992337E+02  0.71613010872E+03  0.74300604003E+03  0.17203962338E+03 0.  0.
         24    2    5    5    0    0  0.29553993683E+02  0.16226625720E+02  0.41371580333E+03  0.42294848620E+03  0.81165966537E+02 0.  0.
          5    1    5    5  501    0  0.14950506970E+02 -0.10361861806E+03  0.30241430538E+03  0.32005755383E+03  0.47000000000E+01 0. -1.
        -11    1    6    6    0    0  0.31988052302E+01  0.18651587399E+02  0.17268270369E+02  0.25618493885E+02  0.00000000000E+00 0.  1.
         12    1    6    6    0    0  0.26355188453E+02 -0.24249616787E+01  0.39644753296E+03  0.39732999231E+03  0.00000000000E+00 0. -1.
         -5    1    3    3    0  503 -0.76014456368E+02  0.15573393543E+02  0.67935357278E+02  0.10323773986E+03  0.47000000000E+01 0.  1.
         13    1    4    4    0    0  0.45096347860E+01  0.81721553252E+02  0.21826623718E+02  0.84706260541E+02  0.00000000000E+00 0. -1.
        -14    1    4    4    0    0  0.27000320930E+02 -0.99029544577E+01 -0.35419235261E+01  0.28976387966E+02  0.00000000000E+00 0.  1.
</event>
<event>
12    1  0.8052519E-002  0.2259674E+03  0.7818608E-02  0.1129704E+00
         21   -1    0    0  503  502  0.00000000000E+00  0.00000000000E+00  0.11554847093E+03  0.11554847093E+03  0.00000000000E+00 0.  1.
         21   -1    0    0  501  503 -0.00000000000E+00 -0.00000000000E+00 -0.67449726242E+03  0.67449726242E+03  0.00000000000E+00 0. -1.
          6    2    1    2  501    0 -0.21326818970E+02 -0.14336702383E+03 -0.51291425665E+03  0.56048400519E+03  0.17335613249E+03 0.  0.
         24    2    3    3    0    0  0.12859400088E+02 -0.68824304639E+02 -0.43357710328E+03  0.44628335518E+03  0.79231177842E+02 0.  0.
         -6    2    1    2    0  502  0.21326818970E+02  0.14336702383E+03 -0.46034534844E+02  0.22956172817E+03  0.17196066966E+03 0.  0.
        -24    2    5    5    0    0  0.19276498827E+02  0.13675416419E+01 -0.15508099527E+02  0.84227595877E+02  0.80500516638E+02 0.  0.
          5    1    3    3  501    0 -0.34186219058E+02 -0.74542719194E+02 -0.79337153367E+02  0.11420065001E+03  0.47000000000E+01 0. -1.
        -13    1    4    4    0    0 -0.19933785210E+02 -0.42344198354E+02 -0.10429606208E+03  0.11431559602E+03  0.00000000000E+00 0.  1.
         14    1    4    4    0    0  0.32793185298E+02 -0.26480106285E+02 -0.32928104120E+03  0.33196775916E+03  0.00000000000E+00 0. -1.
         -5    1    5    5    0  502  0.20503201432E+01  0.14199948219E+03 -0.30526435318E+02  0.14533413229E+03  0.47000000000E+01 0.  1.
         11    1    6    6    0    0 -0.11941512566E+02 -0.29177978176E+02 -0.24138978164E+02  0.39706981749E+02  0.00000000000E+00 0. -1.
        -12    1    6    6    0    0  0.31218011393E+02  0.30545519818E+02  0.86308786371E+01  0.44520614128E+02  0.00000000000E+00 0.  1.
</event>
<event>
12    1  0.8052519E-002  0.2703537E+03  0.7818608E-02  0.1101568E+00
         21   -1    0    0  503  502  0.00000000000E+00  0.00000000000E+00  0.12659101482E+04  0.12659101482E+04  0.00000000000E+00 0.  1.
         21   -1    0    0  501  503 -0.00000000000E+00 -0.00000000000E+00 -0.88641016368E+02  0.88641016368E+02  0.00000000000E+00 0.  1.
          6    2    1    2  501    0  0.19369120297E+03 -0.80278593258E+02  0.18167323012E+03  0.32290087108E+03  0.16522371307E+03 0.  0.
         24    2    3    3    0    0  0.54573959358E+02 -0.32661530597E+02  0.13508703138E+03  0.16858510378E+03  0.78277318217E+02 0.  0.
         -6    2    1    2    0  502 -0.19369120297E+03  0.80278593258E+02  0.99559590170E+03  0.10316502935E+04  0.17067569805E+03 0.  0.
        -24    2    5    5    0    0 -0.11790311254E+03  0.96302660362E+02  0.47211620692E+03  0.50244930498E+03  0.79913984378E+02 0.  0.
          5    1    3    3  501    0  0.13911724361E+03 -0.47617062661E+02  0.46586198737E+02  0.15431576730E+03  0.47000000000E+01 0. -1.
        -11    1    4    4    0    0  0.26820644053E+02 -0.49348613546E+02  0.42310971053E+02  0.70319633658E+02  0.00000000000E+00 0.  1.
         12    1    4    4    0    0  0.27753315306E+02  0.16687082949E+02  0.92776060327E+02  0.98265470119E+02  0.00000000000E+00 0. -1.
         -5    1    5    5    0  502 -0.75788090420E+02 -0.16024067105E+02  0.52347969478E+03  0.52920098849E+03  0.47000000000E+01 0.  1.
         13    1    6    6    0    0 -0.75081296000E+02  0.33668050880E+02  0.14568834607E+03  0.16731955307E+03  0.00000000000E+00 0. -1.
        -14    1    6    6    0    0 -0.42821816545E+02  0.62634609482E+02  0.32642786085E+03  0.33512975191E+03  0.00000000000E+00 0.  1.
</event>
<event>
12    1  0.8052519E-002  0.2457941E+03  0.7818608E-02  0.1116104E+00
         21   -1    0    0  501  502  0.00000000000E+00  0.00000000000E+00  0.82268986018E+02  0.82268986018E+02  0.00000000000E+00 0. -1.
         21   -1    0    0  502  503 -0.00000000000E+00 -0.00000000000E+00 -0.93267931749E+03  0.93267931749E+03  0.00000000000E+00 0. -1.
         -6    2    1    2    0  503 -0.16415672998E+03 -0.63126806710E+02 -0.19045193738E+03  0.31094485413E+03  0.17170421117E+03 0.  0.
        -24    2    3    3    0    0 -0.14751879048E+03 -0.40189730748E+02 -0.21379384359E+03  0.27393316584E+03  0.77165820069E+02 0.  0.
          6    2    1    2  501    0  0.16415672998E+03  0.63126806710E+02 -0.65995839410E+03  0.70400344938E+03  0.17071423222E+03 0.  0.
         24    2    5    5    0    0  0.25440615869E+02  0.63330153785E+02 -0.31682625199E+03  0.33386299143E+03  0.80172874373E+02 0.  0.
          5    1    5    5  501    0  0.13871611411E+03 -0.20334707495E+00 -0.34313214211E+03  0.37014045795E+03  0.47000000000E+01 0. -1.
        -13    1    6    6    0    0  0.45479531365E+02  0.69570273742E+02 -0.23068983069E+03  0.24520646147E+03  0.00000000000E+00 0.  1.
         14    1    6    6    0    0 -0.20038915497E+02 -0.62401199566E+01 -0.86136421300E+02  0.88656529966E+02  0.00000000000E+00 0. -1.
         -5    1    3    3    0  503 -0.16637939495E+02 -0.22937075962E+02  0.23341906211E+02  0.37011688288E+02  0.47000000000E+01 0.  1.
         11    1    4    4    0    0 -0.85828168967E+02 -0.56374326620E+02 -0.99144629803E+02  0.14273821110E+03  0.00000000000E+00 0. -1.
        -12    1    4    4    0    0 -0.61690621518E+02  0.16184595872E+02 -0.11464921378E+03  0.13119495474E+03  0.00000000000E+00 0.  1.
</event>
<event>
12    1  0.8052519E-002  0.1849062E+03  0.7818608E-02  0.1163386E+00
         21   -1    0    0  501  502  0.00000000000E+00  0.00000000000E+00  0.32503929040E+03  0.32503929040E+03  0.00000000000E+00 0.  1.
         21   -1    0    0  502  503 -0.00000000000E+00 -0.00000000000E+00 -0.19368000311E+03  0.19368000311E+03  0.00000000000E+00 0.  1.
         -6    2    1    2    0  503  0.95874258492E+01  0.62901191574E+02 -0.11012627984E+03  0.21521641231E+03  0.17361402011E+03 0.  0.
        -24    2    3    3    0    0  0.34899304344E+02  0.93135207099E+02 -0.59155262167E+02  0.15060277961E+03  0.96383213986E+02 0.  0.
          6    2    1    2  501    0 -0.95874258492E+01 -0.62901191574E+02  0.24148556714E+03  0.30350288120E+03  0.17248258210E+03 0.  0.
         24    2    5    5    0    0  0.74564635374E+01  0.22116723666E+02  0.17782167375E+03  0.19582873668E+03  0.78635857860E+02 0.  0.
          5    1    5    5  501    0 -0.17043889387E+02 -0.85017915240E+02  0.63663893390E+02  0.10767414452E+03  0.47000000000E+01 0. -1.
        -13    1    6    6    0    0  0.16509576578E+02 -0.10980589561E+02  0.15094756921E+03  0.15224423836E+03  0.00000000000E+00 0.  1.
         14    1    6    6    0    0 -0.90531130404E+01  0.33097313227E+02  0.26874104540E+02  0.43584498316E+02  0.00000000000E+00 0. -1.
         -5    1    3    3    0  503 -0.25311878495E+02 -0.30234015526E+02 -0.50971017677E+02  0.64613632701E+02  0.47000000000E+01 0.  1.
         13    1    4    4    0    0 -0.42175226442E+01 -0.45130390945E+01  0.18725765373E+02  0.19718248095E+02  0.00000000000E+00 0. -1.
        -14    1    4    4    0    0  0.39116826988E+02  0.97648246194E+02 -0.77881027541E+02  0.13088453151E+03  0.00000000000E+00 0.  1.
</event>
<event>
12    1  0.8052519E-002  0.2059631E+03  0.7818608E-02  0.1144831E+00
         21   -1    0    0  501  502  0.00000000000E+00  0.00000000000E+00  0.13671765100E+04  0.13671765100E+04  0.00000000000E+00 0. -1.
         21   -1    0    0  502  503 -0.00000000000E+00 -0.00000000000E+00 -0.67616709805E+02  0.67616709805E+02  0.00000000000E+00 0. -1.
         -6    2    1    2    0  503 -0.20256444904E+02  0.11164359316E+03  0.12180604103E+03  0.23916589150E+03  0.17172360516E+03 0.  0.
        -24    2    3    3    0    0  0.94109948468E+01  0.21011506256E+02 -0.29687075353E+01  0.82050774344E+02  0.78698577667E+02 0.  0.
          6    2    1    2  501    0  0.20256444904E+02 -0.11164359316E+03  0.11777537592E+04  0.11956273283E+04  0.17189000995E+03 0.  0.
         24    2    5    5    0    0  0.17857178198E+02 -0.74426577233E+01  0.77478876219E+03  0.77937443618E+03  0.82174289010E+02 0.  0.
          5    1    5    5  501    0  0.23992667057E+01 -0.10420093544E+03  0.40296499698E+03  0.41625289214E+03  0.47000000000E+01 0. -1.
        -13    1    6    6    0    0  0.27354340291E+02 -0.16097442284E+02  0.11067008795E+03  0.11513147244E+03  0.00000000000E+00 0.  1.
         14    1    6    6    0    0 -0.94971620924E+01  0.86547845611E+01  0.66411867425E+03  0.66424296373E+03  0.00000000000E+00 0. -1.
         -5    1    3    3    0  503 -0.29667439751E+02  0.90632086905E+02  0.12477474857E+03  0.15711511715E+03  0.47000000000E+01 0.  1.
         13    1    4    4    0    0  0.32113667533E+02  0.23751478229E+02  0.24073259066E+02  0.46636275178E+02  0.00000000000E+00 0. -1.
        -14    1    4    4    0    0 -0.22702672686E+02 -0.27399719730E+01 -0.27041966601E+02  0.35414499165E+02  0.00000000000E+00 0.  1.
</event>
<event>
12    1  0.8052519E-002  0.1770958E+03  0.7818608E-02  0.1170660E+00
         21   -1    0    0  501  502  0.00000000000E+00  0.00000000000E+00  0.80231876975E+03  0.80231876975E+03  0.00000000000E+00 0. -1.
         21   -1    0    0  502  503 -0.00000000000E+00 -0.00000000000E+00 -0.39265040620E+02  0.39265040620E+02  0.00000000000E+00 0. -1.
         -6    2    1    2    0  503 -0.14422342477E+02  0.43168554197E+02  0.35226634342E+03  0.39424813942E+03  0.17108036328E+03 0.  0.
        -24    2    3    3    0    0 -0.12788413306E+02 -0.36755010303E+02  0.12307335126E+03  0.15146847895E+03  0.79253870738E+02 0.  0.
          6    2    1    2  501    0  0.14422342477E+02 -0.43168554197E+02  0.41078738572E+03  0.44733567095E+03  0.17114729974E+03 0.  0.
         24    2    5    5    0    0  0.55640201465E+01 -0.61672565705E+02  0.41403521948E+03  0.42603997325E+03  0.79059674687E+02 0.  0.
          5    1    5    5  501    0  0.88583223304E+01  0.18504011507E+02 -0.32478337584E+01  0.21295697699E+02  0.47000000000E+01 0. -1.
        -13    1    6    6    0    0  0.33591640326E+02 -0.25473242970E+02  0.30327372856E+03  0.30618987384E+03  0.00000000000E+00 0.  1.
         14    1    6    6    0    0 -0.28027620179E+02 -0.36199322734E+02  0.11076149091E+03  0.11985009941E+03  0.00000000000E+00 0. -1.
         -5    1    3    3    0  503 -0.16339291705E+01  0.79923564501E+02  0.22919299216E+03  0.24277966048E+03  0.47000000000E+01 0.  1.
         13    1    4    4    0    0  0.35830733716E+01 -0.78795306537E+01  0.11749011384E+03  0.11780854072E+03  0.00000000000E+00 0. -1.
        -14    1    4    4    0    0 -0.16371486678E+02 -0.28875479649E+02  0.55832374221E+01  0.33659938222E+02  0.00000000000E+00 0.  1.
</event>
<event>
12    1  0.8052519E-002  0.1953719E+03  0.7818608E-02  0.1153859E+00
         21   -1    0    0  501  502  0.00000000000E+00  0.00000000000E+00  0.41978959717E+03  0.41978959717E+03  0.00000000000E+00 0. -1.
         21   -1    0    0  502  503 -0.00000000000E+00 -0.00000000000E+00 -0.96443233250E+02  0.96443233250E+02  0.00000000000E+00 0.  1.
         -6    2    1    2    0  503 -0.88331293503E+02 -0.26196734427E+02  0.22551012317E+03  0.29837059263E+03  0.17228322201E+03 0.  0.
        -24    2    3    3    0    0 -0.65245842606E+02  0.17773968532E+02  0.51695562288E+02  0.11753931122E+03  0.81056305043E+02 0.  0.
          6    2    1    2  501    0  0.88331293503E+02  0.26196734427E+02  0.97836240753E+02  0.21786223779E+03  0.17147401653E+03 0.  0.
         24    2    5    5    0    0  0.49438845831E+02  0.23378019856E+02 -0.14776989340E+02  0.98596160345E+02  0.80697658772E+02 0.  0.
          5    1    5    5  501    0  0.38892447672E+02  0.28187145710E+01  0.11261323009E+03  0.11926607745E+03  0.47000000000E+01 0. -1.
        -11    1    6    6    0    0 -0.10625253381E+02  0.17788088811E+02 -0.29926507744E+02  0.36399285415E+02  0.00000000000E+00 0.  1.
         12    1    6    6    0    0  0.60064099212E+02  0.55899310447E+01  0.15149518404E+02  0.62196874930E+02  0.00000000000E+00 0. -1.
         -5    1    3    3    0  503 -0.23085450897E+02 -0.43970702958E+02  0.17381456088E+03  0.18083128141E+03  0.47000000000E+01 0.  1.
         13    1    4    4    0    0 -0.31110631469E+02 -0.31903765957E+02  0.28821871501E+02  0.53069972201E+02  0.00000000000E+00 0. -1.
        -14    1    4    4    0    0 -0.34135211138E+02  0.49677734489E+02  0.22873690788E+02  0.64469339020E+02  0.00000000000E+00 0.  1.
</event>
<event>
12    1  0.8052519E-002  0.2028972E+03  0.7818608E-02  0.1147340E+00
         21   -1    0    0  503  502  0.00000000000E+00  0.00000000000E+00  0.69832918058E+02  0.69832918058E+02  0.00000000000E+00 0. -1.
         21   -1    0    0  501  503 -0.00000000000E+00 -0.00000000000E+00 -0.81155402840E+03  0.81155402840E+03  0.00000000000E+00 0.  1.
          6    2    1    2  501    0 -0.83900625737E+02  0.66378463001E+02 -0.60146670144E+03  0.63473217611E+03  0.17227108610E+03 0.  0.
         24    2    3    3    0    0 -0.70588862829E+02 -0.12253819792E+02 -0.46034480726E+03  0.47256646474E+03  0.79175617270E+02 0.  0.
         -6    2    1    2    0  502  0.83900625737E+02 -0.66378463001E+02 -0.14025440890E+03  0.24665477034E+03  0.17240029341E+03 0.  0.
        -24    2    5    5    0    0 -0.16305069988E+02  0.13691680308E+01 -0.66073709031E+02  0.10468368456E+03  0.79531181677E+02 0.  0.
          5    1    3    3  501    0 -0.13311762908E+02  0.78632282793E+02 -0.14112189418E+03  0.16216571138E+03  0.47000000000E+01 0. -1.
        -11    1    4    4    0    0 -0.52238348240E+02  0.28341195409E+02 -0.20820116946E+03  0.21651742505E+03  0.00000000000E+00 0.  1.
         12    1    4    4    0    0 -0.18350514589E+02 -0.40595015201E+02 -0.25214363780E+03  0.25604903969E+03  0.00000000000E+00 0. -1.
         -5    1    5    5    0  502  0.10020569572E+03 -0.67747631032E+02 -0.74180699873E+02  0.14197108579E+03  0.47000000000E+01 0.  1.
         11    1    6    6    0    0 -0.30178498581E+02  0.20626719299E+02 -0.22883860799E+01  0.36625674553E+02  0.00000000000E+00 0. -1.
        -12    1    6    6    0    0  0.13873428593E+02 -0.19257551268E+02 -0.63785322951E+02  0.68058010004E+02  0.00000000000E+00 0.  1.
</event>
<event>
12    1  0.8052519E-002  0.1844738E+03  0.7818608E-02  0.1163678E+00
         21   -1    0    0  501  502  0.00000000000E+00  0.00000000000E+00  0.86880461336E+03  0.86880461336E+03  0.00000000000E+00 0. -1.
         21   -1    0    0  502  503 -0.00000000000E+00 -0.00000000000E+00 -0.42454183594E+02  0.42454183594E+02  0.00000000000E+00 0.  1.
         -6    2    1    2    0  503  0.24989158807E+02  0.62876669265E+02  0.28468493267E+03  0.33922866184E+03  0.17161771624E+03 0.  0.
        -24    2    3    3    0    0  0.20279668444E+02  0.82679030531E+01  0.26742495183E+03  0.28157197458E+03  0.85364212862E+02 0.  0.
          6    2    1    2  501    0 -0.24989158807E+02 -0.62876669265E+02  0.54166549710E+03  0.57203013512E+03  0.17099424301E+03 0.  0.
         24    2    5    5    0    0  0.40611771834E+02 -0.32469888428E+02  0.17203505575E+03  0.19536475631E+03  0.76601030903E+02 0.  0.
          5    1    5    5  501    0 -0.65600930641E+02 -0.30406780838E+02  0.36963044134E+03  0.37666537880E+03  0.47000000000E+01 0. -1.
        -13    1    6    6    0    0  0.17601601942E+02 -0.56324961806E+01  0.15504514935E+03  0.15614269032E+03  0.00000000000E+00 0.  1.
         14    1    6    6    0    0  0.23010169892E+02 -0.26837392247E+02  0.16989906405E+02  0.39222065993E+02  0.00000000000E+00 0. -1.
         -5    1    3    3    0  503  0.47094903623E+01  0.54608766212E+02  0.17259980845E+02  0.57656687257E+02  0.47000000000E+01 0.  1.
         11    1    4    4    0    0 -0.25238456214E+02  0.15491715358E+02  0.41430732351E+02  0.50926206416E+02  0.00000000000E+00 0. -1.
        -12    1    4    4    0    0  0.45518124658E+02 -0.72238123045E+01  0.22599421947E+03  0.23064576816E+03  0.00000000000E+00 0.  1.
</event>
<event>
12    1  0.8052519E-002  0.1844802E+03  0.7818608E-02  0.1164029E+00
         21   -1    0    0  503  502  0.00000000000E+00  0.00000000000E+00  0.32794698703E+03  0.32794698703E+03  0.00000000000E+00 0. -1.
         21   -1    0    0  501  503 -0.00000000000E+00 -0.00000000000E+00 -0.15438918130E+03  0.15438918130E+03  0.00000000000E+00 0. -1.
          6    2    1    2  501    0  0.48937310607E+02 -0.38487627422E+02 -0.53221963986E+02  0.18999730576E+03  0.17143582155E+03 0.  0.
         24    2    3    3    0    0  0.64742147424E+02 -0.83467074542E+02 -0.23698952927E+02  0.13372438410E+03  0.78500142337E+02 0.  0.
         -6    2    1    2    0  502 -0.48937310607E+02  0.38487627422E+02  0.22677976971E+03  0.29233886258E+03  0.17365710118E+03 0.  0.
        -24    2    5    5    0    0 -0.38038782913E+02  0.57931273399E+02  0.24269432561E+03  0.26455044118E+03  0.79268018780E+02 0.  0.
          5    1    3    3  501    0 -0.15804836816E+02  0.44979447120E+02 -0.29523011059E+02  0.56272921659E+02  0.47000000000E+01 0. -1.
        -13    1    4    4    0    0 -0.19728085051E+01 -0.56717801051E+02 -0.24567417300E+02  0.61841401361E+02  0.00000000000E+00 0.  1.
         14    1    4    4    0    0  0.66714955929E+02 -0.26749273491E+02  0.86846437310E+00  0.71882982738E+02  0.00000000000E+00 0. -1.
         -5    1    5    5    0  502 -0.10898527694E+02 -0.19443645977E+02 -0.15914555894E+02  0.27788421403E+02  0.47000000000E+01 0.  1.
         11    1    6    6    0    0 -0.57786197176E+02  0.36098283716E+02  0.20890686627E+03  0.21973713716E+03  0.00000000000E+00 0. -1.
        -12    1    6    6    0    0  0.19747414263E+02  0.21832989683E+02  0.33787459337E+02  0.44813304018E+02  0.00000000000E+00 0.  1.
</event>
<event>
12    1  0.8052519E-002  0.1761156E+03  0.7818608E-02  0.1171924E+00
         21   -1    0    0  503  502  0.00000000000E+00  0.00000000000E+00  0.10018229519E+03  0.10018229519E+03  0.00000000000E+00 0.  1.
         21   -1    0    0  501  503 -0.00000000000E+00 -0.00000000000E+00 -0.35459304935E+03  0.35459304935E+03  0.00000000000E+00 0.  1.
          6    2    1    2  501    0  0.32802428956E+02  0.14279409925E+02 -0.21051323187E+03  0.27446769878E+03  0.17244360234E+03 0.  0.
         24    2    3    3    0    0  0.65135649395E+02  0.57048184256E+02 -0.17038113171E+03  0.20733141451E+03  0.80370624309E+02 0.  0.
         -6    2    1    2    0  502 -0.32802428956E+02 -0.14279409925E+02 -0.43897522282E+02  0.18030764576E+03  0.17118397636E+03 0.  0.
        -24    2    5    5    0    0 -0.68919815730E+02  0.62408053333E+01 -0.73427759870E+02  0.12912493585E+03  0.80577444035E+02 0.  0.
          5    1    3    3  501    0 -0.32333220439E+02 -0.42768774331E+02 -0.40132100162E+02  0.67136284267E+02  0.47000000000E+01 0. -1.
        -13    1    4    4    0    0  0.18368413009E+02  0.45396996038E+02 -0.26691068582E+02  0.55773640618E+02  0.00000000000E+00 0.  1.
         14    1    4    4    0    0  0.46767236386E+02  0.11651188218E+02 -0.14369006313E+03  0.15155777390E+03  0.00000000000E+00 0. -1.
         -5    1    5    5    0  502  0.36117386774E+02 -0.20520215258E+02  0.29530237589E+02  0.51182709909E+02  0.47000000000E+01 0.  1.
         13    1    6    6    0    0  0.14032895265E+02  0.13990098611E+02 -0.27787286425E+02  0.34128848435E+02  0.00000000000E+00 0. -1.
        -14    1    6    6    0    0 -0.82952710995E+02 -0.77492932773E+01 -0.45640473446E+02  0.94996087414E+02  0.00000000000E+00 0.  1.
</event>
<event>
12    1  0.8052519E-002  0.1883939E+03  0.7818608E-02  0.1160019E+00
         21   -1    0    0  501  502  0.00000000000E+00  0.00000000000E+00  0.44718052566E+03  0.44718052566E+03  0.00000000000E+00 0.  1.
         21   -1    0    0  502  503 -0.00000000000E+00 -0.00000000000E+00 -0.96360267672E+02  0.96360267672E+02  0.00000000000E+00 0.  1.
         -6    2    1    2    0  503 -0.58536639743E+02  0.51179394612E+02  0.60494255065E+02  0.19744622481E+03  0.17111279371E+03 0.  0.
        -24    2    3    3    0    0  0.33655949598E+02  0.17616766790E+02  0.30679319068E+02  0.94796607550E+02  0.81253324664E+02 0.  0.
          6    2    1    2  501    0  0.58536639743E+02 -0.51179394612E+02  0.29032600292E+03  0.34609456852E+03  0.17159951562E+03 0.  0.
         24    2    5    5    0    0  0.43847454263E+02  0.34178649346E+02  0.18258240103E+03  0.20777413768E+03  0.82115648975E+02 0.  0.
          5    1    5    5  501    0  0.14689185480E+02 -0.85358043957E+02  0.10774360190E+03  0.13832043084E+03  0.47000000000E+01 0. -1.
        -13    1    6    6    0    0  0.27290013105E+02 -0.91893194386E+01  0.14560624418E+03  0.14842630074E+03  0.00000000000E+00 0.  1.
         14    1    6    6    0    0  0.16557441157E+02  0.43367968784E+02  0.36976156849E+02  0.59347836940E+02  0.00000000000E+00 0. -1.
         -5    1    3    3    0  503 -0.92192589341E+02  0.33562627821E+02  0.29814935997E+02  0.10264961726E+03  0.47000000000E+01 0.  1.
         11    1    4    4    0    0  0.51694454781E+01  0.35697661316E+02  0.45400351876E+02  0.57984809566E+02  0.00000000000E+00 0. -1.
        -12    1    4    4    0    0  0.28486504120E+02 -0.18080894526E+02 -0.14721032808E+02  0.36811797984E+02  0.00000000000E+00 0.  1.
</event>
<event>
12    1  0.8052519E-002  0.2098422E+03  0.7818608E-02  0.1142198E+00
         21   -1    0    0  501  502  0.00000000000E+00  0.00000000000E+00  0.67749751312E+03  0.67749751312E+03  0.00000000000E+00 0. -1.
         21   -1    0    0  502  503 -0.00000000000E+00 -0.00000000000E+00 -0.78749317057E+02  0.78749317057E+02  0.00000000000E+00 0. -1.
         -6    2    1    2    0  503 -0.81370550867E+02  0.82943384102E+02  0.13541930384E+03  0.24761392832E+03  0.17167847311E+03 0.  0.
        -24    2    3    3    0    0 -0.94722187057E+02  0.11614402551E+03  0.10601142463E+03  0.20105791755E+03  0.82000833362E+02 0.  0.
          6    2    1    2  501    0  0.81370550867E+02 -0.82943384102E+02  0.46332889222E+03  0.50863290186E+03  0.17473693076E+03 0.  0.
         24    2    5    5    0    0  0.73366263746E+02 -0.12258650606E+03  0.41109927494E+03  0.44240852076E+03  0.79452031180E+02 0.  0.
          5    1    5    5  501    0  0.80042871205E+01  0.39643121959E+02  0.52229617285E+02  0.66224381105E+02  0.47000000000E+01 0. -1.
        -11    1    6    6    0    0  0.10459594972E+02  0.11383633497E+02  0.37676558128E+02  0.40724848323E+02  0.00000000000E+00 0.  1.
         12    1    6    6    0    0  0.62906668774E+02 -0.13397013956E+03  0.37342271681E+03  0.40168367243E+03  0.00000000000E+00 0. -1.
         -5    1    3    3    0  503  0.13351636190E+02 -0.33200641413E+02  0.29407879210E+02  0.46556010770E+02  0.47000000000E+01 0.  1.
         13    1    4    4    0    0 -0.49669453291E+02  0.45180824384E+02  0.17958155804E+01  0.67168344001E+02  0.00000000000E+00 0. -1.
        -14    1    4    4    0    0 -0.45052733766E+02  0.70963201131E+02  0.10421560905E+03  0.13388957354E+03  0.00000000000E+00 0.  1.
</event>
<event>
12    1  0.8052519E-002  0.1754129E+03  0.7818608E-02  0.1176103E+00
         21   -1    0    0  501  502  0.00000000000E+00  0.00000000000E+00  0.15628756260E+03  0.15628756260E+03  0.00000000000E+00 0.  1.
         21   -1    0    0  502  503 -0.00000000000E+00 -0.00000000000E+00 -0.33672520379E+03  0.33672520379E+03  0.00000000000E+00 0.  1.
         -6    2    1    2    0  503 -0.35806291800E+02  0.24901055326E+02 -0.25985777073E+03  0.31352155267E+03  0.16990453169E+03 0.  0.
        -24    2    3    3    0    0 -0.65609908575E+02  0.39376376526E+02 -0.98022865515E+02  0.14826291585E+03  0.80735685545E+02 0.  0.
          6    2    1    2  501    0  0.35806291800E+02 -0.24901055326E+02  0.79420129542E+02  0.17949121372E+03  0.15494316938E+03 0.  0.
         24    2    5    5    0    0  0.40739189806E+02 -0.56557251321E+01 -0.69953371534E+01  0.90696849593E+02  0.80531453304E+02 0.  0.
          5    1    5    5  501    0 -0.49328980058E+01 -0.19245330193E+02  0.86415466695E+02  0.88794364129E+02  0.47000000000E+01 0. -1.
        -11    1    6    6    0    0 -0.14117039289E+02  0.51684531703E+01  0.22822630435E+02  0.27329035227E+02  0.00000000000E+00 0.  1.
         12    1    6    6    0    0  0.54856229095E+02 -0.10824178302E+02 -0.29817967588E+02  0.63367814366E+02  0.00000000000E+00 0. -1.
         -5    1    3    3    0  503  0.29803616774E+02 -0.14475321201E+02 -0.16183490522E+03  0.16525863682E+03  0.47000000000E+01 0.  1.
         11    1    4    4    0    0 -0.45311142214E+02 -0.17940493446E+02 -0.30949925622E+02  0.57730917279E+02  0.00000000000E+00 0. -1.
        -12    1    4    4    0    0 -0.20298766361E+02  0.57316869972E+02 -0.67072939892E+02  0.90531998569E+02  0.00000000000E+00 0.  1.
</event>
<event>
12    1  0.8052519E-002  0.1959225E+03  0.7818608E-02  0.1153680E+00
         21   -1    0    0  501  502  0.00000000000E+00  0.00000000000E+00  0.86053385605E+03  0.86053385605E+03  0.00000000000E+00 0.  1.
         21   -1    0    0  502  503 -0.00000000000E+00 -0.00000000000E+00 -0.59591474511E+02  0.59591474511E+02  0.00000000000E+00 0.  1.
         -6    2    1    2    0  503  0.78822194957E+02 -0.43262532776E+02  0.16456630930E+03  0.25427238623E+03  0.17172009516E+03 0.  0.
        -24    2    3    3    0    0  0.35124515116E+02 -0.84187844960E+02  0.14945870470E+03  0.19234744684E+03  0.79613510763E+02 0.  0.
          6    2    1    2  501    0 -0.78822194957E+02  0.43262532776E+02  0.63637607224E+03  0.66585294433E+03  0.17407197648E+03 0.  0.
         24    2    5    5    0    0 -0.78232801564E+02  0.50479210225E+01  0.60735872863E+03  0.61763676275E+03  0.80278843490E+02 0.  0.
          5    1    5    5  501    0 -0.58939339268E+00  0.38214611753E+02  0.29017343610E+02  0.48216181580E+02  0.47000000000E+01 0. -1.
        -13    1    6    6    0    0 -0.41936832025E+02  0.42611004101E+02  0.34188644140E+03  0.34707453719E+03  0.00000000000E+00 0.  1.
         14    1    6    6    0    0 -0.36295969539E+02 -0.37563083078E+02  0.26547228722E+03  0.27056222556E+03  0.00000000000E+00 0. -1.
         -5    1    3    3    0  503  0.43697679840E+02  0.40925312184E+02  0.15107604598E+02  0.61924939382E+02  0.47000000000E+01 0.  1.
         13    1    4    4    0    0  0.45245269018E+02 -0.42166650913E+02  0.13192626512E+03  0.14570415315E+03  0.00000000000E+00 0. -1.
        -14    1    4    4    0    0 -0.10120753902E+02 -0.42021194047E+02  0.17532439579E+02  0.46643293691E+02  0.00000000000E+00 0.  1.
</event>
<event>
12    1  0.8052519E-002  0.1976928E+03  0.7818608E-02  0.1151979E+00
         21   -1    0    0  501  502  0.00000000000E+00  0.00000000000E+00  0.56240333949E+02  0.56240333949E+02  0.00000000000E+00 0. -1.
         21   -1    0    0  502  503 -0.00000000000E+00 -0.00000000000E+00 -0.10895398489E+04  0.10895398489E+04  0.00000000000E+00 0. -1.
         -6    2    1    2    0  503 -0.64542628509E+02  0.70743273161E+02 -0.86448187233E+03  0.88679837967E+03  0.17295114049E+03 0.  0.
        -24    2    3    3    0    0 -0.40686284558E+01  0.98574495919E+02 -0.64435878930E+03  0.65678111221E+03  0.80185379161E+02 0.  0.
          6    2    1    2  501    0  0.64542628509E+02 -0.70743273161E+02 -0.16881764263E+03  0.25898180319E+03  0.17146957844E+03 0.  0.
         24    2    5    5    0    0 -0.15730826727E+02 -0.11133814980E+02 -0.12782040542E+03  0.15081536395E+03  0.77690393327E+02 0.  0.
          5    1    5    5  501    0  0.80273455236E+02 -0.59609458181E+02 -0.40997237210E+02  0.10816643924E+03  0.47000000000E+01 0. -1.
        -11    1    6    6    0    0 -0.40687637509E+02  0.87727239709E+01 -0.10056970990E+03  0.10884259773E+03  0.00000000000E+00 0.  1.
         12    1    6    6    0    0  0.24956810782E+02 -0.19906538951E+02 -0.27250695524E+02  0.41972766217E+02  0.00000000000E+00 0. -1.
         -5    1    3    3    0  503 -0.60474000053E+02 -0.27831222758E+02 -0.22012308304E+03  0.23001726746E+03  0.47000000000E+01 0.  1.
         11    1    4    4    0    0 -0.16011117761E+02  0.86338177505E+02 -0.62420661030E+03  0.63035270217E+03  0.00000000000E+00 0. -1.
        -12    1    4    4    0    0  0.11942489305E+02  0.12236318415E+02 -0.20152178992E+02  0.26428410041E+02  0.00000000000E+00 0.  1.
</event>
<event>
12    1  0.8052519E-002  0.2352759E+03  0.7818608E-02  0.1124157E+00
         21   -1    0    0  503  502  0.00000000000E+00  0.00000000000E+00  0.74719767638E+03  0.74719767638E+03  0.00000000000E+00 0. -1.
         21   -1    0    0  501  503 -0.00000000000E+00 -0.00000000000E+00 -0.72277152005E+02  0.72277152005E+02  0.00000000000E+00 0. -1.
          6    2    1    2  501    0 -0.13448696266E+03  0.61665854810E+02  0.31540825823E+03  0.39349346688E+03  0.18293528458E+03 0.  0.
         24    2    3    3    0    0 -0.46627059361E+01 -0.16876496258E+02  0.88170776547E+02  0.12021302187E+03  0.79815586435E+02 0.  0.
         -6    2    1    2    0  502  0.13448696266E+03 -0.61665854810E+02  0.35951226615E+03  0.42598136151E+03  0.17413107151E+03 0.  0.
        -24    2    5    5    0    0  0.33269158814E+02 -0.89755539096E+02  0.19642387899E+03  0.23193501084E+03  0.77772844183E+02 0.  0.
          5    1    3    3  501    0 -0.12982425672E+03  0.78542351067E+02  0.22723748168E+03  0.27328044501E+03  0.47000000000E+01 0. -1.
        -13    1    4    4    0    0 -0.32564042980E+02  0.34952719219E+01  0.77371046461E+02  0.84017335422E+02  0.00000000000E+00 0.  1.
         14    1    4    4    0    0  0.27901337044E+02 -0.20371768179E+02  0.10799730086E+02  0.36195686449E+02  0.00000000000E+00 0. -1.
         -5    1    5    5    0  502  0.10121780384E+03  0.28089684286E+02  0.16308838716E+03  0.19404635066E+03  0.47000000000E+01 0.  1.
         13    1    6    6    0    0  0.28530397077E+02 -0.81157933073E+02  0.87984934071E+02  0.12305259965E+03  0.00000000000E+00 0. -1.
        -14    1    6    6    0    0  0.47387617368E+01 -0.85976060228E+01  0.10843894491E+03  0.10888241119E+03  0.00000000000E+00 0.  1.
</event>
<event>
12    1  0.8052519E-002  0.3019663E+03  0.7818608E-02  0.1084429E+00
         21   -1    0    0  503  502  0.00000000000E+00  0.00000000000E+00  0.54397214661E+03  0.54397214661E+03  0.00000000000E+00 0. -1.
         21   -1    0    0  501  503 -0.00000000000E+00 -0.00000000000E+00 -0.60924475216E+03  0.60924475216E+03  0.00000000000E+00 0.  1.
          6    2    1    2  501    0 -0.32487055434E+02 -0.24625363069E+03 -0.52394926819E+03  0.60406491666E+03  0.16933791218E+03 0.  0.
         24    2    3    3    0    0  0.40237178226E+02 -0.18517042135E+03 -0.35340025189E+03  0.40879835632E+03  0.79481083540E+02 0.  0.
         -6    2    1    2    0  502  0.32487055434E+02  0.24625363069E+03  0.45867666264E+03  0.54915198211E+03  0.17171883767E+03 0.  0.
        -24    2    5    5    0    0  0.18037632859E+02  0.26480767986E+03  0.43288385165E+03  0.51393270256E+03  0.79309080402E+02 0.  0.
          5    1    3    3  501    0 -0.72724233659E+02 -0.61083209338E+02 -0.17054901630E+03  0.19526656033E+03  0.47000000000E+01 0. -1.
        -13    1    4    4    0    0  0.32494087083E+02 -0.12054051818E+03 -0.29882253986E+03  0.32385304160E+03  0.00000000000E+00 0.  1.
         14    1    4    4    0    0  0.77430911427E+01 -0.64629903171E+02 -0.54577712025E+02  0.84945314728E+02  0.00000000000E+00 0. -1.
         -5    1    5    5    0  502  0.14449422575E+02 -0.18554049167E+02  0.25792810991E+02  0.35219279551E+02  0.47000000000E+01 0.  1.
         13    1    6    6    0    0  0.26003383238E+02  0.25173713921E+03  0.36376726335E+03  0.44314149556E+03  0.00000000000E+00 0. -1.
        -14    1    6    6    0    0 -0.79657503787E+01  0.13070540653E+02  0.69116588293E+02  0.70791207006E+02  0.00000000000E+00 0.  1.
</event>
<event>
12    1  0.8052519E-002  0.1868874E+03  0.7818608E-02  0.1161739E+00
         21   -1    0    0  503  502  0.00000000000E+00  0.00000000000E+00  0.37137819286E+03  0.37137819286E+03  0.00000000000E+00 0. -1.
         21   -1    0    0  501  503 -0.00000000000E+00 -0.00000000000E+00 -0.14874882337E+03  0.14874882337E+03  0.00000000000E+00 0. -1.
          6    2    1    2  501    0  0.73663558062E+02  0.14724150928E+02 -0.47403987575E+02  0.19280571288E+03  0.17112505508E+03 0.  0.
         24    2    3    3    0    0  0.68004331260E+00 -0.46031413565E+02 -0.26101615376E+02  0.95370025871E+02  0.79339737937E+02 0.  0.
         -6    2    1    2    0  502 -0.73663558062E+02 -0.14724150928E+02  0.27003335706E+03  0.32732130334E+03  0.16905058796E+03 0.  0.
        -24    2    5    5    0    0 -0.10021624738E+03  0.10956356140E+02  0.13574089086E+03  0.18796173162E+03  0.82101675511E+02 0.  0.
          5    1    3    3  501    0  0.72983514750E+02  0.60755564493E+02 -0.21302372199E+02  0.97435687011E+02  0.47000000000E+01 0. -1.
        -13    1    4    4    0    0 -0.23100262226E+02 -0.26764377275E+02  0.19556344581E+02  0.40403027352E+02  0.00000000000E+00 0.  1.
         14    1    4    4    0    0  0.23780305539E+02 -0.19267036290E+02 -0.45657959956E+02  0.54966998520E+02  0.00000000000E+00 0. -1.
         -5    1    5    5    0  502  0.26552689322E+02 -0.25680507068E+02  0.13429246620E+03  0.13935957173E+03  0.47000000000E+01 0.  1.
         13    1    6    6    0    0 -0.65789586609E+02 -0.30647788437E+02  0.56066778630E+02  0.91711723941E+02  0.00000000000E+00 0. -1.
        -14    1    6    6    0    0 -0.34426660775E+02  0.41604144577E+02  0.79674112232E+02  0.96250007678E+02  0.00000000000E+00 0.  1.
</event>
<event>
12    1  0.8052519E-002  0.1837542E+03  0.7818608E-02  0.1164426E+00
         21   -1    0    0  501  502  0.00000000000E+00  0.00000000000E+00  0.56176592997E+02  0.56176592997E+02  0.00000000000E+00 0. -1.
         21   -1    0    0  502  503 -0.00000000000E+00 -0.00000000000E+00 -0.86692440113E+03  0.86692440113E+03  0.00000000000E+00 0. -1.
         -6    2    1    2    0  503  0.59856307547E+02  0.13999120812E+02 -0.66302149465E+03  0.68801389885E+03  0.17316717272E+03 0.  0.
        -24    2    3    3    0    0  0.82042943099E+02  0.15023862925E+02 -0.26314730581E+03  0.28749579215E+03  0.80315409358E+02 0.  0.
          6    2    1    2  501    0 -0.59856307547E+02 -0.13999120812E+02 -0.14772631349E+03  0.23508709528E+03  0.17223276614E+03 0.  0.
         24    2    5    5    0    0 -0.63808676595E+02 -0.44612914905E+01 -0.17654800669E+03  0.20411337402E+03  0.80010127212E+02 0.  0.
          5    1    5    5  501    0  0.39523690488E+01 -0.95378293218E+01  0.28821693206E+02  0.30973721257E+02  0.47000000000E+01 0. -1.
        -11    1    6    6    0    0 -0.63486480895E+01 -0.44252332188E+01 -0.12982282002E+03  0.13005326839E+03  0.00000000000E+00 0.  1.
         12    1    6    6    0    0 -0.57460028506E+02 -0.36058271693E-01 -0.46725186671E+02  0.74060105627E+02  0.00000000000E+00 0. -1.
         -5    1    3    3    0  503 -0.22186635553E+02 -0.10247421124E+01 -0.39987418884E+03  0.40051810670E+03  0.47000000000E+01 0.  1.
         13    1    4    4    0    0  0.49351619185E+02 -0.26478955493E+01 -0.23689710334E+03  0.24199758519E+03  0.00000000000E+00 0. -1.
        -14    1    4    4    0    0  0.32691323914E+02  0.17671758474E+02 -0.26250202465E+02  0.45498206957E+02  0.00000000000E+00 0.  1.
</event>
<event>
12    1  0.8052519E-002  0.2028052E+03  0.7818608E-02  0.1148145E+00
         21   -1    0    0  501  502  0.00000000000E+00  0.00000000000E+00  0.11443474602E+03  0.11443474602E+03  0.00000000000E+00 0.  1.
         21   -1    0    0  502  503 -0.00000000000E+00 -0.00000000000E+00 -0.10834123351E+04  0.10834123351E+04  0.00000000000E+00 0.  1.
         -6    2    1    2    0  503 -0.19769999956E+02 -0.10386204264E+03 -0.97763090817E+03  0.99844485695E+03  0.17306577638E+03 0.  0.
        -24    2    3    3    0    0 -0.54485981234E+02 -0.67035675621E+02 -0.43727200767E+03  0.45570070727E+03  0.94835763051E+02 0.  0.
          6    2    1    2  501    0  0.19769999956E+02  0.10386204264E+03  0.86533190670E+01  0.19940222420E+03  0.16884368595E+03 0.  0.
         24    2    5    5    0    0  0.46332090975E+02  0.87063913040E+02 -0.47266289508E+02  0.13508415162E+03  0.79289584987E+02 0.  0.
          5    1    5    5  501    0 -0.26562091019E+02  0.16798129599E+02  0.55919608575E+02  0.64318072581E+02  0.47000000000E+01 0. -1.
        -13    1    6    6    0    0  0.10570480930E+02  0.90015745833E+02 -0.35124667088E+02  0.97202426940E+02  0.00000000000E+00 0.  1.
         14    1    6    6    0    0  0.35761610044E+02 -0.29518327933E+01 -0.12141622420E+02  0.37881724681E+02  0.00000000000E+00 0. -1.
         -5    1    3    3    0  503  0.34715981277E+02 -0.36826367018E+02 -0.54035890050E+03  0.54274414968E+03  0.47000000000E+01 0.  1.
         11    1    4    4    0    0  0.20373778555E+02 -0.31055722063E+02 -0.70986731518E+02  0.80116569928E+02  0.00000000000E+00 0. -1.
        -12    1    4    4    0    0 -0.74859759789E+02 -0.35979953558E+02 -0.36628527615E+03  0.37558413734E+03  0.00000000000E+00 0.  1.
</event>
<event>
12    1  0.8052519E-002  0.1791706E+03  0.7818608E-02  0.1168769E+00
         21   -1    0    0  503  502  0.00000000000E+00  0.00000000000E+00  0.14871058866E+03  0.14871058866E+03  0.00000000000E+00 0. -1.
         21   -1    0    0  501  503 -0.00000000000E+00 -0.00000000000E+00 -0.21584722109E+03  0.21584722109E+03  0.00000000000E+00 0. -1.
          6    2    1    2  501    0 -0.30003396598E+02  0.38249516815E+02 -0.22744756829E+02  0.18060848879E+03  0.17244962429E+03 0.  0.
         24    2    3    3    0    0 -0.24777413373E+02  0.50689596965E+02  0.48543406230E+02  0.10790251457E+03  0.78122563381E+02 0.  0.
         -6    2    1    2    0  502  0.30003396598E+02 -0.38249516815E+02 -0.44391875602E+02  0.18394932095E+03  0.17176578447E+03 0.  0.
        -24    2    5    5    0    0  0.47713683796E+02  0.18607879106E+01  0.29653372330E+02  0.97767654928E+02  0.79994585483E+02 0.  0.
          5    1    3    3  501    0 -0.52259832256E+01 -0.12440080149E+02 -0.71288163059E+02  0.72705974219E+02  0.47000000000E+01 0. -1.
        -11    1    4    4    0    0 -0.35311549210E+01 -0.18028291717E+02  0.27296382187E+02  0.32902596217E+02  0.00000000000E+00 0.  1.
         12    1    4    4    0    0 -0.21246258452E+02  0.68717888681E+02  0.21247024043E+02  0.74999918358E+02  0.00000000000E+00 0. -1.
         -5    1    5    5    0  502 -0.17710287197E+02 -0.40110304726E+02 -0.74045247932E+02  0.86181666027E+02  0.47000000000E+01 0.  1.
         13    1    6    6    0    0  0.26509382951E+02  0.65896951121E+01 -0.26192595357E+02  0.37844729060E+02  0.00000000000E+00 0. -1.
        -14    1    6    6    0    0  0.21204300844E+02 -0.47289072015E+01  0.55845967687E+02  0.59922925868E+02  0.00000000000E+00 0.  1.
</event>
<event>
12    1  0.8052519E-002  0.1884251E+03  0.7818608E-02  0.1160112E+00
         21   -1    0    0  503  502  0.00000000000E+00  0.00000000000E+00  0.37232400096E+03  0.37232400096E+03  0.00000000000E+00 0. -1.
         21   -1    0    0  501  503 -0.00000000000E+00 -0.00000000000E+00 -0.95600293684E+02  0.95600293684E+02  0.00000000000E+00 0.  1.
          6    2    1    2  501    0 -0.74093608250E+02 -0.10445279637E+02  0.15921218621E+03  0.24668307427E+03  0.17293077297E+03 0.  0.
         24    2    3    3    0    0 -0.72074760933E+02 -0.69893085585E+02  0.11852033859E+03  0.17446095965E+03  0.79433879469E+02 0.  0.
         -6    2    1    2    0  502  0.74093608250E+02  0.10445279637E+02  0.11751152106E+03  0.22124122037E+03  0.17187132792E+03 0.  0.
        -24    2    5    5    0    0 -0.50568758825E+01  0.34752314831E+02  0.53795373833E+01  0.81773292657E+02  0.73652132282E+02 0.  0.
          5    1    3    3  501    0 -0.20188473169E+01  0.59447805948E+02  0.40691847627E+02  0.72222114617E+02  0.47000000000E+01 0. -1.
        -11    1    4    4    0    0 -0.85005196093E+02 -0.37064066017E+02  0.85251908441E+02  0.12596632981E+03  0.00000000000E+00 0.  1.
         12    1    4    4    0    0  0.12930435160E+02 -0.32829019568E+02  0.33268430146E+02  0.48494629843E+02  0.00000000000E+00 0. -1.
         -5    1    5    5    0  502  0.79150484132E+02 -0.24307035194E+02  0.11213198368E+03  0.13946792772E+03  0.47000000000E+01 0.  1.
         11    1    6    6    0    0 -0.33228245240E+02  0.12772717150E+02  0.22540380492E+02  0.42134633473E+02  0.00000000000E+00 0. -1.
        -12    1    6    6    0    0  0.28171369358E+02  0.21979597680E+02 -0.17160843109E+02  0.39638659184E+02  0.00000000000E+00 0.  1.
</event>
<event>
12    1  0.8052519E-002  0.2944717E+03  0.7818608E-02  0.1088251E+00
         21   -1    0    0  501  502  0.00000000000E+00  0.00000000000E+00  0.27311829403E+03  0.27311829403E+03  0.00000000000E+00 0.  1.
         21   -1    0    0  502  503 -0.00000000000E+00 -0.00000000000E+00 -0.35813502234E+03  0.35813502234E+03  0.00000000000E+00 0. -1.
         -6    2    1    2    0  503 -0.14861480430E+02  0.23643251422E+03 -0.15104579853E+03  0.32946959541E+03  0.17208772085E+03 0.  0.
        -24    2    3    3    0    0  0.27720202718E+02  0.45146693808E+02 -0.35342776074E+02  0.10184546612E+03  0.79478006696E+02 0.  0.
          6    2    1    2  501    0  0.14861480430E+02 -0.23643251422E+03  0.66029070227E+02  0.30178372096E+03  0.17490677158E+03 0.  0.
         24    2    5    5    0    0 -0.18233917362E+02 -0.13809536987E+03  0.10387951755E+03  0.19123850091E+03  0.79864905579E+02 0.  0.
          5    1    5    5  501    0  0.33095397793E+02 -0.98337144351E+02 -0.37850447322E+02  0.11054522005E+03  0.47000000000E+01 0. -1.
        -11    1    6    6    0    0 -0.44569260204E+02 -0.73860278097E+02  0.33966821354E+02  0.92711944153E+02  0.00000000000E+00 0.  1.
         12    1    6    6    0    0  0.26335342841E+02 -0.64235091769E+02  0.69912696194E+02  0.98526556756E+02  0.00000000000E+00 0. -1.
         -5    1    3    3    0  503 -0.42581683148E+02  0.19128582041E+03 -0.11570302246E+03  0.22762412929E+03  0.47000000000E+01 0.  1.
         13    1    4    4    0    0 -0.14421056554E+02  0.34442931394E+02 -0.43794703339E+02  0.57552223551E+02  0.00000000000E+00 0. -1.
        -14    1    4    4    0    0  0.42141259272E+02  0.10703762414E+02  0.84519272653E+01  0.44293242570E+02  0.00000000000E+00 0.  1.
</event>
<event>
12    1  0.8052519E-002  0.1738494E+03  0.7818608E-02  0.1175028E+00
         21   -1    0    0  503  502  0.00000000000E+00  0.00000000000E+00  0.41915207557E+03  0.41915207557E+03  0.00000000000E+00 0. -1.
         21   -1    0    0  501  503 -0.00000000000E+00 -0.00000000000E+00 -0.74467714510E+02  0.74467714510E+02  0.00000000000E+00 0.  1.
          6    2    1    2  501    0  0.10046876384E+02 -0.34828810176E+02  0.23293851737E+03  0.29066122811E+03  0.17002826504E+03 0.  0.
         24    2    3    3    0    0 -0.16021067672E+01  0.62104363034E+01  0.34225900678E+02  0.87366583348E+02  0.80127219742E+02 0.  0.
         -6    2    1    2    0  502 -0.10046876384E+02  0.34828810176E+02  0.11174584370E+03  0.20295856197E+03  0.16550244273E+03 0.  0.
        -24    2    5    5    0    0 -0.68150149345E+02  0.15175842708E+02  0.56516507425E+02  0.12028692811E+03  0.80000502535E+02 0.  0.
          5    1    3    3  501    0  0.11648983151E+02 -0.41039246479E+02  0.19871261669E+03  0.20329464477E+03  0.47000000000E+01 0. -1.
        -11    1    4    4    0    0  0.35246037457E+02  0.53572746302E+01  0.35735299835E+02  0.50477670333E+02  0.00000000000E+00 0.  1.
         12    1    4    4    0    0 -0.36848144225E+02  0.85316167316E+00 -0.15093991570E+01  0.36888913015E+02  0.00000000000E+00 0. -1.
         -5    1    5    5    0  502  0.58103272960E+02  0.19652967468E+02  0.55229336271E+02  0.82671633854E+02  0.47000000000E+01 0.  1.
         13    1    6    6    0    0  0.41066750258E+01 -0.19185974623E+02  0.30285472043E+02  0.36085678861E+02  0.00000000000E+00 0. -1.
        -14    1    6    6    0    0 -0.72256824370E+02  0.34361817331E+02  0.26231035382E+02  0.84201249252E+02  0.00000000000E+00 0.  1.
</event>
<event>
12    1  0.8052519E-002  0.2271214E+03  0.7818608E-02  0.1128800E+00
         21   -1    0    0  501  502  0.00000000000E+00  0.00000000000E+00  0.48859676306E+03  0.48859676306E+03  0.00000000000E+00 0. -1.
         21   -1    0    0  502  503 -0.00000000000E+00 -0.00000000000E+00 -0.29279615400E+03  0.29279615400E+03  0.00000000000E+00 0.  1.
         -6    2    1    2    0  503 -0.14423672264E+03 -0.31177854200E+02 -0.21481937416E+03  0.31214576855E+03  0.17178861009E+03 0.  0.
        -24    2    3    3    0    0 -0.10791923132E+03 -0.32934673122E+01 -0.81595084712E+02  0.17119435668E+03  0.10484437274E+03 0.  0.
          6    2    1    2  501    0  0.14423672264E+03  0.31177854200E+02  0.41061998322E+03  0.46924714852E+03  0.17264942810E+03 0.  0.
         24    2    5    5    0    0  0.12308407829E+03  0.70341025636E+02  0.38634746053E+03  0.41833120095E+03  0.75093829348E+02 0.  0.
          5    1    5    5  501    0  0.21152644347E+02 -0.39163171437E+02  0.24272522684E+02  0.50915947573E+02  0.47000000000E+01 0. -1.
        -11    1    6    6    0    0 -0.80438874041E+01  0.11930310154E+02  0.18293865164E+02  0.23274490919E+02  0.00000000000E+00 0.  1.
         12    1    6    6    0    0  0.13112796570E+03  0.58410715483E+02  0.36805359537E+03  0.39505671003E+03  0.00000000000E+00 0. -1.
         -5    1    3    3    0  503 -0.36317491321E+02 -0.27884386888E+02 -0.13322428945E+03  0.14095141186E+03  0.47000000000E+01 0.  1.
         11    1    4    4    0    0 -0.48128473142E+02 -0.48296971721E+02 -0.12459632271E+02  0.69312263278E+02  0.00000000000E+00 0. -1.
        -12    1    4    4    0    0 -0.59790758176E+02  0.45003504409E+02 -0.69135452441E+02  0.10188209340E+03  0.00000000000E+00 0.  1.
</event>
<event>
12    1  0.8052519E-002  0.2964910E+03  0.7818608E-02  0.1087207E+00
         21   -1    0    0  501  502  0.00000000000E+00  0.00000000000E+00  0.54065955876E+03  0.54065955876E+03  0.00000000000E+00 0. -1.
         21   -1    0    0  502  503 -0.00000000000E+00 -0.00000000000E+00 -0.17831247414E+03  0.17831247414E+03  0.00000000000E+00 0.  1.
         -6    2    1    2    0  503 -0.16870894653E+03 -0.17102012771E+03  0.71129748088E+02  0.30338278333E+03  0.17108792896E+03 0.  0.
        -24    2    3    3    0    0 -0.13580504727E+03 -0.19172350713E+03  0.35360179692E+02  0.25034648887E+03  0.78880340601E+02 0.  0.
          6    2    1    2  501    0  0.16870894653E+03  0.17102012771E+03  0.29121733653E+03  0.41558924956E+03  0.17377081037E+03 0.  0.
         24    2    5    5    0    0  0.11785802087E+03  0.93265246487E+02  0.86773594706E+02  0.19097631190E+03  0.79708065365E+02 0.  0.
          5    1    5    5  501    0  0.50850925667E+02  0.77754881221E+02  0.20444374182E+03  0.22461293766E+03  0.47000000000E+01 0. -1.
        -13    1    6    6    0    0 -0.52271151658E+01 -0.54010684647E+01  0.16798016841E+02  0.18402924857E+02  0.00000000000E+00 0.  1.
         14    1    6    6    0    0  0.12308513603E+03  0.98666314952E+02  0.69975577865E+02  0.17257338704E+03  0.00000000000E+00 0. -1.
         -5    1    3    3    0  503 -0.32903899269E+02  0.20703379422E+02  0.35769568396E+02  0.53036294458E+02  0.47000000000E+01 0.  1.
         11    1    4    4    0    0 -0.57233990302E+02 -0.10325089992E+03  0.55282888465E+02  0.13035595781E+03  0.00000000000E+00 0. -1.
        -12    1    4    4    0    0 -0.78571056963E+02 -0.88472607209E+02 -0.19922708773E+02  0.11999053106E+03  0.00000000000E+00 0.  1.
</event>
<event>
12    1  0.8052519E-002  0.3831987E+03  0.7818608E-02  0.1049771E+00
         21   -1    0    0  503  502  0.00000000000E+00  0.00000000000E+00  0.19334194903E+04  0.19334194903E+04  0.00000000000E+00 0. -1.
         21   -1    0    0  501  503 -0.00000000000E+00 -0.00000000000E+00 -0.12568150861E+03  0.12568150861E+03  0.00000000000E+00 0. -1.
          6    2    1    2  501    0 -0.33446245742E+03 -0.70364980510E+02  0.25593556828E+03  0.46068553006E+03  0.17295021419E+03 0.  0.
         24    2    3    3    0    0 -0.14461076116E+03 -0.42913964417E+02  0.47723014781E+02  0.17753930937E+03  0.80553334162E+02 0.  0.
         -6    2    1    2    0  502  0.33446245742E+03  0.70364980510E+02  0.15518024134E+04  0.15984154689E+04  0.17327698895E+03 0.  0.
        -24    2    5    5    0    0  0.19948488039E+03  0.59423451978E+02  0.66557408248E+03  0.70188805272E+03  0.79577730076E+02 0.  0.
          5    1    3    3  501    0 -0.18985169626E+03 -0.27451016093E+02  0.20821255350E+03  0.28314622069E+03  0.47000000000E+01 0. -1.
        -13    1    4    4    0    0 -0.52102387654E+01 -0.20411071572E+02  0.27884869735E+02  0.34947451851E+02  0.00000000000E+00 0.  1.
         14    1    4    4    0    0 -0.13940052240E+03 -0.22502892845E+02  0.19838145046E+02  0.14259185752E+03  0.00000000000E+00 0. -1.
         -5    1    5    5    0  502  0.13497757703E+03  0.10941528532E+02  0.88622833094E+03  0.89652741615E+03  0.47000000000E+01 0.  1.
         13    1    6    6    0    0  0.44415156296E+02  0.50767406919E+02  0.19322535335E+03  0.20466087289E+03  0.00000000000E+00 0. -1.
        -14    1    6    6    0    0  0.15506972409E+03  0.86560450587E+01  0.47234872913E+03  0.49722717983E+03  0.00000000000E+00 0.  1.
</event>
<event>
12    1  0.8052519E-002  0.1851145E+03  0.7818608E-02  0.1163175E+00
         21   -1    0    0  501  502  0.00000000000E+00  0.00000000000E+00  0.37585884761E+02  0.37585884761E+02  0.00000000000E+00 0. -1.
         21   -1    0    0  502  503 -0.00000000000E+00 -0.00000000000E+00 -0.93082448136E+03  0.93082448136E+03  0.00000000000E+00 0. -1.
         -6    2    1    2    0  503  0.42967357573E+02  0.53218013090E+02 -0.52551569899E+03  0.55716615002E+03  0.17201458689E+03 0.  0.
        -24    2    3    3    0    0  0.92867945723E+02  0.24744645447E+02 -0.30855731171E+03  0.33268044184E+03  0.78942440754E+02 0.  0.
          6    2    1    2  501    0 -0.42967357573E+02 -0.53218013090E+02 -0.36772289760E+03  0.41124421610E+03  0.17094831126E+03 0.  0.
         24    2    5    5    0    0 -0.34060698617E+02 -0.77498791319E+02 -0.36693165004E+03  0.38494591126E+03  0.79864416004E+02 0.  0.
          5    1    5    5  501    0 -0.89066589553E+01  0.24280778228E+02 -0.79124756236E+00  0.26298304847E+02  0.47000000000E+01 0. -1.
        -11    1    6    6    0    0 -0.13527700474E+02  0.15736000477E+02 -0.58093601157E+02  0.61688628502E+02  0.00000000000E+00 0.  1.
         12    1    6    6    0    0 -0.20532998143E+02 -0.93234791796E+02 -0.30883804889E+03  0.32325728275E+03  0.00000000000E+00 0. -1.
         -5    1    3    3    0  503 -0.49900588150E+02  0.28473367643E+02 -0.21695838728E+03  0.22448570818E+03  0.47000000000E+01 0.  1.
         13    1    4    4    0    0  0.50080944727E+02  0.51446040180E+02 -0.21059638353E+03  0.22249861310E+03  0.00000000000E+00 0. -1.
        -14    1    4    4    0    0  0.42787000996E+02 -0.26701394733E+02 -0.97960928174E+02  0.11018182874E+03  0.00000000000E+00 0.  1.
</event>
<event>
12    1  0.8052519E-002  0.1909317E+03  0.7818608E-02  0.1158634E+00
         21   -1    0    0  501  502  0.00000000000E+00  0.00000000000E+00  0.22627328305E+03  0.22627328305E+03  0.00000000000E+00 0. -1.
         21   -1    0    0  502  503 -0.00000000000E+00 -0.00000000000E+00 -0.47293886468E+03  0.47293886468E+03  0.00000000000E+00 0. -1.
         -6    2    1    2    0  503 -0.67093865396E+02  0.49913875276E+02 -0.40938571232E+03  0.45172066532E+03  0.17164473866E+03 0.  0.
        -24    2    3    3    0    0 -0.80071804786E+02  0.13066863134E+02 -0.39294950335E+03  0.40907833682E+03  0.79709075018E+02 0.  0.
          6    2    1    2  501    0  0.67093865396E+02 -0.49913875276E+02  0.16272013069E+03  0.24749148241E+03  0.16667696665E+03 0.  0.
         24    2    5    5    0    0  0.45311166226E+02  0.32973117049E+02  0.90587350401E+02  0.13537561612E+03  0.83547358760E+02 0.  0.
          5    1    5    5  501    0  0.21782699170E+02 -0.82886992325E+02  0.72132780292E+02  0.11211586628E+03  0.47000000000E+01 0. -1.
        -11    1    6    6    0    0 -0.23252316538E+02  0.12542561078E+02  0.39275055084E+02  0.47334089351E+02  0.00000000000E+00 0.  1.
         12    1    6    6    0    0  0.68563482765E+02  0.20430555971E+02  0.51312295317E+02  0.88041526774E+02  0.00000000000E+00 0. -1.
         -5    1    3    3    0  503  0.12977939390E+02  0.36847012143E+02 -0.16436208969E+02  0.42642328500E+02  0.47000000000E+01 0.  1.
         13    1    4    4    0    0 -0.28378604727E+02  0.25428102989E+02 -0.29662919420E+03  0.29906656865E+03  0.00000000000E+00 0. -1.
        -14    1    4    4    0    0 -0.51693200060E+02 -0.12361239856E+02 -0.96320309146E+02  0.11001176818E+03  0.00000000000E+00 0.  1.
</event>
<event>
12    1  0.8052519E-002  0.3672496E+03  0.7818608E-02  0.1056487E+00
         21   -1    0    0  501  502  0.00000000000E+00  0.00000000000E+00  0.18797911489E+03  0.18797911489E+03  0.00000000000E+00 0.  1.
         21   -1    0    0  502  503 -0.00000000000E+00 -0.00000000000E+00 -0.75859789804E+03  0.75859789804E+03  0.00000000000E+00 0.  1.
         -6    2    1    2    0  503 -0.20220416920E+03 -0.24273936703E+03 -0.41091828000E+03  0.54610662393E+03  0.17195838309E+03 0.  0.
        -24    2    3    3    0    0 -0.16749759337E+02 -0.50022254183E+02 -0.93411222896E+02  0.13093672493E+03  0.75073224402E+02 0.  0.
          6    2    1    2  501    0  0.20220416920E+03  0.24273936703E+03 -0.15970050315E+03  0.40047038901E+03  0.18725211725E+03 0.  0.
         24    2    5    5    0    0  0.13799785182E+03  0.11746500665E+03 -0.16760873420E+03  0.25940038271E+03  0.79714715541E+02 0.  0.
          5    1    5    5  501    0  0.64206317382E+02  0.12527436037E+03  0.79082310470E+01  0.14107000630E+03  0.47000000000E+01 0. -1.
        -11    1    6    6    0    0  0.60498693761E+02  0.10133155054E+03 -0.88756398007E+02  0.14766811866E+03  0.00000000000E+00 0.  1.
         12    1    6    6    0    0  0.77499158058E+02  0.16133456114E+02 -0.78852336193E+02  0.11173226405E+03  0.00000000000E+00 0. -1.
         -5    1    3    3    0  503 -0.18545440986E+03 -0.19271711285E+03 -0.31750705710E+03  0.41516989900E+03  0.47000000000E+01 0.  1.
         11    1    4    4    0    0  0.47117086936E+00 -0.37165138189E+02 -0.22058263963E+01  0.37233522110E+02  0.00000000000E+00 0. -1.
        -12    1    4    4    0    0 -0.17220930206E+02 -0.12857115994E+02 -0.91205396499E+02  0.93703202824E+02  0.00000000000E+00 0.  1.
</event>
<event>
12    1  0.8052519E-002  0.1784229E+03  0.7818608E-02  0.1169778E+00
         21   -1    0    0  501  502  0.00000000000E+00  0.00000000000E+00  0.88867606570E+03  0.88867606570E+03  0.00000000000E+00 0. -1.
         21   -1    0    0  502  503 -0.00000000000E+00 -0.00000000000E+00 -0.74174276483E+02  0.74174276483E+02  0.00000000000E+00 0. -1.
         -6    2    1    2    0  503  0.50527243181E+02  0.15709912696E+02  0.58486996830E+02  0.18606652559E+03  0.16852364667E+03 0.  0.
        -24    2    3    3    0    0  0.21667260677E+02  0.42420107840E+02 -0.23361895697E+02  0.95139828070E+02  0.78973875302E+02 0.  0.
          6    2    1    2  501    0 -0.50527243181E+02 -0.15709912696E+02  0.75601479239E+03  0.77678381659E+03  0.17039638419E+03 0.  0.
         24    2    5    5    0    0 -0.77833630145E+02 -0.16706701274E+02  0.32034360247E+03  0.34023129045E+03  0.82462837128E+02 0.  0.
          5    1    5    5  501    0  0.27306386964E+02  0.99678857831E+00  0.43567118992E+03  0.43655252615E+03  0.47000000000E+01 0. -1.
        -11    1    6    6    0    0 -0.62883861583E+02  0.26650869682E+02  0.20628645462E+03  0.21729875808E+03  0.00000000000E+00 0.  1.
         12    1    6    6    0    0 -0.14949768562E+02 -0.43357570956E+02  0.11405714785E+03  0.12293253237E+03  0.00000000000E+00 0. -1.
         -5    1    3    3    0  503  0.28859982504E+02 -0.26710195144E+02  0.81848892527E+02  0.90926697524E+02  0.47000000000E+01 0.  1.
         13    1    4    4    0    0  0.43870267624E+02  0.30728568268E+02 -0.38382741618E+02  0.65894462160E+02  0.00000000000E+00 0. -1.
        -14    1    4    4    0    0 -0.22203006947E+02  0.11691539572E+02  0.15020845921E+02  0.29245365910E+02  0.00000000000E+00 0.  1.
</event>
<event>
12    1  0.8052519E-002  0.2132103E+03  0.7818608E-02  0.1139051E+00
         21   -1    0    0  501  502  0.00000000000E+00  0.00000000000E+00  0.26131619015E+03  0.26131619015E+03  0.00000000000E+00 0.  1.
         21   -1    0    0  502  503 -0.00000000000E+00 -0.00000000000E+00 -0.34854137432E+03  0.34854137432E+03  0.00000000000E+00 0.  1.
         -6    2    1    2    0  503  0.44189186073E+02 -0.11778566035E+03 -0.25942914790E+03  0.33580072357E+03  0.17214092256E+03 0.  0.
        -24    2    3    3    0    0 -0.37078987226E+02 -0.83371566417E+02 -0.17240337054E+03  0.21176676944E+03  0.82441331169E+02 0.  0.
          6    2    1    2  501    0 -0.44189186073E+02  0.11778566035E+03  0.17220396373E+03  0.27405684089E+03  0.17212437645E+03 0.  0.
         24    2    5    5    0    0  0.21404344314E+02  0.11346547568E+02  0.94401114129E+02  0.12672330987E+03  0.80995906183E+02 0.  0.
          5    1    5    5  501    0 -0.65593530387E+02  0.10643911278E+03  0.77802849601E+02  0.14733353102E+03  0.47000000000E+01 0. -1.
        -13    1    6    6    0    0 -0.14146613196E+02 -0.49431463436E+01  0.85255925779E+02  0.86562891825E+02  0.00000000000E+00 0.  1.
         14    1    6    6    0    0  0.35550957510E+02  0.16289693911E+02  0.91451883500E+01  0.40160418045E+02  0.00000000000E+00 0. -1.
         -5    1    3    3    0  503  0.81268173299E+02 -0.34414093930E+02 -0.87025777364E+02  0.12403395413E+03  0.47000000000E+01 0.  1.
         13    1    4    4    0    0 -0.24631755608E+02  0.11150176827E+02 -0.29892723559E+02  0.40306634062E+02  0.00000000000E+00 0. -1.
        -14    1    4    4    0    0 -0.12447231617E+02 -0.94521743244E+02 -0.14251064698E+03  0.17146013538E+03  0.00000000000E+00 0.  1.
</event>
<event>
12    1  0.8052519E-002  0.2038533E+03  0.7818608E-02  0.1146781E+00
         21   -1    0    0  503  502  0.00000000000E+00  0.00000000000E+00  0.11755442890E+03  0.11755442890E+03  0.00000000000E+00 0.  1.
         21   -1    0    0  501  503 -0.00000000000E+00 -0.00000000000E+00 -0.50236323239E+03  0.50236323239E+03  0.00000000000E+00 0.  1.
          6    2    1    2  501    0  0.38379777106E+02 -0.10235518606E+03 -0.36273566576E+03  0.41609293783E+03  0.17206562207E+03 0.  0.
         24    2    3    3    0    0  0.87672962576E+02 -0.81867194382E+02 -0.21463071166E+03  0.25859137160E+03  0.80089757126E+02 0.  0.
         -6    2    1    2    0  502 -0.38379777106E+02  0.10235518606E+03 -0.22073137738E+02  0.20382472345E+03  0.17060979772E+03 0.  0.
        -24    2    5    5    0    0 -0.66042444134E+02  0.51461466961E+02 -0.63214378164E+02  0.13262019091E+03  0.81130576364E+02 0.  0.
          5    1    3    3  501    0 -0.49293185470E+02 -0.20487991682E+02 -0.14810495410E+03  0.15750156623E+03  0.47000000000E+01 0. -1.
        -13    1    4    4    0    0  0.60906740683E+02 -0.54551091553E+02 -0.65879829239E+02  0.10500287877E+03  0.00000000000E+00 0.  1.
         14    1    4    4    0    0  0.26766221893E+02 -0.27316102828E+02 -0.14875088242E+03  0.15358849283E+03  0.00000000000E+00 0. -1.
         -5    1    5    5    0  502  0.27662667029E+02  0.50893719103E+02  0.41141240426E+02  0.71204532546E+02  0.47000000000E+01 0.  1.
         13    1    6    6    0    0 -0.78512199623E+02  0.17586195131E+02 -0.42244144060E+02  0.90873579528E+02  0.00000000000E+00 0. -1.
        -14    1    6    6    0    0  0.12469755488E+02  0.33875271829E+02 -0.20970234104E+02  0.41746611382E+02  0.00000000000E+00 0.  1.
</event>
<event>
12    1  0.8052519E-002  0.1784898E+03  0.7818608E-02  0.1169534E+00
         21   -1    0    0  501  502  0.00000000000E+00  0.00000000000E+00  0.23475131541E+03  0.23475131541E+03  0.00000000000E+00 0.  1.
         21   -1    0    0  502  503 -0.00000000000E+00 -0.00000000000E+00 -0.28695328533E+03  0.28695328533E+03  0.00000000000E+00 0.  1.
         -6    2    1    2    0  503  0.18894342373E+01  0.45280365682E+02 -0.21594462170E+03  0.27948517517E+03  0.17154008867E+03 0.  0.
        -24    2    3    3    0    0 -0.76322343695E+01 -0.42241129979E+02 -0.91990480136E+02  0.12737536751E+03  0.76939403103E+02 0.  0.
          6    2    1    2  501    0 -0.18894342373E+01 -0.45280365682E+02  0.16374265178E+03  0.24221942557E+03  0.17264041426E+03 0.  0.
         24    2    5    5    0    0  0.20953461013E+02 -0.87490609849E+02  0.77726129852E+02  0.14360687759E+03  0.80547685802E+02 0.  0.
          5    1    5    5  501    0 -0.22842895250E+02  0.42210244167E+02  0.86016521924E+02  0.98612547984E+02  0.47000000000E+01 0. -1.
        -11    1    6    6    0    0 -0.70491222293E+01 -0.85148818514E+02  0.34700578029E+02  0.92217902459E+02  0.00000000000E+00 0.  1.
         12    1    6    6    0    0  0.28002583242E+02 -0.23417913355E+01  0.43025551823E+02  0.51388975127E+02  0.00000000000E+00 0. -1.
         -5    1    3    3    0  503  0.95216686068E+01  0.87521495661E+02 -0.12395414156E+03  0.15210980766E+03  0.47000000000E+01 0.  1.
         11    1    4    4    0    0 -0.28377352787E+02 -0.46845460693E+02 -0.31324016997E+02  0.63094891866E+02  0.00000000000E+00 0. -1.
        -12    1    4    4    0    0  0.20745118417E+02  0.46043307144E+01 -0.60666463139E+02  0.64280475646E+02  0.00000000000E+00 0.  1.
</event>
<event>
12    1  0.8052519E-002  0.1967764E+03  0.7818608E-02  0.1152981E+00
         21   -1    0    0  503  502  0.00000000000E+00  0.00000000000E+00  0.64539457073E+03  0.64539457073E+03  0.00000000000E+00 0.  1.
         21   -1    0    0  501  503 -0.00000000000E+00 -0.00000000000E+00 -0.69474173451E+02  0.69474173451E+02  0.00000000000E+00 0.  1.
          6    2    1    2  501    0 -0.87553725001E+02  0.22519105972E+02  0.14977910038E+03  0.24548900512E+03  0.17221587566E+03 0.  0.
         24    2    3    3    0    0 -0.10582347687E+03  0.40316424622E+02  0.59275464009E+02  0.15134270099E+03  0.81037091262E+02 0.  0.
         -6    2    1    2    0  502  0.87553725001E+02 -0.22519105972E+02  0.42614129690E+03  0.46937973906E+03  0.17478034678E+03 0.  0.
        -24    2    5    5    0    0  0.69875413576E+01  0.76577378399E+01  0.82963256214E+02  0.11555095355E+03  0.79759979316E+02 0.  0.
          5    1    3    3  501    0  0.18269751867E+02 -0.17797318650E+02  0.90503636369E+02  0.94146304125E+02  0.47000000000E+01 0. -1.
        -13    1    4    4    0    0 -0.11752745444E+03  0.25320543194E+02  0.50736275087E+02  0.13049138693E+03  0.00000000000E+00 0.  1.
         14    1    4    4    0    0  0.11703977568E+02  0.14995881428E+02  0.85391889222E+01  0.20851314063E+02  0.00000000000E+00 0. -1.
         -5    1    5    5    0  502  0.80566183643E+02 -0.30176843811E+02  0.34317804069E+03  0.35382878552E+03  0.47000000000E+01 0.  1.
         11    1    6    6    0    0  0.32148981205E+00 -0.35945683173E+02  0.42825415138E+02  0.55912535949E+02  0.00000000000E+00 0. -1.
        -12    1    6    6    0    0  0.66660515456E+01  0.43603421012E+02  0.40137841076E+02  0.59638417597E+02  0.00000000000E+00 0.  1.
</event>
<event>
12    1  0.8052519E-002  0.2109583E+03  0.7818608E-02  0.1141246E+00
         21   -1    0    0  503  502  0.00000000000E+00  0.00000000000E+00  0.18328448601E+03  0.18328448601E+03  0.00000000000E+00 0. -1.
         21   -1    0    0  501  503 -0.00000000000E+00 -0.00000000000E+00 -0.69749329486E+03  0.69749329486E+03  0.00000000000E+00 0.  1.
          6    2    1    2  501    0 -0.82581591902E+02  0.84765376289E+02 -0.61412349619E+03  0.64934663468E+03  0.17463818325E+03 0.  0.
         24    2    3    3    0    0 -0.76974747576E+02  0.22087043668E+02 -0.19266617532E+03  0.22319129515E+03  0.79253705645E+02 0.  0.
         -6    2    1    2    0  502  0.82581591902E+02 -0.84765376289E+02  0.99914687339E+02  0.23143114619E+03  0.17196668964E+03 0.  0.
        -24    2    5    5    0    0  0.10064179170E+03 -0.11459838572E+03  0.81056605453E+02  0.19150751258E+03  0.82724807886E+02 0.  0.
          5    1    3    3  501    0 -0.56068443260E+01  0.62678332620E+02 -0.42145732088E+03  0.42615533952E+03  0.47000000000E+01 0. -1.
        -11    1    4    4    0    0 -0.77473652786E+02  0.45102515713E+02 -0.15287883522E+03  0.17722398838E+03  0.00000000000E+00 0.  1.
         12    1    4    4    0    0  0.49890520947E+00 -0.23015472045E+02 -0.39787340097E+02  0.45967306772E+02  0.00000000000E+00 0. -1.
         -5    1    5    5    0  502 -0.18060199802E+02  0.29833009431E+02  0.18858081886E+02  0.39923633615E+02  0.47000000000E+01 0.  1.
         11    1    6    6    0    0  0.86378761684E+02 -0.80258628103E+02  0.95382393861E+02  0.15165928562E+03  0.00000000000E+00 0. -1.
        -12    1    6    6    0    0  0.14263030020E+02 -0.34339757617E+02 -0.14325788408E+02  0.39848226962E+02  0.00000000000E+00 0.  1.
</event>
<event>
12    1  0.8052519E-002  0.3362477E+03  0.7818608E-02  0.1068752E+00
         21   -1    0    0  503  502  0.00000000000E+00  0.00000000000E+00  0.17423492482E+04  0.17423492482E+04  0.00000000000E+00 0.  1.
         21   -1    0    0  501  503 -0.00000000000E+00 -0.00000000000E+00 -0.12338765211E+03  0.12338765211E+03  0.00000000000E+00 0.  1.
          6    2    1    2  501    0 -0.26747312990E+03  0.94997372199E+02  0.16179086513E+03  0.37027407990E+03  0.17424188437E+03 0.  0.
         24    2    3    3    0    0 -0.11669088482E+03  0.51604150053E+02  0.14979904404E+03  0.21284425131E+03  0.81136741469E+02 0.  0.
         -6    2    1    2    0  502  0.26747312990E+03 -0.94997372199E+02  0.14571707310E+04  0.14954628204E+04  0.18026683578E+03 0.  0.
        -24    2    5    5    0    0  0.28357208017E+03 -0.67905351656E+02  0.13598451359E+04  0.13930542503E+04  0.79981805383E+02 0.  0.
          5    1    3    3  501    0 -0.15078224507E+03  0.43393222146E+02  0.11991821081E+02  0.15742982859E+03  0.47000000000E+01 0. -1.
        -13    1    4    4    0    0 -0.10856978914E+03  0.41369715867E+02  0.15895547885E+03  0.19689006263E+03  0.00000000000E+00 0.  1.
         14    1    4    4    0    0 -0.81210956846E+01  0.10234434186E+02 -0.91564348064E+01  0.15954188685E+02  0.00000000000E+00 0. -1.
         -5    1    5    5    0  502 -0.16098950274E+02 -0.27092020544E+02  0.97325595085E+02  0.10240857013E+03  0.47000000000E+01 0.  1.
         11    1    6    6    0    0  0.73726169724E+02 -0.31601786298E+02  0.54353244731E+03  0.54941945932E+03  0.00000000000E+00 0. -1.
        -12    1    6    6    0    0  0.20984591045E+03 -0.36303565358E+02  0.81631268859E+03  0.84363479098E+03  0.00000000000E+00 0.  1.
</event>
<event>
12    1  0.8052519E-002  0.2030894E+03  0.7818608E-02  0.1148074E+00
         21   -1    0    0  501  502  0.00000000000E+00  0.00000000000E+00  0.15644134367E+03  0.15644134367E+03  0.00000000000E+00 0.  1.
         21   -1    0    0  502  503 -0.00000000000E+00 -0.00000000000E+00 -0.27775857309E+03  0.27775857309E+03  0.00000000000E+00 0. -1.
         -6    2    1    2    0  503  0.39133981624E+02  0.91813823741E+02 -0.11794928425E+03  0.23108263455E+03  0.17183103208E+03 0.  0.
        -24    2    3    3    0    0  0.14496352437E+02  0.42844352685E+02 -0.14337981311E+03  0.17047055930E+03  0.80353332158E+02 0.  0.
          6    2    1    2  501    0 -0.39133981624E+02 -0.91813823741E+02 -0.33679451750E+01  0.20311728221E+03  0.17687295025E+03 0.  0.
         24    2    5    5    0    0 -0.46852733734E+02  0.11672972761E+02  0.27711791261E+02  0.94686953421E+02  0.76591375636E+02 0.  0.
          5    1    5    5  501    0  0.77187521098E+01 -0.10348679650E+03 -0.31079736436E+02  0.10843032879E+03  0.47000000000E+01 0. -1.
        -11    1    6    6    0    0 -0.13825342916E+02  0.34478229916E+02  0.38117247785E+02  0.53224177059E+02  0.00000000000E+00 0.  1.
         12    1    6    6    0    0 -0.33027390818E+02 -0.22805257155E+02 -0.10405456524E+02  0.41462776362E+02  0.00000000000E+00 0. -1.
         -5    1    3    3    0  503  0.24637629187E+02  0.48969471056E+02  0.25430528864E+02  0.60612075247E+02  0.47000000000E+01 0.  1.
         11    1    4    4    0    0 -0.57274852396E+01 -0.21411352848E+02 -0.19785001382E+02  0.29710206961E+02  0.00000000000E+00 0. -1.
        -12    1    4    4    0    0  0.20223837677E+02  0.64255705534E+02 -0.12359481173E+03  0.14076035234E+03  0.00000000000E+00 0.  1.
</event>
<event>
12    1  0.8052519E-002  0.1829277E+03  0.7818608E-02  0.1165503E+00
         21   -1    0    0  501  502  0.00000000000E+00  0.00000000000E+00  0.10549976991E+04  0.10549976991E+04  0.00000000000E+00 0. -1.
         21   -1    0    0  502  503 -0.00000000000E+00 -0.00000000000E+00 -0.45893689027E+02  0.45893689027E+02  0.00000000000E+00 0. -1.
         -6    2    1    2    0  503  0.26306904621E+02 -0.50465856653E+02  0.19271228982E+03  0.26425646273E+03  0.17162341195E+03 0.  0.
        -24    2    3    3    0    0 -0.52638611156E+01 -0.81498448967E+02  0.15128115905E+03  0.20344228978E+03  0.10877991896E+03 0.  0.
          6    2    1    2  501    0 -0.26306904621E+02  0.50465856653E+02  0.81639172030E+03  0.83663492544E+03  0.17384965221E+03 0.  0.
         24    2    5    5    0    0 -0.78871577132E+02  0.31405232516E+02  0.66381738606E+03  0.67406995487E+03  0.80683131517E+02 0.  0.
          5    1    5    5  501    0  0.52564672511E+02  0.19060624137E+02  0.15257433424E+03  0.16256497057E+03  0.47000000000E+01 0. -1.
        -11    1    6    6    0    0 -0.54096357981E+01  0.64411799585E+01  0.37257407060E+03  0.37266901004E+03  0.00000000000E+00 0.  1.
         12    1    6    6    0    0 -0.73461941334E+02  0.24964052557E+02  0.29124331546E+03  0.30140094483E+03  0.00000000000E+00 0. -1.
         -5    1    3    3    0  503  0.31570765736E+02  0.31032592314E+02  0.41431130769E+02  0.60814172951E+02  0.47000000000E+01 0.  1.
         11    1    4    4    0    0  0.10702434725E+02  0.19435995258E+02  0.16543948936E+01  0.22249427929E+02  0.00000000000E+00 0. -1.
        -12    1    4    4    0    0 -0.15966295841E+02 -0.10093444423E+03  0.14962676416E+03  0.18119286185E+03  0.00000000000E+00 0.  1.
</event>
<event>
12    1  0.8052519E-002  0.1798855E+03  0.7818608E-02  0.1168835E+00
         21   -1    0    0  501  502  0.00000000000E+00  0.00000000000E+00  0.47265168229E+03  0.47265168229E+03  0.00000000000E+00 0.  1.
         21   -1    0    0  502  503 -0.00000000000E+00 -0.00000000000E+00 -0.14634593628E+03  0.14634593628E+03  0.00000000000E+00 0.  1.
         -6    2    1    2    0  503 -0.26165651182E+02  0.44241807456E+02 -0.63889953891E+02  0.19089457068E+03  0.17238570729E+03 0.  0.
        -24    2    3    3    0    0 -0.53285496719E+02 -0.16098728833E+02  0.17216333813E+02  0.86124411536E+02  0.63423173066E+02 0.  0.
          6    2    1    2  501    0  0.26165651182E+02 -0.44241807456E+02  0.39019569990E+03  0.42810304790E+03  0.16845639367E+03 0.  0.
         24    2    5    5    0    0 -0.13942427554E+02 -0.80175007493E+02  0.31798062022E+03  0.33789794506E+03  0.80255363229E+02 0.  0.
          5    1    5    5  501    0  0.40108078736E+02  0.35933200037E+02  0.72215079679E+02  0.90205102837E+02  0.47000000000E+01 0. -1.
        -11    1    6    6    0    0  0.27859664903E+02 -0.63870890491E+01  0.99889490666E+02  0.10389834542E+03  0.00000000000E+00 0.  1.
         12    1    6    6    0    0 -0.41802092457E+02 -0.73787918444E+02  0.21809112956E+03  0.23399959964E+03  0.00000000000E+00 0. -1.
         -5    1    3    3    0  503  0.27119845537E+02  0.60340536289E+02 -0.81106287704E+02  0.10477015914E+03  0.47000000000E+01 0.  1.
         13    1    4    4    0    0 -0.14676415360E+02 -0.16853705505E+02  0.36624946079E+02  0.42904909187E+02  0.00000000000E+00 0. -1.
        -14    1    4    4    0    0 -0.38609081359E+02  0.75497667221E+00 -0.19408612266E+02  0.43219502348E+02  0.00000000000E+00 0.  1.
</event>
<event>
12    1  0.8052519E-002  0.2029208E+03  0.7818608E-02  0.1147650E+00
         21   -1    0    0  501  502  0.00000000000E+00  0.00000000000E+00  0.11150293277E+04  0.11150293277E+04  0.00000000000E+00 0.  1.
         21   -1    0    0  502  503 -0.00000000000E+00 -0.00000000000E+00 -0.50233746481E+02  0.50233746481E+02  0.00000000000E+00 0. -1.
         -6    2    1    2    0  503  0.82423900221E+02  0.66756657159E+02  0.22748369657E+03  0.30371328203E+03  0.17100518961E+03 0.  0.
        -24    2    3    3    0    0  0.22988063447E+02 -0.16184676005E+02  0.46177226874E+02  0.95612322415E+02  0.78860542209E+02 0.  0.
          6    2    1    2  501    0 -0.82423900221E+02 -0.66756657159E+02  0.83731188463E+03  0.86154979213E+03  0.17299335702E+03 0.  0.
         24    2    5    5    0    0 -0.15126940660E+02  0.22906874542E+02  0.47013968942E+03  0.47761497915E+03  0.79568784732E+02 0.  0.
          5    1    5    5  501    0 -0.67296959562E+02 -0.89663531701E+02  0.36717219521E+03  0.38393481298E+03  0.47000000000E+01 0. -1.
        -11    1    6    6    0    0 -0.40027853602E+02  0.30244679531E+02  0.39378461758E+03  0.39696762431E+03  0.00000000000E+00 0.  1.
         12    1    6    6    0    0  0.24900912943E+02 -0.73378049892E+01  0.76355071838E+02  0.80647354841E+02  0.00000000000E+00 0. -1.
         -5    1    3    3    0  503  0.59435836774E+02  0.82941333165E+02  0.18130646969E+03  0.20810095961E+03  0.47000000000E+01 0.  1.
         13    1    4    4    0    0 -0.24382615597E+02  0.31395972211E+01 -0.28551946515E+01  0.24749164643E+02  0.00000000000E+00 0. -1.
        -14    1    4    4    0    0  0.47370679044E+02 -0.19324273226E+02  0.49032421525E+02  0.70863157772E+02  0.00000000000E+00 0.  1.
</event>
<event>
12    1  0.8052519E-002  0.2407300E+03  0.7818608E-02  0.1119428E+00
         21   -1    0    0  503  502  0.00000000000E+00  0.00000000000E+00  0.50514141331E+03  0.50514141331E+03  0.00000000000E+00 0. -1.
         21   -1    0    0  501  503 -0.00000000000E+00 -0.00000000000E+00 -0.14702271981E+03  0.14702271981E+03  0.00000000000E+00 0.  1.
          6    2    1    2  501    0 -0.47379587917E+02  0.16194596473E+03  0.25193563675E+02  0.24132345566E+03  0.17067798264E+03 0.  0.
         24    2    3    3    0    0  0.38205456994E+01  0.51439598720E+02  0.62942189837E+02  0.11372972780E+03  0.79448743467E+02 0.  0.
         -6    2    1    2    0  502  0.47379587917E+02 -0.16194596473E+03  0.33292512982E+03  0.41084067746E+03  0.17169624149E+03 0.  0.
        -24    2    5    5    0    0  0.25607683259E+02 -0.87972698612E+01  0.11907552466E+03  0.14686665942E+03  0.81594666955E+02 0.  0.
          5    1    3    3  501    0 -0.51200133617E+02  0.11050636602E+03 -0.37748626162E+02  0.12759372786E+03  0.47000000000E+01 0. -1.
        -13    1    4    4    0    0  0.20455496699E+01  0.59617311304E+02  0.10432932016E+02  0.60557857880E+02  0.00000000000E+00 0.  1.
         14    1    4    4    0    0  0.17749960296E+01 -0.81777125847E+01  0.52509257821E+02  0.53171869921E+02  0.00000000000E+00 0. -1.
         -5    1    5    5    0  502  0.21771904658E+02 -0.15314869487E+03  0.21384960516E+03  0.26397401804E+03  0.47000000000E+01 0.  1.
         11    1    6    6    0    0  0.18318553908E+02 -0.42310279208E+02  0.41435521873E+02  0.61988963669E+02  0.00000000000E+00 0. -1.
        -12    1    6    6    0    0  0.72891293513E+01  0.33513009346E+02  0.77640002791E+02  0.84877695748E+02  0.00000000000E+00 0.  1.
</event>
<event>
12    1  0.8052519E-002  0.2212383E+03  0.7818608E-02  0.1133296E+00
         21   -1    0    0  501  502  0.00000000000E+00  0.00000000000E+00  0.16176638618E+04  0.16176638618E+04  0.00000000000E+00 0. -1.
         21   -1    0    0  502  503 -0.00000000000E+00 -0.00000000000E+00 -0.30959672157E+02  0.30959672157E+02  0.00000000000E+00 0.  1.
         -6    2    1    2    0  503 -0.85481454133E+02 -0.10668790254E+03  0.64606490006E+03  0.68231683357E+03  0.17165960136E+03 0.  0.
        -24    2    3    3    0    0 -0.24468457988E+02 -0.95161674983E+02  0.24109491428E+03  0.27258738748E+03  0.80763087456E+02 0.  0.
          6    2    1    2  501    0  0.85481454133E+02  0.10668790254E+03  0.94063928956E+03  0.96630670036E+03  0.17394533206E+03 0.  0.
         24    2    5    5    0    0  0.84003048329E+02  0.61506825147E+02  0.88391754988E+03  0.89362271870E+03  0.80073258441E+02 0.  0.
          5    1    5    5  501    0  0.14784058042E+01  0.45181077393E+02  0.56721739683E+02  0.72683981666E+02  0.47000000000E+01 0. -1.
        -11    1    6    6    0    0  0.30778884202E+02  0.13687705913E+02  0.83866247386E+02  0.90378318509E+02  0.00000000000E+00 0.  1.
         12    1    6    6    0    0  0.53224164127E+02  0.47819119233E+02  0.80005130249E+03  0.80324440019E+03  0.00000000000E+00 0. -1.
         -5    1    3    3    0  503 -0.61012996145E+02 -0.11526227557E+02  0.40496998577E+03  0.40972944610E+03  0.47000000000E+01 0.  1.
         13    1    4    4    0    0 -0.15237016554E+02 -0.32950483118E+02  0.18431457944E+03  0.18785570314E+03  0.00000000000E+00 0. -1.
        -14    1    4    4    0    0 -0.92314414342E+01 -0.62211191865E+02  0.56780334847E+02  0.84731684331E+02  0.00000000000E+00 0.  1.
</event>
<event>
12    1  0.8052519E-002  0.2553156E+03  0.7818608E-02  0.1110022E+00
         21   -1    0    0  501  502  0.00000000000E+00  0.00000000000E+00  0.50043995288E+03  0.50043995288E+03  0.00000000000E+00 0.  1.
         21   -1    0    0  502  503 -0.00000000000E+00 -0.00000000000E+00 -0.19619846792E+03  0.19619846792E+03  0.00000000000E+00 0. -1.
         -6    2    1    2    0  503  0.65992046254E+02 -0.17618064598E+03 -0.49931495961E+02  0.26015232398E+03  0.17260216452E+03 0.  0.
        -24    2    3    3    0    0  0.18723766623E+02 -0.16841532934E+03 -0.78893393654E+02  0.20397873659E+03  0.81663056680E+02 0.  0.
          6    2    1    2  501    0 -0.65992046254E+02  0.17618064598E+03  0.35417298092E+03  0.43648609681E+03  0.17229928064E+03 0.  0.
         24    2    5    5    0    0 -0.36904357306E+02  0.17952653425E+03  0.34941583680E+03  0.40645263153E+03  0.97573595732E+02 0.  0.
          5    1    5    5  501    0 -0.29087688949E+02 -0.33458882700E+01  0.47571441254E+01  0.30033465283E+02  0.47000000000E+01 0. -1.
        -11    1    6    6    0    0  0.21870185711E+02  0.58714411317E+02  0.57228504535E+02  0.84857461962E+02  0.00000000000E+00 0.  1.
         12    1    6    6    0    0 -0.58774543016E+02  0.12081212294E+03  0.29218733226E+03  0.32159516957E+03  0.00000000000E+00 0. -1.
         -5    1    3    3    0  503  0.47268279632E+02 -0.77653166418E+01  0.28961897693E+02  0.56173587387E+02  0.47000000000E+01 0.  1.
         13    1    4    4    0    0  0.35084448049E+02 -0.44882811458E+02 -0.50600880271E+02  0.76196025772E+02  0.00000000000E+00 0. -1.
        -14    1    4    4    0    0 -0.16360681426E+02 -0.12353251788E+03 -0.28292513383E+02  0.12778271082E+03  0.00000000000E+00 0.  1.
</event>
<event>
12    1  0.8052519E-002  0.1914085E+03  0.7818608E-02  0.1157210E+00
         21   -1    0    0  503  502  0.00000000000E+00  0.00000000000E+00  0.12052915136E+04  0.12052915136E+04  0.00000000000E+00 0. -1.
         21   -1    0    0  501  503 -0.00000000000E+00 -0.00000000000E+00 -0.34228764008E+02  0.34228764008E+02  0.00000000000E+00 0. -1.
          6    2    1    2  501    0  0.82556347215E+02  0.60800866076E+01  0.37783594156E+03  0.42352641178E+03  0.17251696966E+03 0.  0.
         24    2    3    3    0    0  0.16085552331E+02 -0.54288027968E+02  0.23988493854E+03  0.25885933837E+03  0.79103971773E+02 0.  0.
         -6    2    1    2    0  502 -0.82556347215E+02 -0.60800866076E+01  0.79322680804E+03  0.81599386583E+03  0.17258245035E+03 0.  0.
        -24    2    5    5    0    0 -0.91310898011E+02 -0.60576791076E+02  0.58410194531E+03  0.59965655706E+03  0.80035468356E+02 0.  0.
          5    1    3    3  501    0  0.66470794884E+02  0.60368114575E+02  0.13795100302E+03  0.16466707341E+03  0.47000000000E+01 0. -1.
        -13    1    4    4    0    0  0.10150343141E+02  0.18827330385E+02  0.82353460502E+02  0.85085781961E+02  0.00000000000E+00 0.  1.
         14    1    4    4    0    0  0.59352091897E+01 -0.73115358353E+02  0.15753147803E+03  0.17377355641E+03  0.00000000000E+00 0. -1.
         -5    1    5    5    0  502  0.87545507959E+01  0.54496704468E+02  0.20912486273E+03  0.21633730878E+03  0.47000000000E+01 0.  1.
         13    1    6    6    0    0 -0.99198049828E+02 -0.30542196496E+02  0.41938116657E+03  0.43203430619E+03  0.00000000000E+00 0. -1.
        -14    1    6    6    0    0  0.78871518171E+01 -0.30034594579E+02  0.16472077874E+03  0.16762225086E+03  0.00000000000E+00 0.  1.
</event>
<event>
12    1  0.8052519E-002  0.2199057E+03  0.7818608E-02  0.1134424E+00
         21   -1    0    0  503  502  0.00000000000E+00  0.00000000000E+00  0.53121154952E+02  0.53121154952E+02  0.00000000000E+00 0.  1.
         21   -1    0    0  501  503 -0.00000000000E+00 -0.00000000000E+00 -0.10295083765E+04  0.10295083765E+04  0.00000000000E+00 0.  1.
          6    2    1    2  501    0 -0.12564758962E+03  0.42845325262E+02 -0.68263656375E+03  0.71718281042E+03  0.17531533507E+03 0.  0.
         24    2    3    3    0    0 -0.13773020359E+03  0.64931033382E+02 -0.66262607532E+03  0.68468238409E+03  0.80814623191E+02 0.  0.
         -6    2    1    2    0  502  0.12564758962E+03 -0.42845325262E+02 -0.29375065780E+03  0.36544672104E+03  0.17215928174E+03 0.  0.
        -24    2    5    5    0    0  0.14549506474E+02 -0.49316332110E+02 -0.76549155950E+02  0.12134993611E+03  0.78881207940E+02 0.  0.
          5    1    3    3  501    0  0.12082613975E+02 -0.22085708120E+02 -0.20010488438E+02  0.32500426323E+02  0.47000000000E+01 0. -1.
        -11    1    4    4    0    0 -0.86955171299E+02  0.12521494426E+02 -0.23519392029E+03  0.25106606656E+03  0.00000000000E+00 0.  1.
         12    1    4    4    0    0 -0.50775032293E+02  0.52409538956E+02 -0.42743215503E+03  0.43361631753E+03  0.00000000000E+00 0. -1.
         -5    1    5    5    0  502  0.11109808314E+03  0.64710068478E+01 -0.21720150185E+03  0.24409678493E+03  0.47000000000E+01 0.  1.
         11    1    6    6    0    0 -0.15800022310E+01 -0.18281656849E+02 -0.83668305446E+02  0.85656877834E+02  0.00000000000E+00 0. -1.
        -12    1    6    6    0    0  0.16129508705E+02 -0.31034675261E+02  0.71191494953E+01  0.35693058276E+02  0.00000000000E+00 0.  1.
</event>
<event>
12    1  0.8052519E-002  0.1750403E+03  0.7818608E-02  0.1173293E+00
         21   -1    0    0  503  502  0.00000000000E+00  0.00000000000E+00  0.30302285078E+03  0.30302285078E+03  0.00000000000E+00 0.  1.
         21   -1    0    0  501  503 -0.00000000000E+00 -0.00000000000E+00 -0.96899948276E+03  0.96899948276E+03  0.00000000000E+00 0.  1.
          6    2    1    2  501    0 -0.12680508532E+02 -0.12905385555E+02 -0.93514189709E+03  0.95094749076E+03  0.17170736219E+03 0.  0.
         24    2    3    3    0    0 -0.51504410086E+02  0.35096659770E+02 -0.72106344464E+03  0.72809515066E+03  0.79407666091E+02 0.  0.
         -6    2    1    2    0  502  0.12680508532E+02  0.12905385555E+02  0.26916526511E+03  0.32107484278E+03  0.17410275832E+03 0.  0.
        -24    2    5    5    0    0 -0.14167898626E+02 -0.47062142356E+02  0.89435033828E+02  0.12965387369E+03  0.79974540280E+02 0.  0.
          5    1    3    3  501    0  0.38823901554E+02 -0.48002045325E+02 -0.21407845244E+03  0.22285234010E+03  0.47000000000E+01 0. -1.
        -13    1    4    4    0    0  0.16997326745E+02  0.45721563030E+01 -0.53242914422E+02  0.56076926323E+02  0.00000000000E+00 0.  1.
         14    1    4    4    0    0 -0.68501736830E+02  0.30524503467E+02 -0.66782053022E+03  0.67201822434E+03  0.00000000000E+00 0. -1.
         -5    1    5    5    0  502  0.26848407158E+02  0.59967527911E+02  0.17973023128E+03  0.19142096909E+03  0.47000000000E+01 0.  1.
         11    1    6    6    0    0  0.53774035960E+01  0.18422396525E+02  0.29331233440E+01  0.19414025232E+02  0.00000000000E+00 0. -1.
        -12    1    6    6    0    0 -0.19545302222E+02 -0.65484538880E+02  0.86501910484E+02  0.11023984846E+03  0.00000000000E+00 0.  1.
</event>
<event>
12    1  0.8052519E-002  0.2080116E+03  0.7818608E-02  0.1144484E+00
         21   -1    0    0  501  502  0.00000000000E+00  0.00000000000E+00  0.99122851938E+03  0.99122851938E+03  0.00000000000E+00 0. -1.
         21   -1    0    0  502  503 -0.00000000000E+00 -0.00000000000E+00 -0.12074518182E+03  0.12074518182E+03  0.00000000000E+00 0. -1.
         -6    2    1    2    0  503 -0.11404032966E+03 -0.11099531083E+02 -0.10471134364E+02  0.20827503136E+03  0.17361004479E+03 0.  0.
        -24    2    3    3    0    0 -0.16414395996E+02 -0.56215422439E+02 -0.15957445015E+02  0.10048608860E+03  0.80082506417E+02 0.  0.
          6    2    1    2  501    0  0.11404032966E+03  0.11099531083E+02  0.88095447192E+03  0.90369866985E+03  0.16571695118E+03 0.  0.
         24    2    5    5    0    0  0.91171793670E+02 -0.12612875922E+02  0.84841737591E+03  0.85715835613E+03  0.80231060910E+02 0.  0.
          5    1    5    5  501    0  0.22868535991E+02  0.23712407005E+02  0.32537096010E+02  0.46540313720E+02  0.47000000000E+01 0. -1.
        -11    1    6    6    0    0  0.18924340316E+02  0.28423938798E+02  0.37066572561E+03  0.37223531683E+03  0.00000000000E+00 0.  1.
         12    1    6    6    0    0  0.72247453354E+02 -0.41036814720E+02  0.47775165030E+03  0.48492303930E+03  0.00000000000E+00 0. -1.
         -5    1    3    3    0  503 -0.97625933665E+02  0.45115891356E+02  0.54863106516E+01  0.10778894276E+03  0.47000000000E+01 0.  1.
         13    1    4    4    0    0 -0.43592225374E+02 -0.88638033404E+01 -0.97233984532E+01  0.45534531953E+02  0.00000000000E+00 0. -1.
        -14    1    4    4    0    0  0.27177829378E+02 -0.47351619098E+02 -0.62340465622E+01  0.54951556643E+02  0.00000000000E+00 0.  1.
</event>
<event>
12    1  0.8052519E-002  0.2420477E+03  0.7818608E-02  0.1119711E+00
         21   -1    0    0  503  502  0.00000000000E+00  0.00000000000E+00  0.84656745379E+02  0.84656745379E+02  0.00000000000E+00 0. -1.
         21   -1    0    0  501  503 -0.00000000000E+00 -0.00000000000E+00 -0.68187324035E+03  0.68187324035E+03  0.00000000000E+00 0.  1.
          6    2    1    2  501    0 -0.34193319890E+02 -0.16655076505E+03 -0.34346891690E+03  0.41585219240E+03  0.16141192206E+03 0.  0.
         24    2    3    3    0    0 -0.47138858432E+02 -0.18611461839E+03 -0.30583914790E+03  0.37126047970E+03  0.86232454736E+02 0.  0.
         -6    2    1    2    0  502  0.34193319890E+02  0.16655076505E+03 -0.25374757807E+03  0.35067779333E+03  0.17227518943E+03 0.  0.
        -24    2    5    5    0    0  0.73149825519E+02  0.10631013114E+03 -0.10242260439E+03  0.18314307763E+03  0.79989099491E+02 0.  0.
          5    1    3    3  501    0  0.12945538542E+02  0.19563853346E+02 -0.37629769006E+02  0.44591712698E+02  0.47000000000E+01 0. -1.
        -13    1    4    4    0    0 -0.24599398954E+02 -0.69780868848E+02 -0.19672220133E+03  0.21017641301E+03  0.00000000000E+00 0.  1.
         14    1    4    4    0    0 -0.22539459477E+02 -0.11633374955E+03 -0.10911694656E+03  0.16108406670E+03  0.00000000000E+00 0. -1.
         -5    1    5    5    0  502 -0.38956505629E+02  0.60240633908E+02 -0.15132497368E+03  0.16753471570E+03  0.47000000000E+01 0.  1.
         11    1    6    6    0    0  0.43902342682E+02  0.24580584152E+02 -0.19325411954E+01  0.50352314006E+02  0.00000000000E+00 0. -1.
        -12    1    6    6    0    0  0.29247482837E+02  0.81729546989E+02 -0.10049006319E+03  0.13279076362E+03  0.00000000000E+00 0.  1.
</event>
<event>
12    1  0.8052519E-002  0.1999106E+03  0.7818608E-02  0.1150611E+00
         21   -1    0    0  501  502  0.00000000000E+00  0.00000000000E+00  0.57290350959E+02  0.57290350959E+02  0.00000000000E+00 0.  1.
         21   -1    0    0  502  503 -0.00000000000E+00 -0.00000000000E+00 -0.99274333686E+03  0.99274333686E+03  0.00000000000E+00 0.  1.
         -6    2    1    2    0  503 -0.96316572727E+02  0.32700532598E+02 -0.76326480994E+03  0.78901040010E+03  0.17209890863E+03 0.  0.
        -24    2    3    3    0    0 -0.67797661965E+02 -0.28758967860E+02 -0.26067031768E+03  0.28184779095E+03  0.77881715073E+02 0.  0.
          6    2    1    2  501    0  0.96316572727E+02 -0.32700532598E+02 -0.17218817596E+03  0.26102328772E+03  0.16774439418E+03 0.  0.
         24    2    5    5    0    0  0.12342502966E+03 -0.41292661752E+01 -0.10061638422E+03  0.17919543748E+03  0.82076545086E+02 0.  0.
          5    1    5    5  501    0 -0.27108456937E+02 -0.28571266423E+02 -0.71571791733E+02  0.81827850237E+02  0.47000000000E+01 0. -1.
        -13    1    6    6    0    0  0.58834337539E+02 -0.11285061462E+02 -0.97126811754E+02  0.11411594738E+03  0.00000000000E+00 0.  1.
         14    1    6    6    0    0  0.64590692125E+02  0.71557952871E+01 -0.34895724706E+01  0.65079490098E+02  0.00000000000E+00 0. -1.
         -5    1    3    3    0  503 -0.28518910762E+02  0.61459500458E+02 -0.50259449226E+03  0.50716260915E+03  0.47000000000E+01 0.  1.
         11    1    4    4    0    0  0.24866134913E+01 -0.36323683374E+02 -0.94113130888E+02  0.10091023053E+03  0.00000000000E+00 0. -1.
        -12    1    4    4    0    0 -0.70284275456E+02  0.75647155144E+01 -0.16655718679E+03  0.18093756042E+03  0.00000000000E+00 0.  1.
</event>
<event>
12    1  0.8052519E-002  0.1726133E+03  0.7818608E-02  0.1175152E+00
         21   -1    0    0  501  502  0.00000000000E+00  0.00000000000E+00  0.99834477612E+03  0.99834477612E+03  0.00000000000E+00 0.  1.
         21   -1    0    0  502  503 -0.00000000000E+00 -0.00000000000E+00 -0.31425897763E+02  0.31425897763E+02  0.00000000000E+00 0.  1.
         -6    2    1    2    0  503  0.95805715988E+01  0.31529818082E+01  0.36788656501E+03  0.40636465215E+03  0.17230779773E+03 0.  0.
        -24    2    3    3    0    0 -0.72112116507E+01 -0.15967461340E+02  0.71551097458E+02  0.10890145332E+03  0.80206019677E+02 0.  0.
          6    2    1    2  501    0 -0.95805715988E+01 -0.31529818082E+01  0.59903231335E+03  0.62340602173E+03  0.17231838802E+03 0.  0.
         24    2    5    5    0    0  0.50988252229E+02  0.24397545179E+02  0.27139945531E+03  0.28905142909E+03  0.81841445723E+02 0.  0.
          5    1    5    5  501    0 -0.60568823827E+02 -0.27550526987E+02  0.32763285804E+03  0.33435459264E+03  0.47000000000E+01 0. -1.
        -11    1    6    6    0    0 -0.13979016876E+02 -0.11901597807E+02  0.21329148327E+02  0.28142379280E+02  0.00000000000E+00 0.  1.
         12    1    6    6    0    0  0.64967269104E+02  0.36299142986E+02  0.25007030698E+03  0.26090904981E+03  0.00000000000E+00 0. -1.
         -5    1    3    3    0  503  0.16791783249E+02  0.19120443149E+02  0.29633546755E+03  0.29746319883E+03  0.47000000000E+01 0.  1.
         13    1    4    4    0    0 -0.37498254898E+02 -0.17417907927E+02  0.66289132841E+02  0.78126511311E+02  0.00000000000E+00 0. -1.
        -14    1    4    4    0    0  0.30287043247E+02  0.14504465866E+01  0.52619646170E+01  0.30774942008E+02  0.00000000000E+00 0.  1.
</event>
<event>
12    1  0.8052519E-002  0.2128658E+03  0.7818608E-02  0.1139377E+00
         21   -1    0    0  503  502  0.00000000000E+00  0.00000000000E+00  0.24488295947E+03  0.24488295947E+03  0.00000000000E+00 0. -1.
         21   -1    0    0  501  503 -0.00000000000E+00 -0.00000000000E+00 -0.24631314170E+03  0.24631314170E+03  0.00000000000E+00 0. -1.
          6    2    1    2  501    0  0.70427776139E+02  0.10376204779E+03 -0.12348710865E+03  0.24609129561E+03  0.17200356264E+03 0.  0.
         24    2    3    3    0    0 -0.43366386695E+01  0.78237602816E+01 -0.18369127883E+02  0.85262962870E+02  0.82778803557E+02 0.  0.
         -6    2    1    2    0  502 -0.70427776139E+02 -0.10376204779E+03  0.12205692642E+03  0.24510480556E+03  0.17161537871E+03 0.  0.
        -24    2    5    5    0    0 -0.93854344509E+02 -0.83799920709E+02  0.14358333154E+03  0.20725290018E+03  0.80663045088E+02 0.  0.
          5    1    3    3  501    0  0.74764414808E+02  0.95938287509E+02 -0.10511798077E+03  0.16082833274E+03  0.47000000000E+01 0. -1.
        -11    1    4    4    0    0 -0.33076008315E+02 -0.17564528911E+02 -0.26734529628E+02  0.46013803107E+02  0.00000000000E+00 0.  1.
         12    1    4    4    0    0  0.28739369646E+02  0.25388289192E+02  0.83654017444E+01  0.39249159763E+02  0.00000000000E+00 0. -1.
         -5    1    5    5    0  502  0.23426568370E+02 -0.19962127082E+02 -0.21526405126E+02  0.37851905380E+02  0.47000000000E+01 0.  1.
         13    1    6    6    0    0 -0.42732441887E+02 -0.63258850681E+01  0.95894104447E+01  0.44249691571E+02  0.00000000000E+00 0. -1.
        -14    1    6    6    0    0 -0.51121902623E+02 -0.77474035641E+02  0.13399392110E+03  0.16300320861E+03  0.00000000000E+00 0.  1.
</event>
<event>
12    1  0.8052519E-002  0.2218529E+03  0.7818608E-02  0.1132854E+00
         21   -1    0    0  501  502  0.00000000000E+00  0.00000000000E+00  0.84894202301E+02  0.84894202301E+02  0.00000000000E+00 0.  1.
         21   -1    0    0  502  503 -0.00000000000E+00 -0.00000000000E+00 -0.69070176000E+03  0.69070176000E+03  0.00000000000E+00 0. -1.
         -6    2    1    2    0  503 -0.46272644756E+02 -0.13239710040E+03 -0.46275253837E+03  0.51318480184E+03  0.17189700180E+03 0.  0.
        -24    2    3    3    0    0 -0.52848308555E+02 -0.10125114149E+03 -0.45979396539E+03  0.48087144136E+03  0.82353598220E+02 0.  0.
          6    2    1    2  501    0  0.46272644756E+02  0.13239710040E+03 -0.14305501933E+03  0.26241116046E+03  0.16948371228E+03 0.  0.
         24    2    5    5    0    0  0.16726583215E+02  0.48310815262E+02 -0.14349180696E+03  0.17316008828E+03  0.82345637708E+02 0.  0.
          5    1    5    5  501    0  0.29546061541E+02  0.84086285142E+02  0.43678763532E+00  0.89251072178E+02  0.47000000000E+01 0. -1.
        -13    1    6    6    0    0 -0.32379361888E+02  0.97960144112E+01 -0.40898791388E+02  0.53076323456E+02  0.00000000000E+00 0.  1.
         14    1    6    6    0    0  0.49105945103E+02  0.38514800850E+02 -0.10259301558E+03  0.12008376482E+03  0.00000000000E+00 0. -1.
         -5    1    3    3    0  503  0.65756637985E+01 -0.31145958917E+02 -0.29585729752E+01  0.32313360476E+02  0.47000000000E+01 0.  1.
         13    1    4    4    0    0 -0.55757372937E+02 -0.20982163610E+02 -0.22325865018E+03  0.23107046698E+03  0.00000000000E+00 0. -1.
        -14    1    4    4    0    0  0.29090643826E+01 -0.80268977876E+02 -0.23653531521E+03  0.24980097439E+03  0.00000000000E+00 0.  1.
</event>
<event>
12    1  0.8052519E-002  0.2928018E+03  0.7818608E-02  0.1089226E+00
         21   -1    0    0  501  502  0.00000000000E+00  0.00000000000E+00  0.15884444525E+04  0.15884444525E+04  0.00000000000E+00 0.  1.
         21   -1    0    0  502  503 -0.00000000000E+00 -0.00000000000E+00 -0.59375024021E+02  0.59375024021E+02  0.00000000000E+00 0.  1.
         -6    2    1    2    0  503 -0.19411889099E+03 -0.13522383768E+03  0.50845822499E+03  0.58673901446E+03  0.17252615572E+03 0.  0.
        -24    2    3    3    0    0 -0.72715490764E+02 -0.16080143303E+01  0.19402035116E+03  0.22413007863E+03  0.85441600983E+02 0.  0.
          6    2    1    2  501    0  0.19411889099E+03  0.13522383768E+03  0.10206112035E+04  0.10610804621E+04  0.16815733161E+03 0.  0.
         24    2    5    5    0    0  0.81402886170E+02  0.21815450445E+02  0.59591656615E+03  0.60725892774E+03  0.80898131915E+02 0.  0.
          5    1    5    5  501    0  0.11271600482E+03  0.11340838724E+03  0.42469463737E+03  0.45382153436E+03  0.47000000000E+01 0. -1.
        -11    1    6    6    0    0  0.75718276756E+02  0.41112737452E+02  0.55517900273E+03  0.56182491907E+03  0.00000000000E+00 0.  1.
         12    1    6    6    0    0  0.56846094136E+01 -0.19297287007E+02  0.40737563425E+02  0.45434008670E+02  0.00000000000E+00 0. -1.
         -5    1    3    3    0  503 -0.12140340023E+03 -0.13361582335E+03  0.31443787384E+03  0.36260893582E+03  0.47000000000E+01 0.  1.
         11    1    4    4    0    0 -0.15497386872E+02  0.69026645458E+01 -0.43361527209E+01  0.17510511075E+02  0.00000000000E+00 0. -1.
        -12    1    4    4    0    0 -0.57218103892E+02 -0.85106788761E+01  0.19835650388E+03  0.20661956756E+03  0.00000000000E+00 0.  1.
</event>
<event>
12    1  0.8052519E-002  0.2092853E+03  0.7818608E-02  0.1142274E+00
         21   -1    0    0  501  502  0.00000000000E+00  0.00000000000E+00  0.10591293586E+03  0.10591293586E+03  0.00000000000E+00 0. -1.
         21   -1    0    0  502  503 -0.00000000000E+00 -0.00000000000E+00 -0.41733308043E+03  0.41733308043E+03  0.00000000000E+00 0.  1.
         -6    2    1    2    0  503 -0.48360124951E+02 -0.10169750456E+03 -0.18511542989E+03  0.27940661132E+03  0.17640648499E+03 0.  0.
        -24    2    3    3    0    0  0.13437676253E+02 -0.71172531414E+02 -0.31450450625E+02  0.11092587630E+03  0.77905833015E+02 0.  0.
          6    2    1    2  501    0  0.48360124951E+02  0.10169750456E+03 -0.12630471468E+03  0.24383940497E+03  0.17556676892E+03 0.  0.
         24    2    5    5    0    0 -0.63727533468E+01  0.65125629409E+02 -0.14238730279E+03  0.17591349196E+03  0.79934054474E+02 0.  0.
          5    1    5    5  501    0  0.54732878298E+02  0.36571875149E+02  0.16082588118E+02  0.67925913017E+02  0.47000000000E+01 0. -1.
        -13    1    6    6    0    0 -0.18431490040E+02  0.66846899490E+02 -0.57283445794E+02  0.89942320175E+02  0.00000000000E+00 0.  1.
         14    1    6    6    0    0  0.12058736693E+02 -0.17212700808E+01 -0.85103856999E+02  0.85971171782E+02  0.00000000000E+00 0. -1.
         -5    1    3    3    0  503 -0.61797801204E+02 -0.30524973144E+02 -0.15366497926E+03  0.16848073501E+03  0.47000000000E+01 0.  1.
         13    1    4    4    0    0 -0.47365149036E+00  0.14017907521E+02  0.78591303797E+01  0.16077686628E+02  0.00000000000E+00 0. -1.
        -14    1    4    4    0    0  0.13911327743E+02 -0.85190438934E+02 -0.39309581005E+02  0.94848189673E+02  0.00000000000E+00 0.  1.
</event>
<event>
12    1  0.8052519E-002  0.1879074E+03  0.7818608E-02  0.1160396E+00
         21   -1    0    0  501  502  0.00000000000E+00  0.00000000000E+00  0.14390222843E+04  0.14390222843E+04  0.00000000000E+00 0. -1.
         21   -1    0    0  502  503 -0.00000000000E+00 -0.00000000000E+00 -0.36774217633E+02  0.36774217633E+02  0.00000000000E+00 0. -1.
         -6    2    1    2    0  503 -0.68674043225E+02 -0.32076062550E+02  0.27494860853E+03  0.33294338480E+03  0.17178347461E+03 0.  0.
        -24    2    3    3    0    0 -0.19031828333E+02 -0.37270614529E+02  0.45179388255E+02  0.97768306495E+02  0.75935205503E+02 0.  0.
          6    2    1    2  501    0  0.68674043225E+02  0.32076062550E+02  0.11272994581E+04  0.11428531171E+04  0.17194237705E+03 0.  0.
         24    2    5    5    0    0  0.10505700222E+03  0.36307389390E+02  0.66089375958E+03  0.67498776312E+03  0.80453208019E+02 0.  0.
          5    1    5    5  501    0 -0.36382958999E+02 -0.42313268409E+01  0.46640569856E+03  0.46786535401E+03  0.47000000000E+01 0. -1.
        -11    1    6    6    0    0  0.22732323982E+02 -0.25560210927E+02  0.17075999672E+03  0.17415240284E+03  0.00000000000E+00 0.  1.
         12    1    6    6    0    0  0.82324678241E+02  0.61867600317E+02  0.49013376286E+03  0.50083536029E+03  0.00000000000E+00 0. -1.
         -5    1    3    3    0  503 -0.49642214892E+02  0.51945519794E+01  0.22976922028E+03  0.23517507831E+03  0.47000000000E+01 0.  1.
         11    1    4    4    0    0 -0.78716461022E+01 -0.51341554572E+02  0.56335124854E+02  0.76626133470E+02  0.00000000000E+00 0. -1.
        -12    1    4    4    0    0 -0.11160182230E+02  0.14070940043E+02 -0.11155736600E+02  0.21142173024E+02  0.00000000000E+00 0.  1.
</event>
<event>
12    1  0.8052519E-002  0.2096681E+03  0.7818608E-02  0.1141895E+00
         21   -1    0    0  501  502  0.00000000000E+00  0.00000000000E+00  0.10914036812E+04  0.10914036812E+04  0.00000000000E+00 0.  1.
         21   -1    0    0  502  503 -0.00000000000E+00 -0.00000000000E+00 -0.17957686567E+03  0.17957686567E+03  0.00000000000E+00 0. -1.
         -6    2    1    2    0  503 -0.89376134020E+02 -0.82535348097E+02 -0.10399757754E+03  0.23374386846E+03  0.17035411029E+03 0.  0.
        -24    2    3    3    0    0 -0.21921646932E+02  0.19918577614E+02 -0.29030090491E+02  0.89906707630E+02  0.79769427631E+02 0.  0.
          6    2    1    2  501    0  0.89376134020E+02  0.82535348097E+02  0.10158243931E+04  0.10372366784E+04  0.17076461129E+03 0.  0.
         24    2    5    5    0    0 -0.13964669578E+02  0.28837544368E+02  0.56292134441E+03  0.56957650553E+03  0.80686676093E+02 0.  0.
          5    1    5    5  501    0  0.10334080360E+03  0.53697803729E+02  0.45290304866E+03  0.46766017288E+03  0.47000000000E+01 0. -1.
        -13    1    6    6    0    0  0.26699364622E+02  0.36639341455E+02  0.28240188785E+03  0.28601769818E+03  0.00000000000E+00 0.  1.
         14    1    6    6    0    0 -0.40664034199E+02 -0.78017970864E+01  0.28051945656E+03  0.28355880735E+03  0.00000000000E+00 0. -1.
         -5    1    3    3    0  503 -0.67454487088E+02 -0.10245392571E+03 -0.74967487049E+02  0.14383716083E+03  0.47000000000E+01 0.  1.
         11    1    4    4    0    0  0.19924383876E+02  0.67611775427E+01 -0.39548837927E+02  0.44797379119E+02  0.00000000000E+00 0. -1.
        -12    1    4    4    0    0 -0.41846030808E+02  0.13157400072E+02  0.10518747436E+02  0.45109328510E+02  0.00000000000E+00 0.  1.
</event>
<event>
12    1  0.8052519E-002  0.1737177E+03  0.7818608E-02  0.1174076E+00
         21   -1    0    0  501  502  0.00000000000E+00  0.00000000000E+00  0.15651586484E+03  0.15651586484E+03  0.00000000000E+00 0.  1.
         21   -1    0    0  502  503 -0.00000000000E+00 -0.00000000000E+00 -0.36209556973E+03  0.36209556973E+03  0.00000000000E+00 0.  1.
         -6    2    1    2    0  503  0.10750526275E+02  0.25854013989E+02 -0.28023847957E+03  0.32971417822E+03  0.17144628905E+03 0.  0.
        -24    2    3    3    0    0  0.54277776826E+02  0.53032066634E+02 -0.14771386778E+03  0.18752370449E+03  0.87104970375E+02 0.  0.
          6    2    1    2  501    0 -0.10750526275E+02 -0.25854013989E+02  0.74658774687E+02  0.18889725636E+03  0.17124320999E+03 0.  0.
         24    2    5    5    0    0 -0.51635915504E+02  0.21913180726E+02  0.79718678652E+02  0.12564369858E+03  0.79276831464E+02 0.  0.
          5    1    5    5  501    0  0.40885389229E+02 -0.47767194715E+02 -0.50599039649E+01  0.63253557777E+02  0.47000000000E+01 0. -1.
        -11    1    6    6    0    0 -0.23951454217E+02 -0.63542735005E+01  0.82342833920E+02  0.85990646287E+02  0.00000000000E+00 0.  1.
         12    1    6    6    0    0 -0.27684461287E+02  0.28267454226E+02 -0.26241552683E+01  0.39653052291E+02  0.00000000000E+00 0. -1.
         -5    1    3    3    0  503 -0.43527250551E+02 -0.27178052644E+02 -0.13252461179E+03  0.14219047372E+03  0.47000000000E+01 0.  1.
         11    1    4    4    0    0  0.70220912546E+01 -0.19037027730E+02 -0.51472796189E+01  0.20933529991E+02  0.00000000000E+00 0. -1.
        -12    1    4    4    0    0  0.47255685571E+02  0.72069094364E+02 -0.14256658816E+03  0.16659017450E+03  0.00000000000E+00 0.  1.
</event>
<event>
12    1  0.8052519E-002  0.2375940E+03  0.7818608E-02  0.1121841E+00
         21   -1    0    0  501  502  0.00000000000E+00  0.00000000000E+00  0.11127914976E+04  0.11127914976E+04  0.00000000000E+00 0.  1.
         21   -1    0    0  502  503 -0.00000000000E+00 -0.00000000000E+00 -0.62829897880E+02  0.62829897880E+02  0.00000000000E+00 0.  1.
         -6    2    1    2    0  503  0.16022554143E+03  0.33371717022E+02  0.26353772243E+03  0.35482818767E+03  0.17223535060E+03 0.  0.
        -24    2    3    3    0    0  0.60027305942E+02 -0.28025420206E+02  0.62262258697E+02  0.12171191377E+03  0.80922799380E+02 0.  0.
          6    2    1    2  501    0 -0.16022554143E+03 -0.33371717022E+02  0.78642387728E+03  0.82079320781E+03  0.16868040667E+03 0.  0.
         24    2    5    5    0    0 -0.18357743622E+03 -0.38639316598E+02  0.74778144853E+03  0.77509434682E+03  0.80002998904E+02 0.  0.
          5    1    5    5  501    0  0.23351894785E+02  0.52675995753E+01  0.38642428754E+02  0.45698860985E+02  0.47000000000E+01 0. -1.
        -11    1    6    6    0    0 -0.63858217714E+02  0.24641093724E+02  0.24064056856E+03  0.25018580836E+03  0.00000000000E+00 0.  1.
         12    1    6    6    0    0 -0.11971921850E+03 -0.63280410321E+02  0.50714087997E+03  0.52490853846E+03  0.00000000000E+00 0. -1.
         -5    1    3    3    0  503  0.10019823549E+03  0.61397137228E+02  0.20127546374E+03  0.23311627390E+03  0.47000000000E+01 0.  1.
         13    1    4    4    0    0  0.12266580067E+01  0.20154676418E+02  0.36015689726E+02  0.41289775706E+02  0.00000000000E+00 0. -1.
        -14    1    4    4    0    0  0.58800647936E+02 -0.48180096624E+02  0.26246568971E+02  0.80422138066E+02  0.00000000000E+00 0.  1.
</event>
<event>
12    1  0.8052519E-002  0.1888449E+03  0.7818608E-02  0.1159608E+00
         21   -1    0    0  503  502  0.00000000000E+00  0.00000000000E+00  0.28095008973E+03  0.28095008973E+03  0.00000000000E+00 0.  1.
         21   -1    0    0  501  503 -0.00000000000E+00 -0.00000000000E+00 -0.13469989785E+03  0.13469989785E+03  0.00000000000E+00 0. -1.
          6    2    1    2  501    0  0.14459735988E+02 -0.76268158176E+02  0.22202278094E+02  0.18970686318E+03  0.17166780964E+03 0.  0.
         24    2    3    3    0    0 -0.54603972487E+02 -0.50904154427E+02  0.40830226654E+02  0.11366595983E+03  0.75365882639E+02 0.  0.
         -6    2    1    2    0  502 -0.14459735988E+02  0.76268158176E+02  0.12404791378E+03  0.22594312440E+03  0.17215253304E+03 0.  0.
        -24    2    5    5    0    0  0.52920340517E+02  0.74017004643E+02  0.96733360666E+02  0.15305061989E+03  0.76079364910E+02 0.  0.
          5    1    3    3  501    0  0.69063708475E+02 -0.25364003750E+02 -0.18627948561E+02  0.76040903349E+02  0.47000000000E+01 0. -1.
        -13    1    4    4    0    0 -0.20918133463E+02 -0.54561765706E+02  0.51761142656E+02  0.78062606116E+02  0.00000000000E+00 0.  1.
         14    1    4    4    0    0 -0.33685839024E+02  0.36576112795E+01 -0.10930916002E+02  0.35603353714E+02  0.00000000000E+00 0. -1.
         -5    1    5    5    0  502 -0.67380076505E+02  0.22511535331E+01  0.27314553115E+02  0.72892504511E+02  0.47000000000E+01 0.  1.
         11    1    6    6    0    0  0.58743695581E+02  0.27027503325E+02  0.30145533283E+02  0.71344662613E+02  0.00000000000E+00 0. -1.
        -12    1    6    6    0    0 -0.58233550640E+01  0.46989501319E+02  0.66587827383E+02  0.81705957273E+02  0.00000000000E+00 0.  1.
</event>
<event>
12    1  0.8052519E-002  0.2573317E+03  0.7818608E-02  0.1109090E+00
         21   -1    0    0  503  502  0.00000000000E+00  0.00000000000E+00  0.13790859140E+04  0.13790859140E+04  0.00000000000E+00 0.  1.
         21   -1    0    0  501  503 -0.00000000000E+00 -0.00000000000E+00 -0.50994611465E+02  0.50994611465E+02  0.00000000000E+00 0. -1.
          6    2    1    2  501    0 -0.18334279345E+03 -0.51611677458E+02  0.47722720453E+03  0.54115458280E+03  0.16977671391E+03 0.  0.
         24    2    3    3    0    0 -0.49869528381E+02 -0.46353647850E+02  0.30796179895E+03  0.32547976533E+03  0.80380205901E+02 0.  0.
         -6    2    1    2    0  502  0.18334279345E+03  0.51611677458E+02  0.85086409805E+03  0.88892594270E+03  0.17303546777E+03 0.  0.
        -24    2    5    5    0    0  0.17539960271E+02  0.19811686586E+02  0.38077119159E+03  0.38941493220E+03  0.77182484709E+02 0.  0.
          5    1    3    3  501    0 -0.13347326507E+03 -0.52580296077E+01  0.16926540558E+03  0.21567481747E+03  0.47000000000E+01 0. -1.
        -11    1    4    4    0    0  0.25396589440E+01  0.19016511811E+02  0.34563700076E+02  0.39531341389E+02  0.00000000000E+00 0.  1.
         12    1    4    4    0    0 -0.52409187325E+02 -0.65370159661E+02  0.27339809887E+03  0.28594842394E+03  0.00000000000E+00 0. -1.
         -5    1    5    5    0  502  0.16580283318E+03  0.31799990872E+02  0.47009290646E+03  0.49951101050E+03  0.47000000000E+01 0.  1.
         11    1    6    6    0    0  0.17450063697E+02  0.48612324074E+02  0.27411772684E+03  0.27894119621E+03  0.00000000000E+00 0. -1.
        -12    1    6    6    0    0  0.89896573653E-01 -0.28800637488E+02  0.10665346475E+03  0.11047373599E+03  0.00000000000E+00 0.  1.
</event>
<event>
12    1  0.8052519E-002  0.2012389E+03  0.7818608E-02  0.1150316E+00
         21   -1    0    0  501  502  0.00000000000E+00  0.00000000000E+00  0.10456088661E+04  0.10456088661E+04  0.00000000000E+00 0.  1.
         21   -1    0    0  502  503 -0.00000000000E+00 -0.00000000000E+00 -0.38389006132E+02  0.38389006132E+02  0.00000000000E+00 0.  1.
         -6    2    1    2    0  503 -0.68810994316E+02  0.76948110401E+02  0.42114422371E+03  0.46675426487E+03  0.17274583055E+03 0.  0.
        -24    2    3    3    0    0 -0.84190520343E+02  0.11863279064E+02  0.35014748199E+03  0.36910595497E+03  0.80044773373E+02 0.  0.
          6    2    1    2  501    0  0.68810994316E+02 -0.76948110401E+02  0.58607563624E+03  0.61724360734E+03  0.16385681183E+03 0.  0.
         24    2    5    5    0    0  0.81193032317E+02 -0.63231241668E+02  0.26044526281E+03  0.29105547536E+03  0.79316179901E+02 0.  0.
          5    1    5    5  501    0 -0.12382038001E+02 -0.13716868734E+02  0.32563037342E+03  0.32618813199E+03  0.47000000000E+01 0. -1.
        -11    1    6    6    0    0  0.27970876237E+02 -0.29066208429E+02  0.19839631735E+03  0.20245570658E+03  0.00000000000E+00 0.  1.
         12    1    6    6    0    0  0.53222156080E+02 -0.34165033239E+02  0.62048945467E+02  0.88599768778E+02  0.00000000000E+00 0. -1.
         -5    1    3    3    0  503  0.15379526027E+02  0.65084831338E+02  0.70996741726E+02  0.97648309902E+02  0.47000000000E+01 0.  1.
         13    1    4    4    0    0 -0.68094084867E+02 -0.26681661750E+02  0.18968093241E+03  0.20329183847E+03  0.00000000000E+00 0. -1.
        -14    1    4    4    0    0 -0.16096435476E+02  0.38544940814E+02  0.16046654957E+03  0.16581411649E+03  0.00000000000E+00 0.  1.
</event>
<event>
12    1  0.8052519E-002  0.1725417E+03  0.7818608E-02  0.1175356E+00
         21   -1    0    0  501  502  0.00000000000E+00  0.00000000000E+00  0.17421826830E+03  0.17421826830E+03  0.00000000000E+00 0. -1.
         21   -1    0    0  502  503 -0.00000000000E+00 -0.00000000000E+00 -0.18828443117E+03  0.18828443117E+03  0.00000000000E+00 0. -1.
         -6    2    1    2    0  503 -0.64685034794E+01 -0.11316519911E+02 -0.62955143640E+02  0.18366815882E+03  0.17204864804E+03 0.  0.
        -24    2    3    3    0    0  0.78478549672E+01  0.33452861601E+01  0.31002435314E+02  0.87387094638E+02  0.81256221589E+02 0.  0.
          6    2    1    2  501    0  0.64685034794E+01  0.11316519911E+02  0.48888980777E+02  0.17883454065E+03  0.17152771009E+03 0.  0.
         24    2    5    5    0    0 -0.15244407189E+02 -0.52379164059E+02  0.53341064518E+02  0.11122905496E+03  0.80936176866E+02 0.  0.
          5    1    5    5  501    0  0.21712910669E+02  0.63695683970E+02 -0.44520837405E+01  0.67605485693E+02  0.47000000000E+01 0. -1.
        -11    1    6    6    0    0 -0.30623498406E+02 -0.52122301725E+01 -0.82516055011E+01  0.32141172837E+02  0.00000000000E+00 0.  1.
         12    1    6    6    0    0  0.15379091217E+02 -0.47166933886E+02  0.61592670019E+02  0.79087882124E+02  0.00000000000E+00 0. -1.
         -5    1    3    3    0  503 -0.14316358447E+02 -0.14661806071E+02 -0.93957578954E+02  0.96281064178E+02  0.47000000000E+01 0.  1.
         13    1    4    4    0    0 -0.42174845976E+01  0.51265550432E+01 -0.27160100490E+02  0.27959610183E+02  0.00000000000E+00 0. -1.
        -14    1    4    4    0    0  0.12065339565E+02 -0.17812688831E+01  0.58162535804E+02  0.59427484456E+02  0.00000000000E+00 0.  1.
</event>
<event>
12    1  0.8052519E-002  0.1899287E+03  0.7818608E-02  0.1158687E+00
         21   -1    0    0  503  502  0.00000000000E+00  0.00000000000E+00  0.23929916760E+02  0.23929916760E+02  0.00000000000E+00 0. -1.
         21   -1    0    0  501  503 -0.00000000000E+00 -0.00000000000E+00 -0.15075384088E+04  0.15075384088E+04  0.00000000000E+00 0. -1.
          6    2    1    2  501    0  0.72872233468E+02 -0.39023669918E+02 -0.79052991946E+03  0.81302550768E+03  0.17099623784E+03 0.  0.
         24    2    3    3    0    0  0.31983829924E+02 -0.63972188237E+02 -0.27666533611E+03  0.29691196384E+03  0.80607690855E+02 0.  0.
         -6    2    1    2    0  502 -0.72872233468E+02  0.39023669918E+02 -0.69307857256E+03  0.71844281785E+03  0.17020271903E+03 0.  0.
        -24    2    5    5    0    0 -0.38951392386E+02  0.78987031229E+02 -0.59958359835E+03  0.61115305176E+03  0.79065790289E+02 0.  0.
          5    1    3    3  501    0  0.40888403544E+02  0.24948518319E+02 -0.51386458335E+03  0.51611354384E+03  0.47000000000E+01 0. -1.
        -13    1    4    4    0    0  0.15332818908E+02  0.17658939821E+02 -0.79472461427E+02  0.82842052224E+02  0.00000000000E+00 0.  1.
         14    1    4    4    0    0  0.16651011016E+02 -0.81631128059E+02 -0.19719287468E+03  0.21406991162E+03  0.00000000000E+00 0. -1.
         -5    1    5    5    0  502 -0.33920841081E+02 -0.39963361311E+02 -0.93494974208E+02  0.10728976610E+03  0.47000000000E+01 0.  1.
         11    1    6    6    0    0 -0.48779791940E+02  0.11607836081E+02 -0.26793317981E+03  0.27258466355E+03  0.00000000000E+00 0. -1.
        -12    1    6    6    0    0  0.98283995537E+01  0.67379195147E+02 -0.33165041854E+03  0.33856838821E+03  0.00000000000E+00 0.  1.
</event>
<event>
12    1  0.8052519E-002  0.3143760E+03  0.7818608E-02  0.1078309E+00
         21   -1    0    0  501  502  0.00000000000E+00  0.00000000000E+00  0.59547893626E+03  0.59547893626E+03  0.00000000000E+00 0.  1.
         21   -1    0    0  502  503 -0.00000000000E+00 -0.00000000000E+00 -0.16578448969E+03  0.16578448969E+03  0.00000000000E+00 0.  1.
         -6    2    1    2    0  503 -0.14954462047E+03  0.21604886773E+03  0.21410440625E+03  0.38006622503E+03  0.17195619173E+03 0.  0.
        -24    2    3    3    0    0 -0.14818911593E+03  0.19049960920E+03  0.11398519608E+03  0.27662277067E+03  0.72645833620E+02 0.  0.
          6    2    1    2  501    0  0.14954462047E+03 -0.21604886773E+03  0.21559004032E+03  0.38119720091E+03  0.17260224141E+03 0.  0.
         24    2    5    5    0    0  0.91286786601E+02 -0.18735809701E+03  0.78910097391E+02  0.22980158562E+03  0.56085928328E+02 0.  0.
          5    1    5    5  501    0  0.58257833872E+02 -0.28690770716E+02  0.13667994293E+03  0.15139561530E+03  0.47000000000E+01 0. -1.
        -11    1    6    6    0    0  0.96483621411E+02 -0.15223059315E+03  0.68329320122E+02  0.19274890059E+03  0.00000000000E+00 0.  1.
         12    1    6    6    0    0 -0.51968348107E+01 -0.35127503863E+02  0.10580777269E+02  0.37052685021E+02  0.00000000000E+00 0. -1.
         -5    1    3    3    0  503 -0.13555045396E+01  0.25549258527E+02  0.10011921017E+03  0.10344345436E+03  0.47000000000E+01 0.  1.
         11    1    4    4    0    0 -0.54900461321E+02  0.44488405232E+02  0.27401869658E+01  0.70716246210E+02  0.00000000000E+00 0. -1.
        -12    1    4    4    0    0 -0.93288654611E+02  0.14601120397E+03  0.11124500911E+03  0.20590652446E+03  0.00000000000E+00 0.  1.
</event>
<event>
12    1  0.8052519E-002  0.2005195E+03  0.7818608E-02  0.1149600E+00
         21   -1    0    0  503  502  0.00000000000E+00  0.00000000000E+00  0.60305908821E+03  0.60305908821E+03  0.00000000000E+00 0.  1.
         21   -1    0    0  501  503 -0.00000000000E+00 -0.00000000000E+00 -0.17240152860E+03  0.17240152860E+03  0.00000000000E+00 0.  1.
          6    2    1    2  501    0  0.90308113998E+02  0.44331808710E+02 -0.88687681123E+02  0.21925684818E+03  0.17345661121E+03 0.  0.
         24    2    3    3    0    0  0.76704584475E+02  0.87187296013E+02 -0.99406066618E+02  0.17279586890E+03  0.80570642071E+02 0.  0.
         -6    2    1    2    0  502 -0.90308113998E+02 -0.44331808710E+02  0.51934524073E+03  0.55620376863E+03  0.17182051232E+03 0.  0.
        -24    2    5    5    0    0  0.11090332544E+01 -0.73721889101E+02  0.29682512051E+03  0.31380293212E+03  0.70220945277E+02 0.  0.
          5    1    3    3  501    0  0.13603529523E+02 -0.42855487303E+02  0.10718385494E+02  0.46460979273E+02  0.47000000000E+01 0. -1.
        -13    1    4    4    0    0  0.60587563213E+02  0.29215498438E+02 -0.14629006761E+02  0.68836080684E+02  0.00000000000E+00 0.  1.
         14    1    4    4    0    0  0.16117021262E+02  0.57971797574E+02 -0.84777059857E+02  0.10395978822E+03  0.00000000000E+00 0. -1.
         -5    1    5    5    0  502 -0.91417147252E+02  0.29390080391E+02  0.22252012022E+03  0.24240083651E+03  0.47000000000E+01 0.  1.
         11    1    6    6    0    0  0.56092182423E+01 -0.68459132555E+02  0.13173133858E+03  0.14856399875E+03  0.00000000000E+00 0. -1.
        -12    1    6    6    0    0 -0.45001849879E+01 -0.52627565456E+01  0.16509378193E+03  0.16523893337E+03  0.00000000000E+00 0.  1.
</event>
<event>
12    1  0.8052519E-002  0.2185009E+03  0.7818608E-02  0.1135258E+00
         21   -1    0    0  503  502  0.00000000000E+00  0.00000000000E+00  0.64704915521E+03  0.64704915521E+03  0.00000000000E+00 0.  1.
         21   -1    0    0  501  503 -0.00000000000E+00 -0.00000000000E+00 -0.74319027197E+02  0.74319027197E+02  0.00000000000E+00 0. -1.
          6    2    1    2  501    0  0.13059796130E+02  0.13188346885E+03  0.24569621708E+03  0.32879976222E+03  0.17372059438E+03 0.  0.
         24    2    3    3    0    0  0.25079138560E+02  0.13987071156E+03  0.26078663910E+03  0.30739715781E+03  0.79313065463E+02 0.  0.
         -6    2    1    2    0  502 -0.13059796130E+02 -0.13188346885E+03  0.32703391093E+03  0.39256842019E+03  0.17203190984E+03 0.  0.
        -24    2    5    5    0    0 -0.45948828131E+02 -0.24462053195E+02  0.20898072873E+03  0.22953562351E+03  0.79397547984E+02 0.  0.
          5    1    3    3  501    0 -0.12019342431E+02 -0.79872427096E+01 -0.15090422019E+02  0.21402604404E+02  0.47000000000E+01 0. -1.
        -11    1    4    4    0    0  0.15386588062E+02  0.15151010612E+02  0.42827109847E+01  0.22014582170E+02  0.00000000000E+00 0.  1.
         12    1    4    4    0    0  0.96925504980E+01  0.12471970095E+03  0.25650392812E+03  0.28538257564E+03  0.00000000000E+00 0. -1.
         -5    1    5    5    0  502  0.32889032001E+02 -0.10742141565E+03  0.11805318221E+03  0.16303279669E+03  0.47000000000E+01 0.  1.
         11    1    6    6    0    0  0.59084142987E+01  0.23543537717E+02  0.53755331249E+02  0.58981718909E+02  0.00000000000E+00 0. -1.
        -12    1    6    6    0    0 -0.51857242430E+02 -0.48005590912E+02  0.15522539748E+03  0.17055390460E+03  0.00000000000E+00 0.  1.
</event>
<event>
12    1  0.8052519E-002  0.1973595E+03  0.7818608E-02  0.1152228E+00
         21   -1    0    0  503  502  0.00000000000E+00  0.00000000000E+00  0.13824948306E+04  0.13824948306E+04  0.00000000000E+00 0. -1.
         21   -1    0    0  501  503 -0.00000000000E+00 -0.00000000000E+00 -0.28488862854E+02  0.28488862854E+02  0.00000000000E+00 0. -1.
          6    2    1    2  501    0  0.56178207194E+02  0.75030107222E+02  0.58401030650E+03  0.61609748724E+03  0.17240234260E+03 0.  0.
         24    2    3    3    0    0  0.70566456085E+02  0.53589573776E+01  0.46625641054E+03  0.47844153626E+03  0.80640685147E+02 0.  0.
         -6    2    1    2    0  502 -0.56178207194E+02 -0.75030107222E+02  0.76999566121E+03  0.79488620618E+03  0.17368147435E+03 0.  0.
        -24    2    5    5    0    0 -0.28993560510E+02  0.21874753588E+02  0.49509022296E+03  0.50209848949E+03  0.75295636526E+02 0.  0.
          5    1    3    3  501    0 -0.14388248891E+02  0.69671149844E+02  0.11775389596E+03  0.13765595098E+03  0.47000000000E+01 0. -1.
        -13    1    4    4    0    0  0.24945900968E+02  0.33721825207E+02  0.31797188017E+03  0.32072663758E+03  0.00000000000E+00 0.  1.
         14    1    4    4    0    0  0.45620555117E+02 -0.28362867829E+02  0.14828453036E+03  0.15771489868E+03  0.00000000000E+00 0. -1.
         -5    1    5    5    0  502 -0.27184646684E+02 -0.96904860810E+02  0.27490543825E+03  0.29278771669E+03  0.47000000000E+01 0.  1.
         11    1    6    6    0    0 -0.33424514644E+02 -0.17316152350E+02  0.14550946408E+03  0.15029987175E+03  0.00000000000E+00 0. -1.
        -12    1    6    6    0    0  0.44309541343E+01  0.39190905938E+02  0.34958075888E+03  0.35179861774E+03  0.00000000000E+00 0.  1.
</event>
<event>
12    1  0.8052519E-002  0.1980455E+03  0.7818608E-02  0.1151643E+00
         21   -1    0    0  501  502  0.00000000000E+00  0.00000000000E+00  0.42240729736E+02  0.42240729736E+02  0.00000000000E+00 0.  1.
         21   -1    0    0  502  503 -0.00000000000E+00 -0.00000000000E+00 -0.92799046812E+03  0.92799046812E+03  0.00000000000E+00 0.  1.
         -6    2    1    2    0  503 -0.59846945246E+02 -0.77228376730E+02 -0.47647172190E+03  0.51555491611E+03  0.17095523020E+03 0.  0.
        -24    2    3    3    0    0 -0.39875238768E+02 -0.64356655790E+02 -0.47851934972E+03  0.49124785872E+03  0.81313447985E+02 0.  0.
          6    2    1    2  501    0  0.59846945246E+02  0.77228376730E+02 -0.40927801649E+03  0.45467628174E+03  0.17226766200E+03 0.  0.
         24    2    5    5    0    0 -0.36107499518E+01  0.47468121947E+02 -0.94668937837E+02  0.13232009022E+03  0.79247324042E+02 0.  0.
          5    1    5    5  501    0  0.63457695198E+02  0.29760254782E+02 -0.31460907865E+03  0.32235619152E+03  0.47000000000E+01 0. -1.
        -13    1    6    6    0    0 -0.12909621322E+02  0.17490749729E+01 -0.83282946629E+02  0.84295710360E+02  0.00000000000E+00 0.  1.
         14    1    6    6    0    0  0.92988713699E+01  0.45719046975E+02 -0.11385991208E+02  0.48024379859E+02  0.00000000000E+00 0. -1.
         -5    1    3    3    0  503 -0.19971706478E+02 -0.12871720940E+02  0.20476278252E+01  0.24307057397E+02  0.47000000000E+01 0.  1.
         13    1    4    4    0    0 -0.52137284386E+02 -0.74628234664E+02 -0.34636582127E+03  0.35812979766E+03  0.00000000000E+00 0. -1.
        -14    1    4    4    0    0  0.12262045618E+02  0.10271578874E+02 -0.13215352846E+03  0.13311806105E+03  0.00000000000E+00 0.  1.
</event>
<event>
12    1  0.8052519E-002  0.1687445E+03  0.7818608E-02  0.1179201E+00
         21   -1    0    0  503  502  0.00000000000E+00  0.00000000000E+00  0.97193959909E+02  0.97193959909E+02  0.00000000000E+00 0. -1.
         21   -1    0    0  501  503 -0.00000000000E+00 -0.00000000000E+00 -0.41356305209E+03  0.41356305209E+03  0.00000000000E+00 0. -1.
          6    2    1    2  501    0  0.50614171432E+01 -0.12695126532E+00 -0.29627743256E+03  0.34096191146E+03  0.16866853281E+03 0.  0.
         24    2    3    3    0    0 -0.97163672184E+01  0.62100978341E+02 -0.20916900811E+03  0.23279229584E+03  0.80558300284E+02 0.  0.
         -6    2    1    2    0  502 -0.50614171432E+01  0.12695126532E+00 -0.20091659613E+02  0.16979510053E+03  0.16852616212E+03 0.  0.
        -24    2    5    5    0    0  0.44090716905E+02 -0.73396857739E+01  0.35382705343E+02  0.95154775524E+02  0.76188143192E+02 0.  0.
          5    1    3    3  501    0  0.14777784362E+02 -0.62227929606E+02 -0.87108424451E+02  0.10816961562E+03  0.47000000000E+01 0. -1.
        -13    1    4    4    0    0  0.11472796530E+02 -0.15903824274E+02 -0.25874804067E+02  0.32466323664E+02  0.00000000000E+00 0.  1.
         14    1    4    4    0    0 -0.21189163748E+02  0.78004802615E+02 -0.18329420405E+03  0.20032597218E+03  0.00000000000E+00 0. -1.
         -5    1    5    5    0  502 -0.49152134048E+02  0.74666370393E+01 -0.55474364956E+02  0.74640325009E+02  0.47000000000E+01 0.  1.
         11    1    6    6    0    0  0.14643023154E+01 -0.49335831433E+01  0.49820337451E+02  0.50085431491E+02  0.00000000000E+00 0. -1.
        -12    1    6    6    0    0  0.42626414589E+02 -0.24061026307E+01 -0.14437632108E+02  0.45069344032E+02  0.00000000000E+00 0.  1.
</event>
<event>
12    1  0.8052519E-002  0.2439329E+03  0.7818608E-02  0.1117273E+00
         21   -1    0    0  503  502  0.00000000000E+00  0.00000000000E+00  0.25658432769E+03  0.25658432769E+03  0.00000000000E+00 0. -1.
         21   -1    0    0  501  503 -0.00000000000E+00 -0.00000000000E+00 -0.39435103537E+03  0.39435103537E+03  0.00000000000E+00 0. -1.
          6    2    1    2  501    0  0.15174570442E+02  0.17182768206E+03 -0.27801085476E+03  0.36956070752E+03  0.17184312984E+03 0.  0.
         24    2    3    3    0    0 -0.34495384085E+02  0.39148363917E+02 -0.15387510731E+03  0.18113915981E+03  0.80070722797E+02 0.  0.
         -6    2    1    2    0  502 -0.15174570442E+02 -0.17182768206E+03  0.14024414708E+03  0.28137465554E+03  0.17247682766E+03 0.  0.
        -24    2    5    5    0    0 -0.50410533145E+02 -0.14351402271E+03  0.15677928124E+03  0.23301416510E+03  0.81107099230E+02 0.  0.
          5    1    3    3  501    0  0.49669954527E+02  0.13267931814E+03 -0.12413574745E+03  0.18842154771E+03  0.47000000000E+01 0. -1.
        -13    1    4    4    0    0 -0.12600589884E+02  0.84762002841E+01  0.64099452550E+01  0.16483574699E+02  0.00000000000E+00 0.  1.
         14    1    4    4    0    0 -0.21894794201E+02  0.30672163633E+02 -0.16028505256E+03  0.16465558512E+03  0.00000000000E+00 0. -1.
         -5    1    5    5    0  502  0.35235962703E+02 -0.28313659352E+02 -0.16535134161E+02  0.48360490436E+02  0.47000000000E+01 0.  1.
         11    1    6    6    0    0 -0.61167652296E+02 -0.12764651396E+03  0.10059758394E+03  0.17365191651E+03  0.00000000000E+00 0. -1.
        -12    1    6    6    0    0  0.10757119151E+02 -0.15867508752E+02  0.56181697299E+02  0.59362248591E+02  0.00000000000E+00 0.  1.
</event>
<event>
12    1  0.8052519E-002  0.5217088E+03  0.7818608E-02  0.1008264E+00
         21   -1    0    0  501  502  0.00000000000E+00  0.00000000000E+00  0.51441375215E+03  0.51441375215E+03  0.00000000000E+00 0. -1.
         21   -1    0    0  502  503 -0.00000000000E+00 -0.00000000000E+00 -0.53189554763E+03  0.53189554763E+03  0.00000000000E+00 0.  1.
         -6    2    1    2    0  503 -0.43504922261E+03 -0.23053171740E+03  0.29273522297E+02  0.52250963417E+03  0.17247225827E+03 0.  0.
        -24    2    3    3    0    0 -0.32116605531E+03 -0.11395588147E+03  0.65223735574E+02  0.35555512194E+03  0.77664219923E+02 0.  0.
          6    2    1    2  501    0  0.43504922261E+03  0.23053171740E+03 -0.46755317768E+02  0.52379966561E+03  0.17253211624E+03 0.  0.
         24    2    5    5    0    0  0.92714324186E+02  0.78249838129E+02 -0.24342888225E+02  0.14842337383E+03  0.81963032006E+02 0.  0.
          5    1    5    5  501    0  0.34233489842E+03  0.15228187927E+03 -0.22412429542E+02  0.37537629178E+03  0.47000000000E+01 0. -1.
        -11    1    6    6    0    0  0.78273672481E+02  0.52800521899E+02 -0.52315892260E+02  0.10794264912E+03  0.00000000000E+00 0.  1.
         12    1    6    6    0    0  0.14440651705E+02  0.25449316231E+02  0.27973004034E+02  0.40480724709E+02  0.00000000000E+00 0. -1.
         -5    1    3    3    0  503 -0.11388316730E+03 -0.11657583593E+03 -0.35950213277E+02  0.16695451222E+03  0.47000000000E+01 0.  1.
         13    1    4    4    0    0 -0.13370249241E+03 -0.38862806695E+02 -0.11079421657E+02  0.13967615331E+03  0.00000000000E+00 0. -1.
        -14    1    4    4    0    0 -0.18746356290E+03 -0.75093074776E+02  0.76303157231E+02  0.21587896863E+03  0.00000000000E+00 0.  1.
</event>
<event>
12    1  0.8052519E-002  0.2748643E+03  0.7818608E-02  0.1098702E+00
         21   -1    0    0  503  502  0.00000000000E+00  0.00000000000E+00  0.24711398121E+04  0.24711398121E+04  0.00000000000E+00 0.  1.
         21   -1    0    0  501  503 -0.00000000000E+00 -0.00000000000E+00 -0.33828451868E+02  0.33828451868E+02  0.00000000000E+00 0. -1.
          6    2    1    2  501    0 -0.10406241607E+03  0.18774876981E+03  0.81947704039E+03  0.86395081955E+03  0.16967560775E+03 0.  0.
         24    2    3    3    0    0 -0.89162605888E+02  0.45046392525E+02  0.41656418967E+03  0.43622797926E+03  0.82401322849E+02 0.  0.
         -6    2    1    2    0  502  0.10406241607E+03 -0.18774876981E+03  0.16178343198E+04  0.16410174444E+04  0.17167346746E+03 0.  0.
        -24    2    5    5    0    0  0.14880390358E+02 -0.12109366518E+03  0.12032949439E+04  0.12117607370E+04  0.74567150177E+02 0.  0.
          5    1    3    3  501    0 -0.14899810185E+02  0.14270237729E+03  0.40291285072E+03  0.42772284028E+03  0.47000000000E+01 0. -1.
        -11    1    4    4    0    0 -0.40285753338E+02  0.59544953562E+02  0.17224725627E+03  0.18664849507E+03  0.00000000000E+00 0.  1.
         12    1    4    4    0    0 -0.48876852550E+02 -0.14498561036E+02  0.24431693340E+03  0.24957948420E+03  0.00000000000E+00 0. -1.
         -5    1    5    5    0  502  0.89182025715E+02 -0.66655104628E+02  0.41453937594E+03  0.42925670745E+03  0.47000000000E+01 0.  1.
         13    1    6    6    0    0  0.14582854655E+02 -0.99127715794E+02  0.61929808126E+03  0.62735084055E+03  0.00000000000E+00 0. -1.
        -14    1    6    6    0    0  0.29753570313E+00 -0.21965949389E+02  0.58399686265E+03  0.58440989643E+03  0.00000000000E+00 0.  1.
</event>
<event>
12    1  0.8052519E-002  0.1780182E+03  0.7818608E-02  0.1170679E+00
         21   -1    0    0  501  502  0.00000000000E+00  0.00000000000E+00  0.11303793112E+03  0.11303793112E+03  0.00000000000E+00 0. -1.
         21   -1    0    0  502  503 -0.00000000000E+00 -0.00000000000E+00 -0.70780062453E+03  0.70780062453E+03  0.00000000000E+00 0. -1.
         -6    2    1    2    0  503 -0.23831095984E+02  0.34641157636E+02 -0.61728772511E+03  0.64140091427E+03  0.16906527236E+03 0.  0.
        -24    2    3    3    0    0 -0.78040272662E+01  0.12135201126E+02 -0.60647530162E+03  0.61136121534E+03  0.75776501632E+02 0.  0.
          6    2    1    2  501    0  0.23831095984E+02 -0.34641157636E+02  0.22525031704E+02  0.17943764138E+03  0.17298138383E+03 0.  0.
         24    2    5    5    0    0 -0.38592059136E+02 -0.49294493462E+02 -0.18197318026E+02  0.10333396004E+03  0.80171508658E+02 0.  0.
          5    1    5    5  501    0  0.62423155120E+02  0.14653335827E+02  0.40722349730E+02  0.76103681340E+02  0.47000000000E+01 0. -1.
        -13    1    6    6    0    0  0.15996054131E+02 -0.40602093603E+02 -0.20054453815E+02  0.48026918187E+02  0.00000000000E+00 0.  1.
         14    1    6    6    0    0 -0.54588113267E+02 -0.86923998595E+01  0.18571357890E+01  0.55307041854E+02  0.00000000000E+00 0. -1.
         -5    1    3    3    0  503 -0.16027068718E+02  0.22505956510E+02 -0.10812423489E+02  0.30039698930E+02  0.47000000000E+01 0.  1.
         11    1    4    4    0    0 -0.39315252661E+02  0.20770127730E+02 -0.34854546045E+03  0.35137021117E+03  0.00000000000E+00 0. -1.
        -12    1    4    4    0    0  0.31511225395E+02 -0.86349266043E+01 -0.25792984117E+03  0.25999100417E+03  0.00000000000E+00 0.  1.
</event>
<event>
12    1  0.8052519E-002  0.2673200E+03  0.7818608E-02  0.1102955E+00
         21   -1    0    0  501  502  0.00000000000E+00  0.00000000000E+00  0.62552143386E+02  0.62552143386E+02  0.00000000000E+00 0.  1.
         21   -1    0    0  502  503 -0.00000000000E+00 -0.00000000000E+00 -0.12022217819E+04  0.12022217819E+04  0.00000000000E+00 0.  1.
         -6    2    1    2    0  503  0.42649236345E+02  0.19914136689E+03 -0.71628789567E+03  0.76454452136E+03  0.17315811933E+03 0.  0.
        -24    2    3    3    0    0 -0.24612176982E+02  0.65696724634E+02 -0.19691825782E+03  0.22408316198E+03  0.80713346687E+02 0.  0.
          6    2    1    2  501    0 -0.42649236345E+02 -0.19914136689E+03 -0.42338174281E+03  0.50022940389E+03  0.17175888624E+03 0.  0.
         24    2    5    5    0    0  0.41784587136E+02 -0.89896698242E+02 -0.18125375783E+03  0.22146154476E+03  0.79780467545E+02 0.  0.
          5    1    5    5  501    0 -0.84433823480E+02 -0.10924466865E+03 -0.24212798497E+03  0.27876785913E+03  0.47000000000E+01 0. -1.
        -11    1    6    6    0    0  0.97206493466E+01 -0.92281714279E+02 -0.11459095795E+03  0.14744996934E+03  0.00000000000E+00 0.  1.
         12    1    6    6    0    0  0.32063937789E+02  0.23850160366E+01 -0.66662799886E+02  0.74011575423E+02  0.00000000000E+00 0. -1.
         -5    1    3    3    0  503  0.67261413327E+02  0.13344464226E+03 -0.51936963784E+03  0.54046135938E+03  0.47000000000E+01 0.  1.
         11    1    4    4    0    0 -0.23833583710E+02 -0.10677669189E+02 -0.25885984275E+02  0.36771408916E+02  0.00000000000E+00 0. -1.
        -12    1    4    4    0    0 -0.77859327231E+00  0.76374393823E+02 -0.17103227355E+03  0.18731175306E+03  0.00000000000E+00 0.  1.
</event>
<event>
12    1  0.8052519E-002  0.1742127E+03  0.7818608E-02  0.1174070E+00
         21   -1    0    0  501  502  0.00000000000E+00  0.00000000000E+00  0.13523052765E+02  0.13523052765E+02  0.00000000000E+00 0. -1.
         21   -1    0    0  502  503 -0.00000000000E+00 -0.00000000000E+00 -0.25681146055E+04  0.25681146055E+04  0.00000000000E+00 0. -1.
         -6    2    1    2    0  503  0.81093346160E+01 -0.26905885653E+02 -0.80669342590E+03  0.82529046659E+03  0.17193133182E+03 0.  0.
        -24    2    3    3    0    0  0.32194095904E+02 -0.31940467079E+02 -0.21829695051E+03  0.23636099290E+03  0.78462138075E+02 0.  0.
          6    2    1    2  501    0 -0.81093346160E+01  0.26905885653E+02 -0.17478981268E+04  0.17563471916E+04  0.16975838101E+03 0.  0.
         24    2    5    5    0    0  0.47398993802E+02 -0.15339831611E+02 -0.12745820949E+04  0.12778954896E+04  0.77300650721E+02 0.  0.
          5    1    5    5  501    0 -0.55508328418E+02  0.42245717264E+02 -0.47331603188E+03  0.47845170204E+03  0.47000000000E+01 0. -1.
        -11    1    6    6    0    0  0.10619869464E+02 -0.42562838342E+02 -0.76765861979E+03  0.76891100484E+03  0.00000000000E+00 0.  1.
         12    1    6    6    0    0  0.36779124338E+02  0.27223006731E+02 -0.50692347514E+03  0.50898448476E+03  0.00000000000E+00 0. -1.
         -5    1    3    3    0  503 -0.24084761288E+02  0.50345814266E+01 -0.58839647538E+03  0.58892947369E+03  0.47000000000E+01 0.  1.
         13    1    4    4    0    0  0.61980262729E+01 -0.35244759322E+02 -0.20276496207E+03  0.20589861202E+03  0.00000000000E+00 0. -1.
        -14    1    4    4    0    0  0.25996069631E+02  0.33042922423E+01 -0.15531988441E+02  0.30462380872E+02  0.00000000000E+00 0.  1.
</event>
<event>
12    1  0.8052519E-002  0.1749968E+03  0.7818608E-02  0.1174344E+00
         21   -1    0    0  501  502  0.00000000000E+00  0.00000000000E+00  0.83360557375E+02  0.83360557375E+02  0.00000000000E+00 0.  1.
         21   -1    0    0  502  503 -0.00000000000E+00 -0.00000000000E+00 -0.53952588919E+03  0.53952588919E+03  0.00000000000E+00 0.  1.
         -6    2    1    2    0  503 -0.35633057622E+02  0.59561840879E+01 -0.40781243517E+03  0.44133239903E+03  0.16479718817E+03 0.  0.
        -24    2    3    3    0    0  0.13330720675E+02  0.93047483229E+01 -0.93427849316E+02  0.12310540098E+03  0.78497708672E+02 0.  0.
          6    2    1    2  501    0  0.35633057622E+02 -0.59561840879E+01 -0.48352896651E+02  0.18155404754E+03  0.17122697988E+03 0.  0.
         24    2    5    5    0    0 -0.33367992042E+02 -0.13713010328E+02  0.26854709247E+01  0.95250408145E+02  0.88113330164E+02 0.  0.
          5    1    5    5  501    0  0.69001049664E+02  0.77568262399E+01 -0.51038367576E+02  0.86303639396E+02  0.47000000000E+01 0. -1.
        -11    1    6    6    0    0 -0.43335377761E+02  0.28300414731E+02  0.50668435066E+01  0.52005204959E+02  0.00000000000E+00 0.  1.
         12    1    6    6    0    0  0.99673857191E+01 -0.42013425059E+02 -0.23813725819E+01  0.43245203187E+02  0.00000000000E+00 0. -1.
         -5    1    3    3    0  503 -0.48963778297E+02 -0.33485642350E+01 -0.31438458585E+03  0.31822699805E+03  0.47000000000E+01 0.  1.
         13    1    4    4    0    0  0.55072924586E+01 -0.70685496532E+01  0.12641373317E+02  0.15495127742E+02  0.00000000000E+00 0. -1.
        -14    1    4    4    0    0  0.78234282160E+01  0.16373297976E+02 -0.10606922263E+03  0.10761027323E+03  0.00000000000E+00 0.  1.
</event>
<event>
12    1  0.8052519E-002  0.1864109E+03  0.7818608E-02  0.1162313E+00
         21   -1    0    0  503  502  0.00000000000E+00  0.00000000000E+00  0.44267465183E+03  0.44267465183E+03  0.00000000000E+00 0.  1.
         21   -1    0    0  501  503 -0.00000000000E+00 -0.00000000000E+00 -0.88755136567E+02  0.88755136567E+02  0.00000000000E+00 0.  1.
          6    2    1    2  501    0 -0.29327822097E+02 -0.65337353124E+02  0.83209134288E+02  0.20413911178E+03  0.17210440455E+03 0.  0.
         24    2    3    3    0    0 -0.36780542024E+02 -0.40139280337E+02 -0.21761181266E+02  0.95827787096E+02  0.75798718143E+02 0.  0.
         -6    2    1    2    0  502  0.29327822097E+02  0.65337353124E+02  0.27071038098E+03  0.32729067662E+03  0.16942840899E+03 0.  0.
        -24    2    5    5    0    0  0.43109627461E+01  0.49795955739E+02  0.28056585079E+03  0.29588050996E+03  0.79560404330E+02 0.  0.
          5    1    3    3  501    0  0.74527199274E+01 -0.25198072787E+02  0.10497031555E+03  0.10831132468E+03  0.47000000000E+01 0. -1.
        -13    1    4    4    0    0 -0.41611707876E+02  0.38675122164E+01  0.79101579004E+01  0.42533075143E+02  0.00000000000E+00 0.  1.
         14    1    4    4    0    0  0.48311658514E+01 -0.44006792553E+02 -0.29671339166E+02  0.53294711953E+02  0.00000000000E+00 0. -1.
         -5    1    5    5    0  502  0.25016859351E+02  0.15541397385E+02 -0.98554698138E+01  0.31410166662E+02  0.47000000000E+01 0.  1.
         13    1    6    6    0    0  0.72045007786E+01  0.64863662114E+02  0.13982304182E+03  0.15430386423E+03  0.00000000000E+00 0. -1.
        -14    1    6    6    0    0 -0.28935380325E+01 -0.15067706375E+02  0.14074280897E+03  0.14157664573E+03  0.00000000000E+00 0.  1.
</event>
<event>
12    1  0.8052519E-002  0.1914522E+03  0.7818608E-02  0.1157357E+00
         21   -1    0    0  501  502  0.00000000000E+00  0.00000000000E+00  0.51388330648E+03  0.51388330648E+03  0.00000000000E+00 0. -1.
         21   -1    0    0  502  503 -0.00000000000E+00 -0.00000000000E+00 -0.10727407692E+03  0.10727407692E+03  0.00000000000E+00 0. -1.
         -6    2    1    2    0  503  0.64520935414E+02 -0.53493655465E+02  0.23006333225E+02  0.19282954373E+03  0.17213198217E+03 0.  0.
        -24    2    3    3    0    0  0.93805784953E+02 -0.13704756243E+02  0.51537730726E+02  0.13558542127E+03  0.82097034888E+02 0.  0.
          6    2    1    2  501    0 -0.64520935414E+02  0.53493655465E+02  0.38360289634E+03  0.42832783967E+03  0.17114039227E+03 0.  0.
         24    2    5    5    0    0 -0.81791574371E+01  0.91877681675E+02  0.25432875858E+03  0.28210327911E+03  0.79942076779E+02 0.  0.
          5    1    5    5  501    0 -0.56341777977E+02 -0.38384026210E+02  0.12927413776E+03  0.14622456055E+03  0.47000000000E+01 0. -1.
        -11    1    6    6    0    0  0.86908988391E+01 -0.12889276821E+02  0.40765156320E+02  0.43628696398E+02  0.00000000000E+00 0.  1.
         12    1    6    6    0    0 -0.16870056276E+02  0.10476695850E+03  0.21356360226E+03  0.23847458272E+03  0.00000000000E+00 0. -1.
         -5    1    3    3    0  503 -0.29284849539E+02 -0.39788899222E+02 -0.28531397501E+02  0.57244122468E+02  0.47000000000E+01 0.  1.
         13    1    4    4    0    0  0.44654441176E+02 -0.60469907185E+01 -0.19304238076E+02  0.49022839791E+02  0.00000000000E+00 0. -1.
        -14    1    4    4    0    0  0.49151343777E+02 -0.76577655248E+01  0.70841968802E+02  0.86562581475E+02  0.00000000000E+00 0.  1.
</event>
<event>
12    1  0.8052519E-002  0.1925020E+03  0.7818608E-02  0.1157759E+00
         21   -1    0    0  501  502  0.00000000000E+00  0.00000000000E+00  0.12524166266E+03  0.12524166266E+03  0.00000000000E+00 0. -1.
         21   -1    0    0  502  503 -0.00000000000E+00 -0.00000000000E+00 -0.28591434037E+03  0.28591434037E+03  0.00000000000E+00 0. -1.
         -6    2    1    2    0  503 -0.46654533074E+02 -0.54255585729E+02 -0.89232947577E+02  0.21217805195E+03  0.17870840147E+03 0.  0.
        -24    2    3    3    0    0 -0.66962868326E+02 -0.42990246147E+02  0.67225478427E+01  0.11334038981E+03  0.80428007023E+02 0.  0.
          6    2    1    2  501    0  0.46654533074E+02  0.54255585729E+02 -0.71439730133E+02  0.19897795108E+03  0.17137174777E+03 0.  0.
         24    2    5    5    0    0 -0.40079590530E+01  0.91897918946E+02 -0.37569654852E+02  0.12719421087E+03  0.79407789740E+02 0.  0.
          5    1    5    5  501    0  0.50662492127E+02 -0.37642333218E+02 -0.33870075281E+02  0.71783740207E+02  0.47000000000E+01 0. -1.
        -11    1    6    6    0    0  0.28712882469E+01  0.68654208918E+02 -0.62164906724E+02  0.92661320551E+02  0.00000000000E+00 0.  1.
         12    1    6    6    0    0 -0.68792472999E+01  0.23243710029E+02  0.24595251872E+02  0.34532890321E+02  0.00000000000E+00 0. -1.
         -5    1    3    3    0  503  0.20308335252E+02 -0.11265339582E+02 -0.95955495420E+02  0.98837662143E+02  0.47000000000E+01 0.  1.
         13    1    4    4    0    0 -0.61192010903E+02 -0.89472093640E+01 -0.24758671152E+02  0.66614612143E+02  0.00000000000E+00 0. -1.
        -14    1    4    4    0    0 -0.57708574225E+01 -0.34043036783E+02  0.31481218994E+02  0.46725777662E+02  0.00000000000E+00 0.  1.
</event>
<event>
12    1  0.8052519E-002  0.1741914E+03  0.7818608E-02  0.1174173E+00
         21   -1    0    0  501  502  0.00000000000E+00  0.00000000000E+00  0.27830545752E+03  0.27830545752E+03  0.00000000000E+00 0. -1.
         21   -1    0    0  502  503 -0.00000000000E+00 -0.00000000000E+00 -0.12472326664E+03  0.12472326664E+03  0.00000000000E+00 0. -1.
         -6    2    1    2    0  503  0.14097645516E+02  0.18610585068E+02  0.14154476524E+01  0.17173379327E+03  0.17013346165E+03 0.  0.
        -24    2    3    3    0    0 -0.29686802358E+02 -0.46339211501E+02  0.74549963744E-01  0.93251680939E+02  0.75281084500E+02 0.  0.
          6    2    1    2  501    0 -0.14097645516E+02 -0.18610585068E+02  0.15216674323E+03  0.23129493088E+03  0.17261961019E+03 0.  0.
         24    2    5    5    0    0 -0.17606442708E+02  0.49543592925E+02  0.49617524436E+02  0.10802394520E+03  0.80266553314E+02 0.  0.
          5    1    5    5  501    0  0.35087971918E+01 -0.68154177993E+02  0.10254921879E+03  0.12327098568E+03  0.47000000000E+01 0. -1.
        -13    1    6    6    0    0  0.16546469892E+02  0.58265322115E+02  0.34122029484E+02  0.69519395302E+02  0.00000000000E+00 0.  1.
         14    1    6    6    0    0 -0.34152912600E+02 -0.87217291901E+01  0.15495494952E+02  0.38504549899E+02  0.00000000000E+00 0. -1.
         -5    1    3    3    0  503  0.43784447874E+02  0.64949796569E+02  0.13408976887E+01  0.78482112335E+02  0.47000000000E+01 0.  1.
         11    1    4    4    0    0  0.16498202811E+02  0.23188100337E+01 -0.17231446756E+02  0.23968527975E+02  0.00000000000E+00 0. -1.
        -12    1    4    4    0    0 -0.46185005169E+02 -0.48658021534E+02  0.17305996720E+02  0.69283152964E+02  0.00000000000E+00 0.  1.
</event>
<event>
12    1  0.8052519E-002  0.1796290E+03  0.7818608E-02  0.1168352E+00
         21   -1    0    0  503  502  0.00000000000E+00  0.00000000000E+00  0.43013730279E+03  0.43013730279E+03  0.00000000000E+00 0. -1.
         21   -1    0    0  501  503 -0.00000000000E+00 -0.00000000000E+00 -0.10284788240E+03  0.10284788240E+03  0.00000000000E+00 0. -1.
          6    2    1    2  501    0 -0.45598000867E+02 -0.28093646211E+02  0.23944964191E+02  0.18044521801E+03  0.17064197828E+03 0.  0.
         24    2    3    3    0    0  0.10273958499E+02 -0.71889830323E+02  0.82770253379E+01  0.10759361615E+03  0.78956792994E+02 0.  0.
         -6    2    1    2    0  502  0.45598000867E+02  0.28093646211E+02  0.30334445620E+03  0.35253996717E+03  0.17145885427E+03 0.  0.
        -24    2    5    5    0    0  0.70695458778E+01  0.37600586122E+02  0.65780520435E+02  0.11163845758E+03  0.81684060780E+02 0.  0.
          5    1    3    3  501    0 -0.55871959366E+02  0.43796184112E+02  0.15667938853E+02  0.72851601864E+02  0.47000000000E+01 0. -1.
        -11    1    4    4    0    0 -0.69791910357E+01 -0.42782294978E+02 -0.32811672603E+02  0.54365795590E+02  0.00000000000E+00 0.  1.
         12    1    4    4    0    0  0.17253149535E+02 -0.29107535345E+02  0.41088697941E+02  0.53227820557E+02  0.00000000000E+00 0. -1.
         -5    1    5    5    0  502  0.38528454990E+02 -0.95069399106E+01  0.23756393576E+03  0.24090150960E+03  0.47000000000E+01 0.  1.
         11    1    6    6    0    0  0.29729437867E+02 -0.13110342939E+02  0.36438969151E+02  0.48821296999E+02  0.00000000000E+00 0. -1.
        -12    1    6    6    0    0 -0.22659891989E+02  0.50710929060E+02  0.29341551284E+02  0.62817160576E+02  0.00000000000E+00 0.  1.
</event>
<event>
12    1  0.8052519E-002  0.1760924E+03  0.7818608E-02  0.1171929E+00
         21   -1    0    0  503  502  0.00000000000E+00  0.00000000000E+00  0.69937017457E+03  0.69937017457E+03  0.00000000000E+00 0.  1.
         21   -1    0    0  501  503 -0.00000000000E+00 -0.00000000000E+00 -0.22400690515E+03  0.22400690515E+03  0.00000000000E+00 0. -1.
          6    2    1    2  501    0  0.94439650075E+01  0.26969834774E+02 -0.17628797203E+03  0.24835273856E+03  0.17258352529E+03 0.  0.
         24    2    3    3    0    0 -0.18517426652E+02  0.50463548869E+02 -0.38321689840E+02  0.10555715372E+03  0.82366837598E+02 0.  0.
         -6    2    1    2    0  502 -0.94439650075E+01 -0.26969834774E+02  0.65165124145E+03  0.67502434117E+03  0.17375833859E+03 0.  0.
        -24    2    5    5    0    0 -0.53154793678E+02 -0.59153521376E+02  0.51782188027E+03  0.53052930963E+03  0.83649731072E+02 0.  0.
          5    1    3    3  501    0  0.27961391660E+02 -0.23493714095E+02 -0.13796628219E+03  0.14279558483E+03  0.47000000000E+01 0. -1.
        -13    1    4    4    0    0 -0.28465589481E+02  0.30385357885E+01 -0.48240567003E+02  0.56095229646E+02  0.00000000000E+00 0.  1.
         14    1    4    4    0    0  0.99481628286E+01  0.47425013081E+02  0.99188771629E+01  0.49461924078E+02  0.00000000000E+00 0. -1.
         -5    1    5    5    0  502  0.43710828670E+02  0.32183686601E+02  0.13382936118E+03  0.14449503154E+03  0.47000000000E+01 0.  1.
         11    1    6    6    0    0 -0.36694279806E+02 -0.25507262651E+02  0.84481362310E+02  0.95572962684E+02  0.00000000000E+00 0. -1.
        -12    1    6    6    0    0 -0.16460513872E+02 -0.33646258725E+02  0.43334051796E+03  0.43495634694E+03  0.00000000000E+00 0.  1.
</event>
<event>
12    1  0.8052519E-002  0.3305586E+03  0.7818608E-02  0.1071109E+00
         21   -1    0    0  503  502  0.00000000000E+00  0.00000000000E+00  0.34700425081E+03  0.34700425081E+03  0.00000000000E+00 0.  1.
         21   -1    0    0  501  503 -0.00000000000E+00 -0.00000000000E+00 -0.93212400022E+03  0.93212400022E+03  0.00000000000E+00 0.  1.
          6    2    1    2  501    0  0.11264676240E+02  0.27978583604E+03 -0.81408851490E+03  0.87864049779E+03  0.17567585858E+03 0.  0.
         24    2    3    3    0    0 -0.36471903876E+02  0.17903319343E+03 -0.36973903875E+03  0.42049377127E+03  0.82005919139E+02 0.  0.
         -6    2    1    2    0  502 -0.11264676240E+02 -0.27978583604E+03  0.22896876549E+03  0.40048775324E+03  0.17192073159E+03 0.  0.
        -24    2    5    5    0    0  0.22352354234E+02 -0.28073408235E+03  0.21698241578E+03  0.36447710915E+03  0.80317753977E+02 0.  0.
          5    1    3    3  501    0  0.47736580115E+02  0.10075264261E+03 -0.44434947615E+03  0.45814672652E+03  0.47000000000E+01 0. -1.
        -13    1    4    4    0    0  0.20535169038E+01  0.15237651327E+03 -0.26368581810E+03  0.30455382020E+03  0.00000000000E+00 0.  1.
         14    1    4    4    0    0 -0.38525420779E+02  0.26656680155E+02 -0.10605322066E+03  0.11593995107E+03  0.00000000000E+00 0. -1.
         -5    1    5    5    0  502 -0.33617030474E+02  0.94824630658E+00  0.11986349708E+02  0.36010644097E+02  0.47000000000E+01 0.  1.
         11    1    6    6    0    0 -0.64944911077E+01 -0.27132260601E+02 -0.22807819174E+01  0.27991783548E+02  0.00000000000E+00 0. -1.
        -12    1    6    6    0    0  0.28846845342E+02 -0.25360182175E+03  0.21926319770E+03  0.33648532560E+03  0.00000000000E+00 0.  1.
</event>
<event>
12    1  0.8052519E-002  0.1864385E+03  0.7818608E-02  0.1161816E+00
         21   -1    0    0  503  502  0.00000000000E+00  0.00000000000E+00  0.20509309937E+03  0.20509309937E+03  0.00000000000E+00 0. -1.
         21   -1    0    0  501  503 -0.00000000000E+00 -0.00000000000E+00 -0.53452286076E+03  0.53452286076E+03  0.00000000000E+00 0. -1.
          6    2    1    2  501    0 -0.70444025428E+02 -0.57674163950E+01 -0.47042962629E+03  0.50586336905E+03  0.17204095748E+03 0.  0.
         24    2    3    3    0    0 -0.10506633811E+03 -0.64610459820E+01 -0.44059981772E+03  0.45991673548E+03  0.79463977270E+02 0.  0.
         -6    2    1    2    0  502  0.70444025428E+02  0.57674163950E+01  0.14099986490E+03  0.23375259108E+03  0.17252155843E+03 0.  0.
        -24    2    5    5    0    0  0.17176697015E+02  0.50340237881E+02  0.13174206103E+03  0.16352480723E+03  0.80964272767E+02 0.  0.
          5    1    3    3  501    0  0.34622312680E+02  0.69362958702E+00 -0.29829808568E+02  0.45946633571E+02  0.47000000000E+01 0. -1.
        -13    1    4    4    0    0 -0.63794608634E+01 -0.12401369453E+01  0.16946270718E+01  0.67161909937E+01  0.00000000000E+00 0.  1.
         14    1    4    4    0    0 -0.98686877244E+02 -0.52209090367E+01 -0.44229444479E+03  0.45320054449E+03  0.00000000000E+00 0. -1.
         -5    1    5    5    0  502  0.53267328413E+02 -0.44572821486E+02  0.92578038634E+01  0.70227783845E+02  0.47000000000E+01 0.  1.
         11    1    6    6    0    0  0.37924511313E+02  0.52554381660E+02  0.12630582063E+03  0.14196264267E+03  0.00000000000E+00 0. -1.
        -12    1    6    6    0    0 -0.20747814299E+02 -0.22141437791E+01  0.54362404089E+01  0.21562164563E+02  0.00000000000E+00 0.  1.
</event>
<event>
12    1  0.8052519E-002  0.1841807E+03  0.7818608E-02  0.1164450E+00
         21   -1    0    0  503  502  0.00000000000E+00  0.00000000000E+00  0.14012481233E+03  0.14012481233E+03  0.00000000000E+00 0. -1.
         21   -1    0    0  501  503 -0.00000000000E+00 -0.00000000000E+00 -0.25518372090E+03  0.25518372090E+03  0.00000000000E+00 0. -1.
          6    2    1    2  501    0  0.43554508249E+02  0.38131030430E+02 -0.67326887189E+01  0.18163327636E+03  0.17203007676E+03 0.  0.
         24    2    3    3    0    0  0.19362356177E+02 -0.45099591740E+02  0.10987116520E+02  0.93040510362E+02  0.78274809659E+02 0.  0.
         -6    2    1    2    0  502 -0.43554508249E+02 -0.38131030430E+02 -0.10832621986E+03  0.21367525688E+03  0.17484729001E+03 0.  0.
        -24    2    5    5    0    0 -0.78492702347E+02  0.14216431769E+02 -0.99326694490E+02  0.14992562423E+03  0.79048651537E+02 0.  0.
          5    1    3    3  501    0  0.24192152072E+02  0.83230622170E+02 -0.17719805239E+02  0.88592765993E+02  0.47000000000E+01 0. -1.
        -11    1    4    4    0    0 -0.24781031238E+02 -0.13967235717E+02  0.24294064549E+02  0.37408351409E+02  0.00000000000E+00 0.  1.
         12    1    4    4    0    0  0.44143387415E+02 -0.31132356022E+02 -0.13306948028E+02  0.55632158953E+02  0.00000000000E+00 0. -1.
         -5    1    5    5    0  502  0.34938194098E+02 -0.52347462199E+02 -0.89995253663E+01  0.63749632645E+02  0.47000000000E+01 0.  1.
         13    1    6    6    0    0 -0.32483418185E+02 -0.24566868034E+02 -0.95238680536E+01  0.41825919292E+02  0.00000000000E+00 0. -1.
        -14    1    6    6    0    0 -0.46009284162E+02  0.38783299803E+02 -0.89802826436E+02  0.10809970494E+03  0.00000000000E+00 0.  1.
</event>
<event>
12    1  0.8052519E-002  0.2600305E+03  0.7818608E-02  0.1107130E+00
         21   -1    0    0  501  502  0.00000000000E+00  0.00000000000E+00  0.36931312982E+02  0.36931312982E+02  0.00000000000E+00 0.  1.
         21   -1    0    0  502  503 -0.00000000000E+00 -0.00000000000E+00 -0.18398115888E+04  0.18398115888E+04  0.00000000000E+00 0. -1.
         -6    2    1    2    0  503  0.19256089138E+03  0.29387282761E+02 -0.96778364372E+03  0.10021082984E+04  0.17225722477E+03 0.  0.
        -24    2    3    3    0    0  0.13697248807E+03 -0.25899363580E+02 -0.47290040032E+03  0.50103126002E+03  0.89248503433E+02 0.  0.
          6    2    1    2  501    0 -0.19256089138E+03 -0.29387282761E+02 -0.83509663206E+03  0.87463460330E+03  0.17220916100E+03 0.  0.
         24    2    5    5    0    0 -0.78660266053E+02 -0.60871251433E+02 -0.57664182711E+03  0.59040658052E+03  0.78558174867E+02 0.  0.
          5    1    5    5  501    0 -0.11390062532E+03  0.31483968673E+02 -0.25845480495E+03  0.28422802278E+03  0.47000000000E+01 0. -1.
        -11    1    6    6    0    0  0.24483616058E+01  0.60951523718E+01 -0.17803211098E+03  0.17815324273E+03  0.00000000000E+00 0.  1.
         12    1    6    6    0    0 -0.81108627658E+02 -0.66966403805E+02 -0.39860971613E+03  0.41225333779E+03  0.00000000000E+00 0. -1.
         -5    1    3    3    0  503  0.55588403301E+02  0.55286646341E+02 -0.49488324340E+03  0.50107703843E+03  0.47000000000E+01 0.  1.
         11    1    4    4    0    0  0.11415447580E+03 -0.16801519657E+02 -0.45797713326E+03  0.47228867231E+03  0.00000000000E+00 0. -1.
        -12    1    4    4    0    0  0.22818012271E+02 -0.90978439236E+01 -0.14923267068E+02  0.28742587706E+02  0.00000000000E+00 0.  1.
</event>
<event>
12    1  0.8052519E-002  0.2667621E+03  0.7818608E-02  0.1103408E+00
         21   -1    0    0  503  502  0.00000000000E+00  0.00000000000E+00  0.65241816425E+02  0.65241816425E+02  0.00000000000E+00 0.  1.
         21   -1    0    0  501  503 -0.00000000000E+00 -0.00000000000E+00 -0.12990385474E+04  0.12990385474E+04  0.00000000000E+00 0.  1.
          6    2    1    2  501    0 -0.92849647550E+02 -0.18064543909E+03 -0.89306101513E+03  0.93154160224E+03  0.17017035065E+03 0.  0.
         24    2    3    3    0    0 -0.22302527073E+02 -0.14017721430E+03 -0.74432423911E+03  0.76195595436E+03  0.80070277485E+02 0.  0.
         -6    2    1    2    0  502  0.92849647550E+02  0.18064543909E+03 -0.34073571579E+03  0.43273876153E+03  0.17293980456E+03 0.  0.
        -24    2    5    5    0    0  0.85118553307E+02  0.16524837116E+03 -0.35584053611E+03  0.40934891083E+03  0.79949054812E+02 0.  0.
          5    1    3    3  501    0 -0.70547120477E+02 -0.40468224788E+02 -0.14873677602E+03  0.16958564788E+03  0.47000000000E+01 0. -1.
        -11    1    4    4    0    0 -0.29505088832E+02 -0.49493219041E+02 -0.45587197884E+03  0.45949906430E+03  0.00000000000E+00 0.  1.
         12    1    4    4    0    0  0.72025617593E+01 -0.90683995264E+02 -0.28845226027E+03  0.30245689006E+03  0.00000000000E+00 0. -1.
         -5    1    5    5    0  502  0.77310942433E+01  0.15397067933E+02  0.15104820322E+02  0.23389850707E+02  0.47000000000E+01 0.  1.
         13    1    6    6    0    0  0.24437505638E+00  0.84144184490E+02 -0.13078611548E+03  0.15551627409E+03  0.00000000000E+00 0. -1.
        -14    1    6    6    0    0  0.84874178250E+02  0.81104186670E+02 -0.22505442063E+03  0.25383263674E+03  0.00000000000E+00 0.  1.
</event>
<event>
12    1  0.8052519E-002  0.2408485E+03  0.7818608E-02  0.1120617E+00
         21   -1    0    0  501  502  0.00000000000E+00  0.00000000000E+00  0.30520698866E+03  0.30520698866E+03  0.00000000000E+00 0. -1.
         21   -1    0    0  502  503 -0.00000000000E+00 -0.00000000000E+00 -0.26101758899E+03  0.26101758899E+03  0.00000000000E+00 0.  1.
         -6    2    1    2    0  503  0.35136391081E+02  0.15208870967E+03 -0.13177282971E+03  0.27453975734E+03  0.18341880526E+03 0.  0.
        -24    2    3    3    0    0  0.44786004086E+02  0.64705462436E+01 -0.29160350757E+02  0.96076384658E+02  0.79578209969E+02 0.  0.
          6    2    1    2  501    0 -0.35136391081E+02 -0.15208870967E+03  0.17596222938E+03  0.29168482031E+03  0.17248706224E+03 0.  0.
         24    2    5    5    0    0 -0.36841303364E+02 -0.31589301541E+02  0.13301997329E+03  0.16366473811E+03  0.82077205134E+02 0.  0.
          5    1    5    5  501    0  0.17049122830E+01 -0.12049940813E+03  0.42942256090E+02  0.12802008219E+03  0.47000000000E+01 0. -1.
        -13    1    6    6    0    0 -0.14272706696E+02  0.26572342435E+02  0.63224944096E+02  0.70051360407E+02  0.00000000000E+00 0.  1.
         14    1    6    6    0    0 -0.22568596669E+02 -0.58161643977E+02  0.69795029193E+02  0.93613377707E+02  0.00000000000E+00 0. -1.
         -5    1    3    3    0  503 -0.96496130046E+01  0.14561816343E+03 -0.10261247895E+03  0.17846337268E+03  0.47000000000E+01 0.  1.
         11    1    4    4    0    0  0.48680688850E+01  0.33626367010E+02  0.82913264200E+01  0.34973943826E+02  0.00000000000E+00 0. -1.
        -12    1    4    4    0    0  0.39917935201E+02 -0.27155820766E+02 -0.37451677177E+02  0.61102440832E+02  0.00000000000E+00 0.  1.
</event>
<event>
12    1  0.8052519E-002  0.2062338E+03  0.7818608E-02  0.1144646E+00
         21   -1    0    0  503  502  0.00000000000E+00  0.00000000000E+00  0.52459562105E+03  0.52459562105E+03  0.00000000000E+00 0.  1.
         21   -1    0    0  501  503 -0.00000000000E+00 -0.00000000000E+00 -0.10294229193E+03  0.10294229193E+03  0.00000000000E+00 0. -1.
          6    2    1    2  501    0  0.10834520847E+03 -0.33662969320E+02  0.65940318591E+02  0.21651910035E+03  0.17222228514E+03 0.  0.
         24    2    3    3    0    0  0.14425590806E+02 -0.58089446092E+02  0.64712804247E+02  0.11935355017E+03  0.80467642492E+02 0.  0.
         -6    2    1    2    0  502 -0.10834520847E+03  0.33662969320E+02  0.35571301053E+03  0.41101881264E+03  0.17185121116E+03 0.  0.
        -24    2    5    5    0    0 -0.69487715987E+02  0.46348092679E+02  0.10169937746E+03  0.15369443979E+03  0.79388469422E+02 0.  0.
          5    1    3    3  501    0  0.93919617662E+02  0.24426476772E+02  0.12275143438E+01  0.97165550175E+02  0.47000000000E+01 0. -1.
        -11    1    4    4    0    0  0.46349605491E+02 -0.20055700440E+02  0.29607486628E+02  0.58541611814E+02  0.00000000000E+00 0.  1.
         12    1    4    4    0    0 -0.31924014685E+02 -0.38033745653E+02  0.35105317619E+02  0.60811938360E+02  0.00000000000E+00 0. -1.
         -5    1    5    5    0  502 -0.38857492481E+02 -0.12685123359E+02  0.25401363307E+03  0.25732437285E+03  0.47000000000E+01 0.  1.
         11    1    6    6    0    0 -0.72240079523E+02  0.41738595410E+01  0.56431317342E+02  0.91763520911E+02  0.00000000000E+00 0. -1.
        -12    1    6    6    0    0  0.27523635356E+01  0.42174233138E+02  0.45268060122E+02  0.61930918878E+02  0.00000000000E+00 0.  1.
</event>
<event>
12    1  0.8052519E-002  0.1987717E+03  0.7818608E-02  0.1151138E+00
         21   -1    0    0  503  502  0.00000000000E+00  0.00000000000E+00  0.51120387894E+03  0.51120387894E+03  0.00000000000E+00 0. -1.
         21   -1    0    0  501  503 -0.00000000000E+00 -0.00000000000E+00 -0.79758165636E+02  0.79758165636E+02  0.00000000000E+00 0. -1.
          6    2    1    2  501    0  0.30256710912E+02 -0.90467245064E+02  0.27329976034E+03  0.33695348738E+03  0.17246768586E+03 0.  0.
         24    2    3    3    0    0  0.65499044518E+02 -0.65844270384E+02  0.26676472695E+03  0.29321437877E+03  0.78648964391E+02 0.  0.
         -6    2    1    2    0  502 -0.30256710912E+02  0.90467245064E+02  0.15814595296E+03  0.25400855720E+03  0.17438581854E+03 0.  0.
        -24    2    5    5    0    0  0.17045682728E+02  0.87258332807E+02  0.16742496223E+03  0.20546987598E+03  0.79260204460E+02 0.  0.
          5    1    3    3  501    0 -0.35242333606E+02 -0.24622974680E+02  0.65350333949E+01  0.43739108605E+02  0.47000000000E+01 0. -1.
        -13    1    4    4    0    0  0.77338652636E+02 -0.28975375492E+02  0.17036655675E+03  0.18932935123E+03  0.00000000000E+00 0.  1.
         14    1    4    4    0    0 -0.11839608118E+02 -0.36868894892E+02  0.96398170194E+02  0.10388502754E+03  0.00000000000E+00 0. -1.
         -5    1    5    5    0  502 -0.47302393640E+02  0.32089122564E+01 -0.92790092701E+01  0.48538681224E+02  0.47000000000E+01 0.  1.
         13    1    6    6    0    0 -0.27223939433E+02  0.45974189937E+02  0.10875354908E+03  0.12116972995E+03  0.00000000000E+00 0. -1.
        -14    1    6    6    0    0  0.44269622161E+02  0.41284142870E+02  0.58671413156E+02  0.84300146029E+02  0.00000000000E+00 0.  1.
</event>
<event>
12    1  0.8052519E-002  0.2057143E+03  0.7818608E-02  0.1145549E+00
         21   -1    0    0  501  502  0.00000000000E+00  0.00000000000E+00  0.30270408603E+03  0.30270408603E+03  0.00000000000E+00 0.  1.
         21   -1    0    0  502  503 -0.00000000000E+00 -0.00000000000E+00 -0.13963268937E+03  0.13963268937E+03  0.00000000000E+00 0.  1.
         -6    2    1    2    0  503  0.25726222552E+02 -0.10545765200E+03  0.58167857719E+02  0.21377998431E+03  0.17474331784E+03 0.  0.
        -24    2    3    3    0    0 -0.11348077192E+02 -0.60552885042E+02 -0.31864216480E+02  0.10645428291E+03  0.80757385512E+02 0.  0.
          6    2    1    2  501    0 -0.25726222552E+02  0.10545765200E+03  0.10490353895E+03  0.22855679109E+03  0.17161089527E+03 0.  0.
         24    2    5    5    0    0 -0.44228171640E+02  0.11937658674E+03  0.34298673035E+02  0.15410414873E+03  0.79779628072E+02 0.  0.
          5    1    5    5  501    0  0.18501949088E+02 -0.13918934735E+02  0.70604865913E+02  0.74452642363E+02  0.47000000000E+01 0. -1.
        -11    1    6    6    0    0 -0.60828494043E+02  0.64083019598E+02  0.38158645265E+02  0.96243551975E+02  0.00000000000E+00 0.  1.
         12    1    6    6    0    0  0.16600322403E+02  0.55293567137E+02 -0.38599722306E+01  0.57860596750E+02  0.00000000000E+00 0. -1.
         -5    1    3    3    0  503  0.37074299744E+02 -0.44904766958E+02  0.90032074199E+02  0.10732570140E+03  0.47000000000E+01 0.  1.
         13    1    4    4    0    0 -0.20577622066E+02 -0.33074156280E+01 -0.42654588450E+02  0.47474113408E+02  0.00000000000E+00 0. -1.
        -14    1    4    4    0    0  0.92295448740E+01 -0.57245469414E+02  0.10790371970E+02  0.58980169501E+02  0.00000000000E+00 0.  1.
</event>
<event>
12    1  0.8052519E-002  0.2508712E+03  0.7818608E-02  0.1113672E+00
         21   -1    0    0  503  502  0.00000000000E+00  0.00000000000E+00  0.11220846239E+04  0.11220846239E+04  0.00000000000E+00 0.  1.
         21   -1    0    0  501  503 -0.00000000000E+00 -0.00000000000E+00 -0.77884106125E+02  0.77884106125E+02  0.00000000000E+00 0. -1.
          6    2    1    2  501    0  0.13486676617E+03  0.11509864172E+03  0.19980199594E+03  0.32071359444E+03  0.17748135151E+03 0.  0.
         24    2    3    3    0    0 -0.97174905785E+01  0.32567498623E+02  0.62833119450E+02  0.10507834684E+03  0.77060927097E+02 0.  0.
         -6    2    1    2    0  502 -0.13486676617E+03 -0.11509864172E+03  0.84439852182E+03  0.87925513557E+03  0.16924534802E+03 0.  0.
        -24    2    5    5    0    0 -0.46092263119E+02  0.43822808043E-01  0.22038740307E+03  0.23851285832E+03  0.78697379319E+02 0.  0.
          5    1    3    3  501    0  0.14458425675E+03  0.82531143099E+02  0.13696887649E+03  0.21563524760E+03  0.47000000000E+01 0. -1.
        -11    1    4    4    0    0  0.34173770101E+01 -0.16704466479E+02  0.49524738329E+02  0.52377641914E+02  0.00000000000E+00 0.  1.
         12    1    4    4    0    0 -0.13134867589E+02  0.49271965101E+02  0.13308381121E+02  0.52700704925E+02  0.00000000000E+00 0. -1.
         -5    1    5    5    0  502 -0.88774503054E+02 -0.11514246453E+03  0.62401111875E+03  0.64074227725E+03  0.47000000000E+01 0.  1.
         11    1    6    6    0    0 -0.17700062644E+02  0.38672139472E+02  0.11875539175E+03  0.12614146685E+03  0.00000000000E+00 0. -1.
        -12    1    6    6    0    0 -0.28392200476E+02 -0.38628316664E+02  0.10163201132E+03  0.11237139147E+03  0.00000000000E+00 0.  1.
</event>
<event>
12    1  0.8052519E-002  0.2074848E+03  0.7818608E-02  0.1143964E+00
         21   -1    0    0  503  502  0.00000000000E+00  0.00000000000E+00  0.97488239857E+03  0.97488239857E+03  0.00000000000E+00 0. -1.
         21   -1    0    0  501  503 -0.00000000000E+00 -0.00000000000E+00 -0.45580838645E+02  0.45580838645E+02  0.00000000000E+00 0.  1.
          6    2    1    2  501    0 -0.96801934381E+02 -0.54222407908E+02  0.36027107966E+03  0.41478542372E+03  0.17303471579E+03 0.  0.
         24    2    3    3    0    0 -0.10131366534E+03  0.20304715768E+02  0.22284476816E+03  0.25831584529E+03  0.79940884192E+02 0.  0.
         -6    2    1    2    0  502  0.96801934381E+02  0.54222407908E+02  0.56903048026E+03  0.60567781350E+03  0.17532610267E+03 0.  0.
        -24    2    5    5    0    0  0.25764249239E+02  0.11842853863E+02  0.11007872908E+03  0.13930759658E+03  0.80530926627E+02 0.  0.
          5    1    3    3  501    0  0.45117309570E+01 -0.74527123677E+02  0.13742631150E+03  0.15646957843E+03  0.47000000000E+01 0. -1.
        -13    1    4    4    0    0 -0.20238383695E+01 -0.63240233999E-01 -0.69082061558E+01  0.71988355561E+01  0.00000000000E+00 0.  1.
         14    1    4    4    0    0 -0.99289826968E+02  0.20367956002E+02  0.22975297431E+03  0.25111700973E+03  0.00000000000E+00 0. -1.
         -5    1    5    5    0  502  0.71037685142E+02  0.42379554045E+02  0.45895175119E+03  0.46637021692E+03  0.47000000000E+01 0.  1.
         13    1    6    6    0    0  0.11040617600E+02 -0.23559139815E+02  0.94338893693E+02  0.97860897038E+02  0.00000000000E+00 0. -1.
        -14    1    6    6    0    0  0.14723631638E+02  0.35401993678E+02  0.15739835382E+02  0.41446699541E+02  0.00000000000E+00 0.  1.
</event>
<event>
12    1  0.8052519E-002  0.1803750E+03  0.7818608E-02  0.1167814E+00
         21   -1    0    0  501  502  0.00000000000E+00  0.00000000000E+00  0.26302530412E+03  0.26302530412E+03  0.00000000000E+00 0.  1.
         21   -1    0    0  502  503 -0.00000000000E+00 -0.00000000000E+00 -0.12767207754E+03  0.12767207754E+03  0.00000000000E+00 0.  1.
         -6    2    1    2    0  503  0.38513463516E+02  0.34313885100E+02  0.10617655300E+03  0.20797790668E+03  0.17123264782E+03 0.  0.
        -24    2    3    3    0    0  0.54296852924E+02  0.28905602410E+02  0.87651379164E+00  0.10126074236E+03  0.80431881608E+02 0.  0.
          6    2    1    2  501    0 -0.38513463516E+02 -0.34313885100E+02  0.29176673570E+02  0.18271947498E+03  0.17284212065E+03 0.  0.
         24    2    5    5    0    0 -0.22284251847E+02 -0.27080287106E+02 -0.51184517773E+02  0.10028329769E+03  0.78784231329E+02 0.  0.
          5    1    5    5  501    0 -0.16229211669E+02 -0.72335979940E+01  0.80361191343E+02  0.82436177285E+02  0.47000000000E+01 0. -1.
        -11    1    6    6    0    0 -0.19027091951E+01 -0.36094338555E+02  0.80197430317E+01  0.37023477096E+02  0.00000000000E+00 0.  1.
         12    1    6    6    0    0 -0.20381542651E+02  0.90140514482E+01 -0.59204260804E+02  0.63259820595E+02  0.00000000000E+00 0. -1.
         -5    1    3    3    0  503 -0.15783389409E+02  0.54082826899E+01  0.10530003921E+03  0.10671716432E+03  0.47000000000E+01 0.  1.
         13    1    4    4    0    0  0.50326697257E+02 -0.18158104659E+02  0.55986432686E+01  0.53794405174E+02  0.00000000000E+00 0. -1.
        -14    1    4    4    0    0  0.39701556677E+01  0.47063707070E+02 -0.47221294770E+01  0.47466337187E+02  0.00000000000E+00 0.  1.
</event>
<event>
12    1  0.8052519E-002  0.1761145E+03  0.7818608E-02  0.1171921E+00
         21   -1    0    0  501  502  0.00000000000E+00  0.00000000000E+00  0.83643050713E+03  0.83643050713E+03  0.00000000000E+00 0.  1.
         21   -1    0    0  502  503 -0.00000000000E+00 -0.00000000000E+00 -0.11988642023E+03  0.11988642023E+03  0.00000000000E+00 0.  1.
         -6    2    1    2    0  503 -0.70361017588E+01  0.36690279959E+02 -0.39346539778E+02  0.18045630524E+03  0.17210649185E+03 0.  0.
        -24    2    3    3    0    0  0.18976935599E+02  0.41981586221E+02  0.36754542629E+02  0.99721301818E+02  0.80441680527E+02 0.  0.
          6    2    1    2  501    0  0.70361017588E+01 -0.36690279959E+02  0.75589062668E+03  0.77586062211E+03  0.17086070958E+03 0.  0.
         24    2    5    5    0    0  0.24535250941E+02 -0.34961635575E+02  0.75138459071E+03  0.75710954765E+03  0.82533444635E+02 0.  0.
          5    1    5    5  501    0 -0.17499149182E+02 -0.17286443836E+01  0.45060359658E+01  0.18751074466E+02  0.47000000000E+01 0. -1.
        -11    1    6    6    0    0 -0.15218871114E+02 -0.33884265035E+02  0.57929122641E+03  0.58048090619E+03  0.00000000000E+00 0.  1.
         12    1    6    6    0    0  0.39754122055E+02 -0.10773705405E+01  0.17209336430E+03  0.17662864146E+03  0.00000000000E+00 0. -1.
         -5    1    3    3    0  503 -0.26013037358E+02 -0.52913062622E+01 -0.76101082407E+02  0.80735003425E+02  0.47000000000E+01 0.  1.
         13    1    4    4    0    0  0.38680760621E+02  0.56240391767E+02  0.29315922547E+02  0.74287322089E+02  0.00000000000E+00 0. -1.
        -14    1    4    4    0    0 -0.19703825023E+02 -0.14258805546E+02  0.74386200825E+01  0.25433979729E+02  0.00000000000E+00 0.  1.
</event>
<event>
12    1  0.8052519E-002  0.2599786E+03  0.7818608E-02  0.1107641E+00
         21   -1    0    0  503  502  0.00000000000E+00  0.00000000000E+00  0.58242549892E+02  0.58242549892E+02  0.00000000000E+00 0.  1.
         21   -1    0    0  501  503 -0.00000000000E+00 -0.00000000000E+00 -0.12326731899E+04  0.12326731899E+04  0.00000000000E+00 0. -1.
          6    2    1    2  501    0 -0.18328092327E+03  0.65629564224E+02 -0.76154043328E+03  0.80469415421E+03  0.17230703343E+03 0.  0.
         24    2    3    3    0    0 -0.18003373040E+03  0.10225129189E+03 -0.66443830742E+03  0.70075855855E+03  0.81956221487E+02 0.  0.
         -6    2    1    2    0  502  0.18328092327E+03 -0.65629564224E+02 -0.41289020670E+03  0.48622158555E+03  0.16743348212E+03 0.  0.
        -24    2    5    5    0    0  0.69590751907E+02 -0.73695913126E+02 -0.24343848355E+03  0.28195093782E+03  0.99800178853E+02 0.  0.
          5    1    3    3  501    0 -0.32471928693E+01 -0.36621727669E+02 -0.97102125855E+02  0.10393559566E+03  0.47000000000E+01 0. -1.
        -11    1    4    4    0    0 -0.39649449915E+02  0.36047951908E+02 -0.29838634329E+03  0.30315993069E+03  0.00000000000E+00 0.  1.
         12    1    4    4    0    0 -0.14038428048E+03  0.66203339986E+02 -0.36605196413E+03  0.39759862786E+03  0.00000000000E+00 0. -1.
         -5    1    5    5    0  502  0.11369017136E+03  0.80663489014E+01 -0.16945172315E+03  0.20427064774E+03  0.47000000000E+01 0.  1.
         13    1    6    6    0    0  0.90210275881E+02 -0.65732471848E+02 -0.23108322566E+03  0.25662834783E+03  0.00000000000E+00 0. -1.
        -14    1    6    6    0    0 -0.20619523974E+02 -0.79634412772E+01 -0.12355257890E+02  0.25322589982E+02  0.00000000000E+00 0.  1.
</event>
<event>
12    1  0.8052519E-002  0.2186721E+03  0.7818608E-02  0.1135514E+00
         21   -1    0    0  503  502  0.00000000000E+00  0.00000000000E+00  0.25015244930E+03  0.25015244930E+03  0.00000000000E+00 0.  1.
         21   -1    0    0  501  503 -0.00000000000E+00 -0.00000000000E+00 -0.25650858073E+03  0.25650858073E+03  0.00000000000E+00 0. -1.
          6    2    1    2  501    0  0.77501910789E+02  0.10709491911E+03 -0.13389957163E+03  0.25641100075E+03  0.17418851325E+03 0.  0.
         24    2    3    3    0    0 -0.22110448238E+02  0.81833516436E+02 -0.63671216116E+02  0.13185228988E+03  0.78392641564E+02 0.  0.
         -6    2    1    2    0  502 -0.77501910789E+02 -0.10709491911E+03  0.12754344020E+03  0.25025002927E+03  0.16994669793E+03 0.  0.
        -24    2    5    5    0    0  0.17216065322E+02 -0.15263746614E+02  0.62825524775E+02  0.10322976598E+03  0.78612741686E+02 0.  0.
          5    1    3    3  501    0  0.99612359026E+02  0.25261402678E+02 -0.70228355513E+02  0.12455871087E+03  0.47000000000E+01 0. -1.
        -11    1    4    4    0    0 -0.30923630430E+02 -0.94158166477E+00 -0.88493641784E+01  0.32178700119E+02  0.00000000000E+00 0.  1.
         12    1    4    4    0    0  0.88131821921E+01  0.82775098101E+02 -0.54821851938E+02  0.99673589761E+02  0.00000000000E+00 0. -1.
         -5    1    5    5    0  502 -0.94717976111E+02 -0.91831172501E+02  0.64717915421E+02  0.14702026329E+03  0.47000000000E+01 0.  1.
         13    1    6    6    0    0 -0.23231074017E+02  0.12634031994E+02  0.42644451954E+01  0.26785948877E+02  0.00000000000E+00 0. -1.
        -14    1    6    6    0    0  0.40447139339E+02 -0.27897778608E+02  0.58561079579E+02  0.76443817104E+02  0.00000000000E+00 0.  1.
</event>
<event>
12    1  0.8052519E-002  0.2190181E+03  0.7818608E-02  0.1134681E+00
         21   -1    0    0  503  502  0.00000000000E+00  0.00000000000E+00  0.20016288767E+03  0.20016288767E+03  0.00000000000E+00 0. -1.
         21   -1    0    0  501  503 -0.00000000000E+00 -0.00000000000E+00 -0.23992716195E+03  0.23992716195E+03  0.00000000000E+00 0.  1.
          6    2    1    2  501    0  0.13124227852E+03 -0.32194198338E+02 -0.31328986669E+02  0.22124743231E+03  0.17235985269E+03 0.  0.
         24    2    3    3    0    0  0.77896809408E+02 -0.84767639873E+02 -0.39380275647E+02  0.14577148194E+03  0.80281088381E+02 0.  0.
         -6    2    1    2    0  502 -0.13124227852E+03  0.32194198338E+02 -0.84352876080E+01  0.21884261732E+03  0.17193002937E+03 0.  0.
        -24    2    5    5    0    0 -0.15754592873E+03  0.52823168506E+02 -0.21440472473E+01  0.18450450249E+03  0.80164254560E+02 0.  0.
          5    1    3    3  501    0  0.53345469110E+02  0.52573441535E+02  0.80512889780E+01  0.75475950365E+02  0.47000000000E+01 0. -1.
        -11    1    4    4    0    0  0.90780603373E+02 -0.53253861762E+02 -0.37301348247E+02  0.11166235857E+03  0.00000000000E+00 0.  1.
         12    1    4    4    0    0 -0.12883793965E+02 -0.31513778111E+02 -0.20789274007E+01  0.34109123367E+02  0.00000000000E+00 0. -1.
         -5    1    5    5    0  502  0.26303650213E+02 -0.20628970168E+02 -0.62912403607E+01  0.34338114829E+02  0.47000000000E+01 0.  1.
         13    1    6    6    0    0  0.49153752968E+01 -0.47486171521E+01  0.95545450743E+01  0.11747323557E+02  0.00000000000E+00 0. -1.
        -14    1    6    6    0    0 -0.16246130403E+03  0.57571785658E+02 -0.11698592322E+02  0.17275717893E+03  0.00000000000E+00 0.  1.
</event>
<event>
12    1  0.8052519E-002  0.2247809E+03  0.7818608E-02  0.1130432E+00
         21   -1    0    0  503  502  0.00000000000E+00  0.00000000000E+00  0.19308185261E+03  0.19308185261E+03  0.00000000000E+00 0.  1.
         21   -1    0    0  501  503 -0.00000000000E+00 -0.00000000000E+00 -0.26917816400E+03  0.26917816400E+03  0.00000000000E+00 0. -1.
          6    2    1    2  501    0  0.12957722557E+03  0.65224580288E+02 -0.77622363445E+02  0.23747388738E+03  0.17124284692E+03 0.  0.
         24    2    3    3    0    0  0.81697159065E+02 -0.92155544835E+01  0.10344620875E+02  0.11259748944E+03  0.76235367138E+02 0.  0.
         -6    2    1    2    0  502 -0.12957722557E+03 -0.65224580288E+02  0.15260520538E+01  0.22478612923E+03  0.17170315024E+03 0.  0.
        -24    2    5    5    0    0 -0.66155810904E+02 -0.81544890490E+02 -0.49695052931E+02  0.14151356497E+03  0.80810459123E+02 0.  0.
          5    1    3    3  501    0  0.47880066502E+02  0.74440134771E+02 -0.87966984320E+02  0.12487639794E+03  0.47000000000E+01 0. -1.
        -13    1    4    4    0    0 -0.45239330114E+00  0.15975958274E+01  0.27859043903E+02  0.27908480778E+02  0.00000000000E+00 0.  1.
         14    1    4    4    0    0  0.82149552366E+02 -0.10813150311E+02 -0.17514423028E+02  0.84689008659E+02  0.00000000000E+00 0. -1.
         -5    1    5    5    0  502 -0.63421414664E+02  0.16320310202E+02  0.51221104985E+02  0.83272564263E+02  0.47000000000E+01 0.  1.
         11    1    6    6    0    0 -0.75069984550E+02 -0.62149391267E+02 -0.11999611078E+02  0.98193890244E+02  0.00000000000E+00 0. -1.
        -12    1    6    6    0    0  0.89141736469E+01 -0.19395499223E+02 -0.37695441853E+02  0.43319674727E+02  0.00000000000E+00 0.  1.
</event>
<event>
12    1  0.8052519E-002  0.1836233E+03  0.7818608E-02  0.1164555E+00
         21   -1    0    0  501  502  0.00000000000E+00  0.00000000000E+00  0.19369846620E+03  0.19369846620E+03  0.00000000000E+00 0. -1.
         21   -1    0    0  502  503 -0.00000000000E+00 -0.00000000000E+00 -0.29718442166E+03  0.29718442166E+03  0.00000000000E+00 0. -1.
         -6    2    1    2    0  503  0.72482629254E+01  0.63254921143E+02 -0.21033848830E+03  0.27921280044E+03  0.17223177960E+03 0.  0.
        -24    2    3    3    0    0  0.40596357803E+02  0.65950372456E+02 -0.69502759577E+02  0.13438133502E+03  0.85030545804E+02 0.  0.
          6    2    1    2  501    0 -0.72482629254E+01 -0.63254921143E+02  0.10685253284E+03  0.21167008743E+03  0.17126891070E+03 0.  0.
         24    2    5    5    0    0  0.45437498656E+01 -0.47904373643E+02 -0.92671623821E+01  0.93854279946E+02  0.80045430154E+02 0.  0.
          5    1    5    5  501    0 -0.11792012791E+02 -0.15350547500E+02  0.11611969522E+03  0.11781580748E+03  0.47000000000E+01 0. -1.
        -11    1    6    6    0    0  0.16648118845E+02 -0.61958236651E+02 -0.25663178768E+02  0.69098347987E+02  0.00000000000E+00 0.  1.
         12    1    6    6    0    0 -0.12104368979E+02  0.14053863008E+02  0.16396016386E+02  0.24755931959E+02  0.00000000000E+00 0. -1.
         -5    1    3    3    0  503 -0.33348094878E+02 -0.26954513128E+01 -0.14083572872E+03  0.14483146541E+03  0.47000000000E+01 0.  1.
         13    1    4    4    0    0 -0.15843039596E+02  0.28022990110E+02 -0.56680002518E+02  0.65183683264E+02  0.00000000000E+00 0. -1.
        -14    1    4    4    0    0  0.56439397399E+02  0.37927382345E+02 -0.12822757059E+02  0.69197651759E+02  0.00000000000E+00 0.  1.
</event>
<event>
12    1  0.8052519E-002  0.1966914E+03  0.7818608E-02  0.1153302E+00
         21   -1    0    0  503  502  0.00000000000E+00  0.00000000000E+00  0.13944919049E+03  0.13944919049E+03  0.00000000000E+00 0. -1.
         21   -1    0    0  501  503 -0.00000000000E+00 -0.00000000000E+00 -0.27370024278E+03  0.27370024278E+03  0.00000000000E+00 0.  1.
          6    2    1    2  501    0  0.78756744790E+02  0.49277020261E+02 -0.54897252313E+02  0.20420880055E+03  0.17336861405E+03 0.  0.
         24    2    3    3    0    0  0.56267716053E+02 -0.11078527452E+02 -0.87715830181E+02  0.13176780659E+03  0.79874265872E+02 0.  0.
         -6    2    1    2    0  502 -0.78756744790E+02 -0.49277020261E+02 -0.79353799975E+02  0.20894063271E+03  0.16949428560E+03 0.  0.
        -24    2    5    5    0    0  0.35267377161E+01 -0.28247017850E+02  0.11269111328E+02  0.84652923957E+02  0.78922701221E+02 0.  0.
          5    1    3    3  501    0  0.22489028737E+02  0.60355547713E+02  0.32818577869E+02  0.72440993965E+02  0.47000000000E+01 0. -1.
        -11    1    4    4    0    0  0.74717134034E+02 -0.14322435461E+02 -0.54329081385E+02  0.93484925843E+02  0.00000000000E+00 0.  1.
         12    1    4    4    0    0 -0.18449417981E+02  0.32439080087E+01 -0.33386748796E+02  0.38282880746E+02  0.00000000000E+00 0. -1.
         -5    1    5    5    0  502 -0.82283482506E+02 -0.21030002411E+02 -0.90622911303E+02  0.12428770876E+03  0.47000000000E+01 0.  1.
         11    1    6    6    0    0 -0.10334252784E+02 -0.53823163853E+02  0.70479083225E+01  0.55257603635E+02  0.00000000000E+00 0. -1.
        -12    1    6    6    0    0  0.13860990500E+02  0.25576146003E+02  0.42212030050E+01  0.29395320322E+02  0.00000000000E+00 0.  1.
</event>
<event>
12    1  0.8052519E-002  0.2405588E+03  0.7818608E-02  0.1119511E+00
         21   -1    0    0  501  502  0.00000000000E+00  0.00000000000E+00  0.26525628191E+03  0.26525628191E+03  0.00000000000E+00 0.  1.
         21   -1    0    0  502  503 -0.00000000000E+00 -0.00000000000E+00 -0.27067737716E+03  0.27067737716E+03  0.00000000000E+00 0.  1.
         -6    2    1    2    0  503 -0.16498559583E+03  0.33721417249E+02 -0.12128749480E+03  0.26892515495E+03  0.17103421224E+03 0.  0.
        -24    2    3    3    0    0 -0.16939522881E+02  0.41737350215E+02 -0.28689035217E+02  0.94058178036E+02  0.77426909246E+02 0.  0.
          6    2    1    2  501    0  0.16498559583E+03 -0.33721417249E+02  0.11586639955E+03  0.26700850413E+03  0.17178806104E+03 0.  0.
         24    2    5    5    0    0  0.17945702306E+03 -0.57063445591E+02  0.12362783351E+03  0.23808442505E+03  0.77066804056E+02 0.  0.
          5    1    5    5  501    0 -0.14471427226E+02  0.23342028343E+02 -0.77614339584E+01  0.28924079073E+02  0.47000000000E+01 0. -1.
        -13    1    6    6    0    0  0.11404298773E+03 -0.66798850755E+02  0.10658604547E+03  0.16978950086E+03  0.00000000000E+00 0.  1.
         14    1    6    6    0    0  0.65414035326E+02  0.97354051635E+01  0.17041788041E+02  0.68294924196E+02  0.00000000000E+00 0. -1.
         -5    1    3    3    0  503 -0.14804607295E+03 -0.80159329660E+01 -0.92598459585E+02  0.17486697691E+03  0.47000000000E+01 0.  1.
         13    1    4    4    0    0 -0.48909858900E+01 -0.56351578927E+01  0.22245289322E+02  0.23463368140E+02  0.00000000000E+00 0. -1.
        -14    1    4    4    0    0 -0.12048536991E+02  0.47372508107E+02 -0.50934324539E+02  0.70594809896E+02  0.00000000000E+00 0.  1.
</event>
<event>
12    1  0.8052519E-002  0.1797779E+03  0.7818608E-02  0.1170862E+00
         21   -1    0    0  501  502  0.00000000000E+00  0.00000000000E+00  0.17319501830E+03  0.17319501830E+03  0.00000000000E+00 0.  1.
         21   -1    0    0  502  503 -0.00000000000E+00 -0.00000000000E+00 -0.20385270235E+03  0.20385270235E+03  0.00000000000E+00 0.  1.
         -6    2    1    2    0  503 -0.20890718300E+02  0.47772226866E+02 -0.85755310275E+02  0.18901619779E+03  0.16017035311E+03 0.  0.
        -24    2    3    3    0    0  0.44139988188E+02  0.10474980786E+02 -0.39216506488E+02  0.10065315342E+03  0.80839712598E+02 0.  0.
          6    2    1    2  501    0  0.20890718300E+02 -0.47772226866E+02  0.55097626233E+02  0.18803152286E+03  0.17205085703E+03 0.  0.
         24    2    5    5    0    0  0.52195406686E+02 -0.62085042822E+02 -0.95468571373E+01  0.11464324420E+03  0.80455067817E+02 0.  0.
          5    1    5    5  501    0 -0.31304688386E+02  0.14312815956E+02  0.64644483370E+02  0.73388278667E+02  0.47000000000E+01 0. -1.
        -11    1    6    6    0    0  0.21804264835E+02 -0.16401317677E+02 -0.42599337892E+02  0.50587871821E+02  0.00000000000E+00 0.  1.
         12    1    6    6    0    0  0.30391141851E+02 -0.45683725145E+02  0.33052480755E+02  0.64055372376E+02  0.00000000000E+00 0. -1.
         -5    1    3    3    0  503 -0.65030706487E+02  0.37297246080E+02 -0.46538803788E+02  0.88363044365E+02  0.47000000000E+01 0.  1.
         11    1    4    4    0    0  0.36193871716E+02 -0.28807167431E+02 -0.25428492382E+01  0.46328342593E+02  0.00000000000E+00 0. -1.
        -12    1    4    4    0    0  0.79461164720E+01  0.39282148217E+02 -0.36673657250E+02  0.54324810829E+02  0.00000000000E+00 0.  1.
</event>
<event>
12    1  0.8052519E-002  0.1832114E+03  0.7818608E-02  0.1165379E+00
         21   -1    0    0  503  502  0.00000000000E+00  0.00000000000E+00  0.11489119118E+03  0.11489119118E+03  0.00000000000E+00 0. -1.
         21   -1    0    0  501  503 -0.00000000000E+00 -0.00000000000E+00 -0.56887915660E+03  0.56887915660E+03  0.00000000000E+00 0. -1.
          6    2    1    2  501    0  0.15910446716E+02  0.62116893869E+02 -0.46643284020E+03  0.50013680735E+03  0.16871745860E+03 0.  0.
         24    2    3    3    0    0  0.61574213884E+02  0.44337433155E+02 -0.41130867658E+03  0.42623110886E+03  0.82103221234E+02 0.  0.
         -6    2    1    2    0  502 -0.15910446716E+02 -0.62116893869E+02  0.12444874774E+02  0.18363354043E+03  0.17162386619E+03 0.  0.
        -24    2    5    5    0    0  0.43019010835E+02 -0.42777242455E+02 -0.35235297365E+02  0.10526140317E+03  0.78472345777E+02 0.  0.
          5    1    3    3  501    0 -0.45663767168E+02  0.17779460714E+02 -0.55124163621E+02  0.73905698496E+02  0.47000000000E+01 0. -1.
        -11    1    4    4    0    0  0.63379888007E+02  0.21232708455E+02 -0.15399432852E+03  0.16787522547E+03  0.00000000000E+00 0.  1.
         12    1    4    4    0    0 -0.18056741228E+01  0.23104724700E+02 -0.25731434806E+03  0.25835588338E+03  0.00000000000E+00 0. -1.
         -5    1    5    5    0  502 -0.58929457551E+02 -0.19339651414E+02  0.47680172139E+02  0.78372137263E+02  0.47000000000E+01 0.  1.
         13    1    6    6    0    0  0.35868683454E+02  0.41155111282E+01 -0.44111975553E+02  0.57003212819E+02  0.00000000000E+00 0. -1.
        -14    1    6    6    0    0  0.71503273809E+01 -0.46892753583E+02  0.88766781881E+01  0.48258190351E+02  0.00000000000E+00 0.  1.
</event>
<event>
12    1  0.8052519E-002  0.3255112E+03  0.7818608E-02  0.1073385E+00
         21   -1    0    0  501  502  0.00000000000E+00  0.00000000000E+00  0.14454485278E+03  0.14454485278E+03  0.00000000000E+00 0.  1.
         21   -1    0    0  502  503 -0.00000000000E+00 -0.00000000000E+00 -0.93558250941E+03  0.93558250941E+03  0.00000000000E+00 0.  1.
         -6    2    1    2    0  503 -0.27517851587E+02 -0.27561224573E+03 -0.14021787171E+03  0.35244342354E+03  0.16684116127E+03 0.  0.
        -24    2    3    3    0    0 -0.34593338895E+02 -0.92255668202E+02 -0.10642129295E+03  0.16580474647E+03  0.80361153212E+02 0.  0.
          6    2    1    2  501    0  0.27517851587E+02  0.27561224573E+03 -0.65081978492E+03  0.72768393865E+03  0.17099175413E+03 0.  0.
         24    2    5    5    0    0  0.74723894605E+02  0.15135717255E+03 -0.44402293215E+03  0.48180843759E+03  0.80562721838E+02 0.  0.
          5    1    5    5  501    0 -0.47206043017E+02  0.12425507318E+03 -0.20679685277E+03  0.24587550106E+03  0.47000000000E+01 0. -1.
        -13    1    6    6    0    0  0.48943083332E+02  0.13398250193E+03 -0.27337278601E+03  0.30834950358E+03  0.00000000000E+00 0.  1.
         14    1    6    6    0    0  0.25780811272E+02  0.17374670624E+02 -0.17065014615E+03  0.17345893401E+03  0.00000000000E+00 0. -1.
         -5    1    3    3    0  503  0.70754873081E+01 -0.18335657752E+03 -0.33796578759E+02  0.18663867707E+03  0.47000000000E+01 0.  1.
         13    1    4    4    0    0 -0.12992243312E+02  0.13609981400E+02 -0.12019497886E+02  0.22327075702E+02  0.00000000000E+00 0. -1.
        -14    1    4    4    0    0 -0.21601095584E+02 -0.10586564960E+03 -0.94401795067E+02  0.14347767076E+03  0.00000000000E+00 0.  1.
</event>
<event>
12    1  0.8052519E-002  0.1984940E+03  0.7818608E-02  0.1151243E+00
         21   -1    0    0  503  502  0.00000000000E+00  0.00000000000E+00  0.10119542390E+03  0.10119542390E+03  0.00000000000E+00 0. -1.
         21   -1    0    0  501  503 -0.00000000000E+00 -0.00000000000E+00 -0.63349597456E+03  0.63349597456E+03  0.00000000000E+00 0.  1.
          6    2    1    2  501    0 -0.86626779585E+02 -0.31981978684E+02 -0.49560918056E+03  0.53388046142E+03  0.17570669121E+03 0.  0.
         24    2    3    3    0    0  0.20316960182E+02 -0.39372485340E+02 -0.21173646349E+03  0.23040493925E+03  0.79316672816E+02 0.  0.
         -6    2    1    2    0  502  0.86626779585E+02  0.31981978684E+02 -0.36691370109E+02  0.20081093704E+03  0.17450424032E+03 0.  0.
        -24    2    5    5    0    0  0.11344912760E+03  0.50424097455E+02 -0.62942421505E+02  0.15873056397E+03  0.76291214148E+02 0.  0.
          5    1    3    3  501    0 -0.10694373977E+03  0.73905066555E+01 -0.28387271707E+03  0.30347552218E+03  0.47000000000E+01 0. -1.
        -11    1    4    4    0    0  0.17442025462E+02 -0.37906435310E+02 -0.21874492787E+03  0.22268916804E+03  0.00000000000E+00 0.  1.
         12    1    4    4    0    0  0.28749347201E+01 -0.14660500301E+01  0.70084643863E+01  0.77157712116E+01  0.00000000000E+00 0. -1.
         -5    1    5    5    0  502 -0.26822348017E+02 -0.18442118770E+02  0.26251051397E+02  0.42080373065E+02  0.47000000000E+01 0.  1.
         13    1    6    6    0    0  0.31982114295E+02  0.53403042526E+02 -0.14541340362E+02  0.63923322546E+02  0.00000000000E+00 0. -1.
        -14    1    6    6    0    0  0.81467013307E+02 -0.29789450716E+01 -0.48401081143E+02  0.94807241425E+02  0.00000000000E+00 0.  1.
</event>
<event>
12    1  0.8052519E-002  0.1968643E+03  0.7818608E-02  0.1153931E+00
         21   -1    0    0  501  502  0.00000000000E+00  0.00000000000E+00  0.37657684753E+03  0.37657684753E+03  0.00000000000E+00 0.  1.
         21   -1    0    0  502  503 -0.00000000000E+00 -0.00000000000E+00 -0.10242477847E+03  0.10242477847E+03  0.00000000000E+00 0.  1.
         -6    2    1    2    0  503  0.26365980539E+02  0.73864636598E+02  0.93060633375E+02  0.21151391466E+03  0.17299336733E+03 0.  0.
        -24    2    3    3    0    0  0.12302795786E+02 -0.28449610763E+02  0.56591679473E+02  0.10188703394E+03  0.78851825357E+02 0.  0.
          6    2    1    2  501    0 -0.26365980539E+02 -0.73864636598E+02  0.18109143568E+03  0.26748771134E+03  0.18056693543E+03 0.  0.
         24    2    5    5    0    0 -0.18590774372E+02 -0.96753345937E+02  0.19963001133E+03  0.23666376556E+03  0.80316683578E+02 0.  0.
          5    1    5    5  501    0 -0.77752061676E+01  0.22888709339E+02 -0.18538575651E+02  0.30823945778E+02  0.47000000000E+01 0. -1.
        -11    1    6    6    0    0  0.12859623960E+02 -0.78599067853E+02  0.17642436246E+03  0.19356843510E+03  0.00000000000E+00 0.  1.
         12    1    6    6    0    0 -0.31450398332E+02 -0.18154278084E+02  0.23205648873E+02  0.43095330462E+02  0.00000000000E+00 0. -1.
         -5    1    3    3    0  503  0.14063184754E+02  0.10231424736E+03  0.36468953902E+02  0.10962688072E+03  0.47000000000E+01 0.  1.
         11    1    4    4    0    0  0.11485508817E+00 -0.77323129183E+01  0.72598034409E+02  0.73008742318E+02  0.00000000000E+00 0. -1.
        -12    1    4    4    0    0  0.12187940697E+02 -0.20717297845E+02 -0.16006354936E+02  0.28878291618E+02  0.00000000000E+00 0.  1.
</event>
<event>
12    1  0.8052519E-002  0.1914038E+03  0.7818608E-02  0.1158451E+00
         21   -1    0    0  503  502  0.00000000000E+00  0.00000000000E+00  0.85177455979E+03  0.85177455979E+03  0.00000000000E+00 0.  1.
         21   -1    0    0  501  503 -0.00000000000E+00 -0.00000000000E+00 -0.44993041882E+02  0.44993041882E+02  0.00000000000E+00 0.  1.
          6    2    1    2  501    0 -0.25255701884E+02 -0.65470916201E+02  0.27815089289E+03  0.33455255133E+03  0.17214296106E+03 0.  0.
         24    2    3    3    0    0  0.17790171058E+02 -0.84043625008E+02  0.11003539413E+03  0.15995929943E+03  0.78098453377E+02 0.  0.
         -6    2    1    2    0  502  0.25255701884E+02  0.65470916201E+02  0.52863062501E+03  0.56221505033E+03  0.17807620215E+03 0.  0.
        -24    2    5    5    0    0  0.23423688938E+00 -0.28865760272E+02  0.16567551253E+03  0.18633742941E+03  0.80249455832E+02 0.  0.
          5    1    3    3  501    0 -0.43045872943E+02  0.18572708807E+02  0.16811549876E+03  0.17459325191E+03  0.47000000000E+01 0. -1.
        -13    1    4    4    0    0  0.42292212575E+02 -0.62660974841E+02  0.10109064296E+03  0.12623132379E+03  0.00000000000E+00 0.  1.
         14    1    4    4    0    0 -0.24502041517E+02 -0.21382650167E+02  0.89447511722E+01  0.33727975632E+02  0.00000000000E+00 0. -1.
         -5    1    5    5    0  502  0.25021464995E+02  0.94336676473E+02  0.36295511248E+03  0.37587762093E+03  0.47000000000E+01 0.  1.
         11    1    6    6    0    0  0.30580780513E+02 -0.42174106003E+02  0.10442593452E+03  0.11669882243E+03  0.00000000000E+00 0. -1.
        -12    1    6    6    0    0 -0.30346543624E+02  0.13308345731E+02  0.61249578008E+02  0.69638606980E+02  0.00000000000E+00 0.  1.
</event>
<event>
12    1  0.8052519E-002  0.1739280E+03  0.7818608E-02  0.1174540E+00
         21   -1    0    0  503  502  0.00000000000E+00  0.00000000000E+00  0.17415510169E+03  0.17415510169E+03  0.00000000000E+00 0. -1.
         21   -1    0    0  501  503 -0.00000000000E+00 -0.00000000000E+00 -0.18290375364E+03  0.18290375364E+03  0.00000000000E+00 0. -1.
          6    2    1    2  501    0 -0.13462037180E+02 -0.21038721247E+02 -0.50203723063E+02  0.18102860762E+03  0.17212521237E+03 0.  0.
         24    2    3    3    0    0  0.23950336086E+01 -0.31892896664E+02  0.36232857010E+02  0.92357122958E+02  0.78702764821E+02 0.  0.
         -6    2    1    2    0  502  0.13462037180E+02  0.21038721247E+02  0.41455071112E+02  0.17603024770E+03  0.16924618444E+03 0.  0.
        -24    2    5    5    0    0  0.19139229184E+02  0.33597476193E+01  0.91265218335E+02  0.12266436549E+03  0.79621658393E+02 0.  0.
          5    1    3    3  501    0 -0.15857070788E+02  0.10854175417E+02 -0.86436580073E+02  0.88671484665E+02  0.47000000000E+01 0. -1.
        -13    1    4    4    0    0  0.26061714584E+02  0.15593112596E+01  0.43506371050E+02  0.50739025814E+02  0.00000000000E+00 0.  1.
         14    1    4    4    0    0 -0.23666680976E+02 -0.33452207924E+02 -0.72735140403E+01  0.41618097144E+02  0.00000000000E+00 0. -1.
         -5    1    5    5    0  502 -0.56771920045E+01  0.17678973627E+02 -0.49810147223E+02  0.53365882209E+02  0.47000000000E+01 0.  1.
         11    1    6    6    0    0  0.70474829043E+01 -0.37120873541E+02  0.56406223461E+02  0.67891739651E+02  0.00000000000E+00 0. -1.
        -12    1    6    6    0    0  0.12091746280E+02  0.40480621160E+02  0.34858994875E+02  0.54772625839E+02  0.00000000000E+00 0.  1.
</event>
<event>
12    1  0.8052519E-002  0.1803597E+03  0.7818608E-02  0.1167536E+00
         21   -1    0    0  503  502  0.00000000000E+00  0.00000000000E+00  0.18165006537E+04  0.18165006537E+04  0.00000000000E+00 0. -1.
         21   -1    0    0  501  503 -0.00000000000E+00 -0.00000000000E+00 -0.18458164571E+02  0.18458164571E+02  0.00000000000E+00 0. -1.
          6    2    1    2  501    0  0.39091108970E+02  0.38609964099E+02  0.73511383746E+03  0.75683687471E+03  0.17143761775E+03 0.  0.
         24    2    3    3    0    0  0.62757228752E+02  0.73884646042E+02  0.64669525198E+03  0.65863135211E+03  0.78632680061E+02 0.  0.
         -6    2    1    2    0  502 -0.39091108970E+02 -0.38609964099E+02  0.10629286517E+04  0.10781219436E+04  0.17178696837E+03 0.  0.
        -24    2    5    5    0    0  0.20222691345E+00  0.40023226040E+02  0.47710149996E+03  0.48571778547E+03  0.81817029627E+02 0.  0.
          5    1    3    3  501    0 -0.23666119783E+02 -0.35274681942E+02  0.88418585475E+02  0.98205522600E+02  0.47000000000E+01 0. -1.
        -11    1    4    4    0    0  0.36342061715E+02  0.11881331320E+02  0.88822456579E+02  0.96702328185E+02  0.00000000000E+00 0.  1.
         12    1    4    4    0    0  0.26415167037E+02  0.62003314721E+02  0.55787279540E+03  0.56192902393E+03  0.00000000000E+00 0. -1.
         -5    1    5    5    0  502 -0.39293335883E+02 -0.78633190139E+02  0.58582715173E+03  0.59240415811E+03  0.47000000000E+01 0.  1.
         11    1    6    6    0    0  0.26739174904E+02  0.74176971355E+01  0.55748742221E+02  0.62273011526E+02  0.00000000000E+00 0. -1.
        -12    1    6    6    0    0 -0.26536947990E+02  0.32605528904E+02  0.42135275774E+03  0.42344477395E+03  0.00000000000E+00 0.  1.
</event>
<event>
12    1  0.8052519E-002  0.2962215E+03  0.7818608E-02  0.1087300E+00
         21   -1    0    0  503  502  0.00000000000E+00  0.00000000000E+00  0.56322893714E+03  0.56322893714E+03  0.00000000000E+00 0.  1.
         21   -1    0    0  501  503 -0.00000000000E+00 -0.00000000000E+00 -0.15613609216E+03  0.15613609216E+03  0.00000000000E+00 0.  1.
          6    2    1    2  501    0 -0.19498399685E+03  0.14096210049E+03  0.17458491387E+03  0.34279213866E+03  0.17069705729E+03 0.  0.
         24    2    3    3    0    0 -0.14343487688E+03  0.81374403482E+02  0.18413143032E+03  0.26328596669E+03  0.90662887525E+02 0.  0.
         -6    2    1    2    0  502  0.19498399685E+03 -0.14096210049E+03  0.23250793110E+03  0.37657289065E+03  0.17279505531E+03 0.  0.
        -24    2    5    5    0    0  0.97244633874E+02 -0.15248537547E+03  0.15956716331E+03  0.25398327221E+03  0.79608507150E+02 0.  0.
          5    1    3    3  501    0 -0.51549119970E+02  0.59587697012E+02 -0.95465164468E+01  0.79506171969E+02  0.47000000000E+01 0. -1.
        -13    1    4    4    0    0 -0.12194349537E+03  0.21237396043E+02  0.11177500760E+03  0.16677798229E+03  0.00000000000E+00 0.  1.
         14    1    4    4    0    0 -0.21491381512E+02  0.60137007439E+02  0.72356422721E+02  0.96507984395E+02  0.00000000000E+00 0. -1.
         -5    1    5    5    0  502  0.97739362975E+02  0.11523274971E+02  0.72940767796E+02  0.12258961843E+03  0.47000000000E+01 0.  1.
         11    1    6    6    0    0 -0.13579259571E+02 -0.26713347014E+02  0.24539269553E+02  0.38732091983E+02  0.00000000000E+00 0. -1.
        -12    1    6    6    0    0  0.11082389345E+03 -0.12577202845E+03  0.13502789375E+03  0.21525118023E+03  0.00000000000E+00 0.  1.
</event>
<event>
12    1  0.8052519E-002  0.2015708E+03  0.7818608E-02  0.1148500E+00
         21   -1    0    0  501  502  0.00000000000E+00  0.00000000000E+00  0.86817421463E+02  0.86817421463E+02  0.00000000000E+00 0.  1.
         21   -1    0    0  502  503 -0.00000000000E+00 -0.00000000000E+00 -0.53238096215E+03  0.53238096215E+03  0.00000000000E+00 0.  1.
         -6    2    1    2    0  503 -0.72545410422E+02 -0.76316026635E+02 -0.33136672681E+03  0.38785909588E+03  0.17188309437E+03 0.  0.
        -24    2    3    3    0    0 -0.19357849930E+02 -0.93582755856E+02 -0.29981675354E+03  0.32348093699E+03  0.74949131730E+02 0.  0.
          6    2    1    2  501    0  0.72545410422E+02  0.76316026635E+02 -0.11419681388E+03  0.23133928773E+03  0.17143506424E+03 0.  0.
         24    2    5    5    0    0  0.31302588617E+02  0.67186483741E+02 -0.14327186829E+03  0.17984397053E+03  0.79518235911E+02 0.  0.
          5    1    5    5  501    0  0.41242821804E+02  0.91295428939E+01  0.29075054413E+02  0.51495317194E+02  0.47000000000E+01 0. -1.
        -11    1    6    6    0    0  0.20521783834E+02 -0.15168633302E+02 -0.30045920117E+02  0.39420659098E+02  0.00000000000E+00 0.  1.
         12    1    6    6    0    0  0.10780804783E+02  0.82355117043E+02 -0.11322594817E+03  0.14042331144E+03  0.00000000000E+00 0. -1.
         -5    1    3    3    0  503 -0.53187560492E+02  0.17266729221E+02 -0.31549973269E+02  0.64378158892E+02  0.47000000000E+01 0.  1.
         11    1    4    4    0    0  0.26798468248E+02 -0.52598545637E+02 -0.12937851497E+03  0.14220958139E+03  0.00000000000E+00 0. -1.
        -12    1    4    4    0    0 -0.46156318177E+02 -0.40984210218E+02 -0.17043823857E+03  0.18127135560E+03  0.00000000000E+00 0.  1.
</event>
<event>
12    1  0.8052519E-002  0.1840980E+03  0.7818608E-02  0.1163963E+00
         21   -1    0    0  503  502  0.00000000000E+00  0.00000000000E+00  0.26264155831E+03  0.26264155831E+03  0.00000000000E+00 0. -1.
         21   -1    0    0  501  503 -0.00000000000E+00 -0.00000000000E+00 -0.15071694120E+03  0.15071694120E+03  0.00000000000E+00 0. -1.
          6    2    1    2  501    0  0.46859604100E+02 -0.48695535074E+02 -0.22817044996E+02  0.18521950178E+03  0.17093439872E+03 0.  0.
         24    2    3    3    0    0  0.20415821494E+02 -0.71060455797E+02  0.38539697485E+02  0.11460644941E+03  0.78631646425E+02 0.  0.
         -6    2    1    2    0  502 -0.46859604100E+02  0.48695535074E+02  0.13474166210E+03  0.22813899773E+03  0.17124546460E+03 0.  0.
        -24    2    5    5    0    0  0.33664132902E+02  0.11726010481E+02  0.33820568739E+02  0.93759032500E+02  0.79850811766E+02 0.  0.
          5    1    3    3  501    0  0.26443782606E+02  0.22364920722E+02 -0.61356742481E+02  0.70613052372E+02  0.47000000000E+01 0. -1.
        -13    1    4    4    0    0 -0.82661930353E+01  0.60845398388E+01  0.30181164541E+02  0.31878743159E+02  0.00000000000E+00 0.  1.
         14    1    4    4    0    0  0.28682014529E+02 -0.77144995635E+02  0.83585329438E+01  0.82727706254E+02  0.00000000000E+00 0. -1.
         -5    1    5    5    0  502 -0.80523737002E+02  0.36969524594E+02  0.10092109336E+03  0.13437996523E+03  0.47000000000E+01 0.  1.
         13    1    6    6    0    0 -0.15253500885E+02  0.14698081937E+02  0.39098391470E+02  0.44467821145E+02  0.00000000000E+00 0. -1.
        -14    1    6    6    0    0  0.48917633787E+02 -0.29720714567E+01 -0.52778227308E+01  0.49291211355E+02  0.00000000000E+00 0.  1.
</event>
<event>
12    1  0.8052519E-002  0.2358297E+03  0.7818608E-02  0.1122990E+00
         21   -1    0    0  501  502  0.00000000000E+00  0.00000000000E+00  0.35709511349E+03  0.35709511349E+03  0.00000000000E+00 0. -1.
         21   -1    0    0  502  503 -0.00000000000E+00 -0.00000000000E+00 -0.15740339242E+03  0.15740339242E+03  0.00000000000E+00 0.  1.
         -6    2    1    2    0  503  0.10604740199E+03  0.12027594902E+03  0.13671693208E+03  0.27259339682E+03  0.17292566348E+03 0.  0.
        -24    2    3    3    0    0  0.94063599631E+02  0.13809755853E+03  0.15649860425E+03  0.24301932307E+03  0.81533317157E+02 0.  0.
          6    2    1    2  501    0 -0.10604740199E+03 -0.12027594902E+03  0.62974788982E+02  0.24190510909E+03  0.16982315030E+03 0.  0.
         24    2    5    5    0    0 -0.14115881987E+03 -0.86961284497E+02  0.44140655000E+02  0.18975634937E+03  0.81061688081E+02 0.  0.
          5    1    5    5  501    0  0.35111417879E+02 -0.33314664526E+02  0.18834133982E+02  0.52148759724E+02  0.47000000000E+01 0. -1.
        -11    1    6    6    0    0 -0.22581531826E+02  0.14123100932E+02 -0.33969668374E+01  0.26850082742E+02  0.00000000000E+00 0.  1.
         12    1    6    6    0    0 -0.11857728804E+03 -0.10108438543E+03  0.47537621838E+02  0.16290626663E+03  0.00000000000E+00 0. -1.
         -5    1    3    3    0  503  0.11983802356E+02 -0.17821609511E+02 -0.19781672165E+02  0.29574073749E+02  0.47000000000E+01 0.  1.
         13    1    4    4    0    0 -0.10917834954E+02  0.34719845890E+02  0.47023300621E+02  0.59463077788E+02  0.00000000000E+00 0. -1.
        -14    1    4    4    0    0  0.10498143458E+03  0.10337771264E+03  0.10947530363E+03  0.18355624529E+03  0.00000000000E+00 0.  1.
</event>
<event>
12    1  0.8052519E-002  0.2752169E+03  0.7818608E-02  0.1098403E+00
         21   -1    0    0  501  502  0.00000000000E+00  0.00000000000E+00  0.42332046175E+03  0.42332046175E+03  0.00000000000E+00 0. -1.
         21   -1    0    0  502  503 -0.00000000000E+00 -0.00000000000E+00 -0.19260512737E+03  0.19260512737E+03  0.00000000000E+00 0.  1.
         -6    2    1    2    0  503  0.21358493809E+03  0.18902957232E+02  0.32387982280E+02  0.27711610960E+03  0.17253553035E+03 0.  0.
        -24    2    3    3    0    0  0.10152403718E+03 -0.55077090126E+02  0.82292216133E+01  0.14060080410E+03  0.79751175806E+02 0.  0.
          6    2    1    2  501    0 -0.21358493809E+03 -0.18902957232E+02  0.19832735210E+03  0.33880947951E+03  0.17170403968E+03 0.  0.
         24    2    5    5    0    0 -0.91533671482E+02 -0.14773984138E+02  0.22959523511E+02  0.12505839670E+03  0.80720376873E+02 0.  0.
          5    1    5    5  501    0 -0.12205126661E+03 -0.41289730945E+01  0.17536782859E+03  0.21375108282E+03  0.47000000000E+01 0. -1.
        -11    1    6    6    0    0 -0.22116039936E+02  0.13249816953E+02 -0.25194253888E+02  0.36047569970E+02  0.00000000000E+00 0.  1.
         12    1    6    6    0    0 -0.69417631546E+02 -0.28023801091E+02  0.48153777399E+02  0.89010826728E+02  0.00000000000E+00 0. -1.
         -5    1    3    3    0  503  0.11206090091E+03  0.73980047358E+02  0.24158760667E+02  0.13651530551E+03  0.47000000000E+01 0.  1.
         13    1    4    4    0    0  0.81424282149E+02 -0.48596203950E+02 -0.27820625299E+02  0.98820503712E+02  0.00000000000E+00 0. -1.
        -14    1    4    4    0    0  0.20099755031E+02 -0.64808861756E+01  0.36049846912E+02  0.41780300385E+02  0.00000000000E+00 0.  1.
</event>
<event>
12    1  0.8052519E-002  0.2405229E+03  0.7818608E-02  0.1119492E+00
         21   -1    0    0  501  502  0.00000000000E+00  0.00000000000E+00  0.16187417145E+04  0.16187417145E+04  0.00000000000E+00 0. -1.
         21   -1    0    0  502  503 -0.00000000000E+00 -0.00000000000E+00 -0.53980204643E+02  0.53980204643E+02  0.00000000000E+00 0.  1.
         -6    2    1    2    0  503  0.15847036442E+03  0.54790829977E+02  0.29593063244E+03  0.38134785143E+03  0.17244231825E+03 0.  0.
        -24    2    3    3    0    0  0.15277085905E+03  0.96707218502E+02  0.24787086231E+03  0.31715050341E+03  0.80332160079E+02 0.  0.
          6    2    1    2  501    0 -0.15847036442E+03 -0.54790829977E+02  0.12688308775E+04  0.12913740677E+04  0.17204736506E+03 0.  0.
         24    2    5    5    0    0 -0.40553692835E+02  0.81464984664E+00  0.25884295095E+03  0.27299593930E+03  0.76693180658E+02 0.  0.
          5    1    5    5  501    0 -0.11791667159E+03 -0.55605479823E+02  0.10099879265E+04  0.10183781285E+04  0.47000000000E+01 0. -1.
        -13    1    6    6    0    0 -0.46772502661E+02 -0.29671750881E+02  0.15549952527E+03  0.16507023404E+03  0.00000000000E+00 0.  1.
         14    1    6    6    0    0  0.62188098251E+01  0.30486400727E+02  0.10334342568E+03  0.10792570526E+03  0.00000000000E+00 0. -1.
         -5    1    3    3    0  503  0.56995053706E+01 -0.41916388525E+02  0.48059770128E+02  0.64197348023E+02  0.47000000000E+01 0.  1.
         13    1    4    4    0    0  0.12824741692E+03  0.80331693450E+02  0.24440131927E+03  0.28745884189E+03  0.00000000000E+00 0. -1.
        -14    1    4    4    0    0  0.24523442130E+02  0.16375525052E+02  0.34695430377E+01  0.29691661514E+02  0.00000000000E+00 0.  1.
</event>
<event>
12    1  0.8052519E-002  0.1897971E+03  0.7818608E-02  0.1159073E+00
         21   -1    0    0  501  502  0.00000000000E+00  0.00000000000E+00  0.38956131113E+03  0.38956131113E+03  0.00000000000E+00 0.  1.
         21   -1    0    0  502  503 -0.00000000000E+00 -0.00000000000E+00 -0.12817362827E+03  0.12817362827E+03  0.00000000000E+00 0.  1.
         -6    2    1    2    0  503 -0.70933375733E+02 -0.35368921481E+02 -0.72078517212E+01  0.18993396353E+03  0.17245420545E+03 0.  0.
        -24    2    3    3    0    0 -0.90726518724E+02 -0.47097800689E+02  0.40854232324E+02  0.13644201050E+03  0.80609242027E+02 0.  0.
          6    2    1    2  501    0  0.70933375733E+02  0.35368921481E+02  0.26859553458E+03  0.32780097587E+03  0.17037433547E+03 0.  0.
         24    2    5    5    0    0  0.35704955144E+02  0.53514485157E+02  0.67301948477E+02  0.12259010651E+03  0.79750473366E+02 0.  0.
          5    1    5    5  501    0  0.35228420589E+02 -0.18145563676E+02  0.20129358610E+03  0.20521086936E+03  0.47000000000E+01 0. -1.
        -11    1    6    6    0    0  0.46382074117E+02  0.57057565078E+02  0.77908415537E+02  0.10712881845E+03  0.00000000000E+00 0.  1.
         12    1    6    6    0    0 -0.10677118973E+02 -0.35430799207E+01 -0.10606467060E+02  0.15461288057E+02  0.00000000000E+00 0. -1.
         -5    1    3    3    0  503  0.19793142991E+02  0.11728879208E+02 -0.48062084045E+02  0.53491953037E+02  0.47000000000E+01 0.  1.
         11    1    4    4    0    0 -0.11128913418E+02  0.86249377948E+01  0.36566613630E+02  0.39183663665E+02  0.00000000000E+00 0. -1.
        -12    1    4    4    0    0 -0.79597605306E+02 -0.55722738484E+02  0.42876186939E+01  0.97258346832E+02  0.00000000000E+00 0.  1.
</event>
<event>
12    1  0.8052519E-002  0.2146791E+03  0.7818608E-02  0.1138127E+00
         21   -1    0    0  501  502  0.00000000000E+00  0.00000000000E+00  0.55729345159E+02  0.55729345159E+02  0.00000000000E+00 0. -1.
         21   -1    0    0  502  503 -0.00000000000E+00 -0.00000000000E+00 -0.85015130270E+03  0.85015130270E+03  0.00000000000E+00 0.  1.
         -6    2    1    2    0  503 -0.25257907019E+01 -0.12763734194E+03 -0.47758699964E+03  0.52316470730E+03  0.17121418768E+03 0.  0.
        -24    2    3    3    0    0  0.45830656516E+02 -0.11474160996E+03 -0.24539755007E+03  0.28559645104E+03  0.77969796280E+02 0.  0.
          6    2    1    2  501    0  0.25257907019E+01  0.12763734194E+03 -0.31683495790E+03  0.38271594056E+03  0.17259614693E+03 0.  0.
         24    2    5    5    0    0  0.55357856053E+02  0.11918461127E+03 -0.18501437386E+03  0.24037328300E+03  0.79243503548E+02 0.  0.
          5    1    5    5  501    0 -0.52832065351E+02  0.84527306655E+01 -0.13182058403E+03  0.14234265755E+03  0.47000000000E+01 0. -1.
        -13    1    6    6    0    0  0.40033631716E+02  0.80498061684E+01 -0.41605891733E+02  0.58297009139E+02  0.00000000000E+00 0.  1.
         14    1    6    6    0    0  0.15324224337E+02  0.11113480510E+03 -0.14340848213E+03  0.18207627386E+03  0.00000000000E+00 0. -1.
         -5    1    3    3    0  503 -0.48356447218E+02 -0.12895731975E+02 -0.23218944958E+03  0.23756825627E+03  0.47000000000E+01 0.  1.
         13    1    4    4    0    0  0.27634365216E+02 -0.36240164197E+01 -0.86275118011E+02  0.90665250364E+02  0.00000000000E+00 0. -1.
        -14    1    4    4    0    0  0.18196291300E+02 -0.11111759354E+03 -0.15912243206E+03  0.19493120067E+03  0.00000000000E+00 0.  1.
</event>
<event>
12    1  0.8052519E-002  0.2236638E+03  0.7818608E-02  0.1131401E+00
         21   -1    0    0  503  502  0.00000000000E+00  0.00000000000E+00  0.22726032229E+03  0.22726032229E+03  0.00000000000E+00 0.  1.
         21   -1    0    0  501  503 -0.00000000000E+00 -0.00000000000E+00 -0.21939784803E+03  0.21939784803E+03  0.00000000000E+00 0.  1.
          6    2    1    2  501    0 -0.94850705299E+02 -0.10492099854E+03 -0.62654726155E+01  0.22375152118E+03  0.17326400334E+03 0.  0.
         24    2    3    3    0    0 -0.64324161861E+02 -0.14105661591E+03 -0.14438648326E+02  0.17551726469E+03  0.81014004640E+02 0.  0.
         -6    2    1    2    0  502  0.94850705299E+02  0.10492099854E+03  0.14127946872E+02  0.22290664915E+03  0.17170527983E+03 0.  0.
        -24    2    5    5    0    0  0.23318690185E+02  0.38362100885E+02 -0.52845785893E+02  0.10435502780E+03  0.77986426029E+02 0.  0.
          5    1    3    3  501    0 -0.30526543438E+02  0.36135617375E+02  0.81731757101E+01  0.48234256484E+02  0.47000000000E+01 0. -1.
        -11    1    4    4    0    0  0.91806870259E+00 -0.93441258760E+02 -0.15600480804E+02  0.94739045225E+02  0.00000000000E+00 0.  1.
         12    1    4    4    0    0 -0.65242230564E+02 -0.47615357154E+02  0.11618324790E+01  0.80778219469E+02  0.00000000000E+00 0. -1.
         -5    1    5    5    0  502  0.71532015114E+02  0.66558897654E+02  0.66973732765E+02  0.11855162135E+03  0.47000000000E+01 0.  1.
         11    1    6    6    0    0 -0.31351137955E+01  0.55830100678E+02 -0.21898750088E+02  0.60053179230E+02  0.00000000000E+00 0. -1.
        -12    1    6    6    0    0  0.26453803980E+02 -0.17467999793E+02 -0.30947035805E+02  0.44301848572E+02  0.00000000000E+00 0.  1.
</event>
<event>
12    1  0.8052519E-002  0.2040261E+03  0.7818608E-02  0.1146536E+00
         21   -1    0    0  503  502  0.00000000000E+00  0.00000000000E+00  0.61095034269E+03  0.61095034269E+03  0.00000000000E+00 0.  1.
         21   -1    0    0  501  503 -0.00000000000E+00 -0.00000000000E+00 -0.90571035196E+02  0.90571035196E+02  0.00000000000E+00 0.  1.
          6    2    1    2  501    0  0.93607723780E+02  0.56925920414E+02  0.84313485349E+02  0.22008598103E+03  0.17124867553E+03 0.  0.
         24    2    3    3    0    0  0.12613138284E+03  0.73492298358E+02  0.71673429999E+02  0.18117461667E+03  0.79855604085E+02 0.  0.
         -6    2    1    2    0  502 -0.93607723780E+02 -0.56925920414E+02  0.43606582214E+03  0.48143539685E+03  0.17211529198E+03 0.  0.
        -24    2    5    5    0    0 -0.67658470502E+02  0.13076809201E+01  0.13883077327E+03  0.17740368740E+03  0.87285199418E+02 0.  0.
          5    1    3    3  501    0 -0.32523659063E+02 -0.16566377944E+02  0.12640055351E+02  0.38911364359E+02  0.47000000000E+01 0. -1.
        -11    1    4    4    0    0  0.63807107831E+01  0.43378458973E+01  0.38099539289E+02  0.38872937517E+02  0.00000000000E+00 0.  1.
         12    1    4    4    0    0  0.11975067206E+03  0.69154452461E+02  0.33573890709E+02  0.14230167916E+03  0.00000000000E+00 0. -1.
         -5    1    5    5    0  502 -0.25949253278E+02 -0.58233601334E+02  0.29723504887E+03  0.30403170945E+03  0.47000000000E+01 0.  1.
         11    1    6    6    0    0  0.73112761735E+01  0.27175677566E+02  0.19945173748E+02  0.34493219134E+02  0.00000000000E+00 0. -1.
        -12    1    6    6    0    0 -0.74969746676E+02 -0.25867996646E+02  0.11888559952E+03  0.14291046827E+03  0.00000000000E+00 0.  1.
</event>
<event>
12    1  0.8052519E-002  0.2253913E+03  0.7818608E-02  0.1130064E+00
         21   -1    0    0  501  502  0.00000000000E+00  0.00000000000E+00  0.79474773388E+02  0.79474773388E+02  0.00000000000E+00 0. -1.
         21   -1    0    0  502  503 -0.00000000000E+00 -0.00000000000E+00 -0.76459860686E+03  0.76459860686E+03  0.00000000000E+00 0.  1.
         -6    2    1    2    0  503  0.29045941636E+02  0.13970780882E+03 -0.51542025470E+03  0.56254714784E+03  0.17446866773E+03 0.  0.
        -24    2    3    3    0    0  0.73588224929E+02  0.11474776790E+03 -0.27327507438E+03  0.31503270989E+03  0.77356738148E+02 0.  0.
          6    2    1    2  501    0 -0.29045941636E+02 -0.13970780882E+03 -0.16970357878E+03  0.28152623241E+03  0.17348134284E+03 0.  0.
         24    2    5    5    0    0 -0.24015858656E+02 -0.29252146315E+02 -0.14208366766E+03  0.16746175677E+03  0.80145005030E+02 0.  0.
          5    1    5    5  501    0 -0.50300829802E+01 -0.11045566250E+03 -0.27619911112E+02  0.11406447564E+03  0.47000000000E+01 0. -1.
        -11    1    6    6    0    0  0.90869388874E+01 -0.46639926922E+02 -0.10267457235E+03  0.11313674491E+03  0.00000000000E+00 0.  1.
         12    1    6    6    0    0 -0.33102797543E+02  0.17387780607E+02 -0.39409095312E+02  0.54325011854E+02  0.00000000000E+00 0. -1.
         -5    1    3    3    0  503 -0.44542283294E+02  0.24960040924E+02 -0.24214518032E+03  0.24751443795E+03  0.47000000000E+01 0.  1.
         11    1    4    4    0    0  0.41241630994E+02  0.10779486565E+03 -0.16176026939E+03  0.19871333609E+03  0.00000000000E+00 0. -1.
        -12    1    4    4    0    0  0.32346593935E+02  0.69529022497E+01 -0.11151480499E+03  0.11631937380E+03  0.00000000000E+00 0.  1.
</event>
<event>
12    1  0.8052519E-002  0.2687475E+03  0.7818608E-02  0.1102034E+00
         21   -1    0    0  501  502  0.00000000000E+00  0.00000000000E+00  0.34125274531E+03  0.34125274531E+03  0.00000000000E+00 0. -1.
         21   -1    0    0  502  503 -0.00000000000E+00 -0.00000000000E+00 -0.22017982223E+03  0.22017982223E+03  0.00000000000E+00 0.  1.
         -6    2    1    2    0  503 -0.99885811779E+02 -0.18047175569E+03  0.46789397331E+01  0.26878821293E+03  0.17227298376E+03 0.  0.
        -24    2    3    3    0    0 -0.12513172630E+03 -0.18119304142E+03  0.24232185800E+02  0.23650360537E+03  0.82812374315E+02 0.  0.
          6    2    1    2  501    0  0.99885811779E+02  0.18047175569E+03  0.11639398335E+03  0.29264435461E+03  0.17188929265E+03 0.  0.
         24    2    5    5    0    0  0.51190526633E+02  0.38538629013E+02  0.98815146761E+02  0.14149095988E+03  0.78419146605E+02 0.  0.
          5    1    5    5  501    0  0.48695285146E+02  0.14193312668E+03  0.17578836590E+02  0.15115339474E+03  0.47000000000E+01 0. -1.
        -13    1    6    6    0    0  0.47568893005E+02  0.37093206991E+02  0.21441457331E+02  0.64019072776E+02  0.00000000000E+00 0.  1.
         14    1    6    6    0    0  0.36216336272E+01  0.14454220225E+01  0.77373689430E+02  0.77471887101E+02  0.00000000000E+00 0. -1.
         -5    1    3    3    0  503  0.25245914520E+02  0.72128573041E+00 -0.19553246067E+02  0.32284607552E+02  0.47000000000E+01 0.  1.
         11    1    4    4    0    0 -0.20296113231E+02 -0.38796019181E+02  0.39567410401E+02  0.59013924479E+02  0.00000000000E+00 0. -1.
        -12    1    4    4    0    0 -0.10483561307E+03 -0.14239702224E+03 -0.15335224601E+02  0.17748968090E+03  0.00000000000E+00 0.  1.
</event>
<event>
12    1  0.8052519E-002  0.1943540E+03  0.7818608E-02  0.1156176E+00
         21   -1    0    0  501  502  0.00000000000E+00  0.00000000000E+00  0.27924095316E+03  0.27924095316E+03  0.00000000000E+00 0.  1.
         21   -1    0    0  502  503 -0.00000000000E+00 -0.00000000000E+00 -0.27941387073E+03  0.27941387073E+03  0.00000000000E+00 0.  1.
         -6    2    1    2    0  503 -0.63317632520E+02 -0.63764549872E+02 -0.20407131312E+03  0.28181300666E+03  0.17233232278E+03 0.  0.
        -24    2    3    3    0    0  0.27565980273E+02 -0.79230348862E+01 -0.65161519806E+02  0.10660990581E+03  0.79353579644E+02 0.  0.
          6    2    1    2  501    0  0.63317632520E+02  0.63764549872E+02  0.20389839556E+03  0.27684181723E+03  0.16429180031E+03 0.  0.
         24    2    5    5    0    0  0.66739113208E+02  0.99495013288E+02  0.12993810957E+03  0.19449750079E+03  0.81191123871E+02 0.  0.
          5    1    5    5  501    0 -0.34214806885E+01 -0.35730463416E+02  0.73960285986E+02  0.82344316435E+02  0.47000000000E+01 0. -1.
        -11    1    6    6    0    0  0.76809481380E+02  0.89817166072E+02  0.80172546960E+02  0.14280916300E+03  0.00000000000E+00 0.  1.
         12    1    6    6    0    0 -0.10070368172E+02  0.96778472162E+01  0.49765562610E+02  0.51688337793E+02  0.00000000000E+00 0. -1.
         -5    1    3    3    0  503 -0.90883612793E+02 -0.55841514986E+02 -0.13890979332E+03  0.17520310086E+03  0.47000000000E+01 0.  1.
         11    1    4    4    0    0 -0.18435636261E+02  0.22503549808E+02 -0.25383020089E+02  0.38608032158E+02  0.00000000000E+00 0. -1.
        -12    1    4    4    0    0  0.46001616534E+02 -0.30426584694E+02 -0.39778499717E+02  0.68001873648E+02  0.00000000000E+00 0.  1.
</event>
<event>
12    1  0.8052519E-002  0.4382168E+03  0.7818608E-02  0.1031348E+00
         21   -1    0    0  503  502  0.00000000000E+00  0.00000000000E+00  0.24435094665E+03  0.24435094665E+03  0.00000000000E+00 0. -1.
         21   -1    0    0  501  503 -0.00000000000E+00 -0.00000000000E+00 -0.11401763372E+04  0.11401763372E+04  0.00000000000E+00 0.  1.
          6    2    1    2  501    0 -0.85504259265E+02 -0.39325800967E+03 -0.83471010189E+03  0.94274860192E+03  0.17341029874E+03 0.  0.
         24    2    3    3    0    0 -0.12334543520E+03 -0.34065491704E+03 -0.70394564661E+03  0.79673328521E+03  0.89356507840E+02 0.  0.
         -6    2    1    2    0  502  0.85504259265E+02  0.39325800967E+03 -0.61115288703E+02  0.44177868198E+03  0.17166969685E+03 0.  0.
        -24    2    5    5    0    0 -0.22054272728E+01  0.16932826517E+03 -0.78332214014E+02  0.20062306397E+03  0.73734338991E+02 0.  0.
          5    1    3    3  501    0  0.37841175930E+02 -0.52603092632E+02 -0.13076445528E+03  0.14601531671E+03  0.47000000000E+01 0. -1.
        -11    1    4    4    0    0 -0.78753631583E+02 -0.28130587360E+03 -0.61519970187E+03  0.68103289362E+03  0.00000000000E+00 0.  1.
         12    1    4    4    0    0 -0.44591803612E+02 -0.59349043442E+02 -0.88745944741E+02  0.11570039159E+03  0.00000000000E+00 0. -1.
         -5    1    5    5    0  502  0.87709686538E+02  0.22392974450E+03  0.17216925311E+02  0.24115561801E+03  0.47000000000E+01 0.  1.
         13    1    6    6    0    0  0.16349464664E+02  0.15528035657E+03 -0.49981335319E+02  0.16394336831E+03  0.00000000000E+00 0. -1.
        -14    1    6    6    0    0 -0.18554891937E+02  0.14047908605E+02 -0.28350878696E+02  0.36679695661E+02  0.00000000000E+00 0.  1.
</event>
<event>
12    1  0.8052519E-002  0.1748221E+03  0.7818608E-02  0.1173097E+00
         21   -1    0    0  501  502  0.00000000000E+00  0.00000000000E+00  0.43239754811E+03  0.43239754811E+03  0.00000000000E+00 0. -1.
         21   -1    0    0  502  503 -0.00000000000E+00 -0.00000000000E+00 -0.84940582801E+02  0.84940582801E+02  0.00000000000E+00 0. -1.
         -6    2    1    2    0  503  0.20894573252E+02 -0.19847366455E+02  0.66333913113E+02  0.18628987978E+03  0.17167769259E+03 0.  0.
        -24    2    3    3    0    0 -0.31925414211E+02 -0.58158658075E+02  0.20185381496E+02  0.10623063227E+03  0.80472579332E+02 0.  0.
          6    2    1    2  501    0 -0.20894573252E+02  0.19847366455E+02  0.28112305219E+03  0.33104825113E+03  0.17243048732E+03 0.  0.
         24    2    5    5    0    0 -0.20317616086E+02 -0.55149125159E+02  0.14370263218E+03  0.17442364109E+03  0.79491688537E+02 0.  0.
          5    1    5    5  501    0 -0.57695716536E+00  0.74996491614E+02  0.13742042001E+03  0.15662461004E+03  0.47000000000E+01 0. -1.
        -13    1    6    6    0    0 -0.56735641556E+01 -0.71532057652E+02  0.82202968976E+02  0.10911623486E+03  0.00000000000E+00 0.  1.
         14    1    6    6    0    0 -0.14644051931E+02  0.16382932492E+02  0.61499663204E+02  0.65307406227E+02  0.00000000000E+00 0. -1.
         -5    1    3    3    0  503  0.52819987463E+02  0.38311291621E+02  0.46148531617E+02  0.80059247508E+02  0.47000000000E+01 0.  1.
         11    1    4    4    0    0 -0.14507193826E+01 -0.22700620790E+02  0.47083949604E+02  0.52290736094E+02  0.00000000000E+00 0. -1.
        -12    1    4    4    0    0 -0.30474694829E+02 -0.35458037285E+02 -0.26898568108E+02  0.53939896174E+02  0.00000000000E+00 0.  1.
</event>
<event>
12    1  0.8052519E-002  0.2253386E+03  0.7818608E-02  0.1130121E+00
         21   -1    0    0  503  502  0.00000000000E+00  0.00000000000E+00  0.37630346073E+03  0.37630346073E+03  0.00000000000E+00 0. -1.
         21   -1    0    0  501  503 -0.00000000000E+00 -0.00000000000E+00 -0.15768194976E+03  0.15768194976E+03  0.00000000000E+00 0. -1.
          6    2    1    2  501    0 -0.17239101073E+01 -0.14542563078E+03  0.69405808296E+01  0.22544547552E+03  0.17212177321E+03 0.  0.
         24    2    3    3    0    0  0.76803695844E+01 -0.13699788393E+03 -0.48481595703E+02  0.16840886407E+03  0.84756546049E+02 0.  0.
         -6    2    1    2    0  502  0.17239101073E+01  0.14542563078E+03  0.21168093014E+03  0.30853993497E+03  0.17098681041E+03 0.  0.
        -24    2    5    5    0    0 -0.42203702938E+01  0.16857353955E+03  0.21429758469E+03  0.28404305699E+03  0.79511971782E+02 0.  0.
          5    1    3    3  501    0 -0.94042796917E+01 -0.84277468520E+01  0.55422176532E+02  0.57036611445E+02  0.47000000000E+01 0. -1.
        -13    1    4    4    0    0  0.45254278060E+02 -0.66465047652E+02 -0.15168475678E+02  0.81826859261E+02  0.00000000000E+00 0.  1.
         14    1    4    4    0    0 -0.37573908475E+02 -0.70532836277E+02 -0.33313120025E+02  0.86582004811E+02  0.00000000000E+00 0. -1.
         -5    1    5    5    0  502  0.59442804012E+01 -0.23147908769E+02 -0.26166545537E+01  0.24496877983E+02  0.47000000000E+01 0.  1.
         13    1    6    6    0    0 -0.41397035523E+01  0.74813815755E+02  0.15751794441E+03  0.17443092324E+03  0.00000000000E+00 0. -1.
        -14    1    6    6    0    0 -0.80666741501E-01  0.93759723795E+02  0.56779640286E+02  0.10961213375E+03  0.00000000000E+00 0.  1.
</event>
<event>
12    1  0.8052519E-002  0.1789697E+03  0.7818608E-02  0.1169168E+00
         21   -1    0    0  503  502  0.00000000000E+00  0.00000000000E+00  0.21397821204E+03  0.21397821204E+03  0.00000000000E+00 0. -1.
         21   -1    0    0  501  503 -0.00000000000E+00 -0.00000000000E+00 -0.24294760224E+03  0.24294760224E+03  0.00000000000E+00 0.  1.
          6    2    1    2  501    0  0.13846174856E+02  0.45611744033E+02 -0.15693472275E+03  0.23691385265E+03  0.17096057622E+03 0.  0.
         24    2    3    3    0    0  0.40228447950E+02 -0.30521412000E+02 -0.10238325310E+03  0.13949601742E+03  0.80168096804E+02 0.  0.
         -6    2    1    2    0  502 -0.13846174856E+02 -0.45611744033E+02  0.12796533255E+03  0.22001196163E+03  0.17250504101E+03 0.  0.
        -24    2    5    5    0    0 -0.40691858748E+02 -0.86340347438E+02  0.11123445048E+03  0.16822854446E+03  0.82566683558E+02 0.  0.
          5    1    3    3  501    0 -0.26382273094E+02  0.76133156033E+02 -0.54551469650E+02  0.97417835236E+02  0.47000000000E+01 0. -1.
        -11    1    4    4    0    0 -0.34684595389E+01  0.88109502720E+01 -0.73291038855E+02  0.73900199139E+02  0.00000000000E+00 0.  1.
         12    1    4    4    0    0  0.43696907489E+02 -0.39332362272E+02 -0.29092214245E+02  0.65595818279E+02  0.00000000000E+00 0. -1.
         -5    1    5    5    0  502  0.26845683891E+02  0.40728603405E+02  0.16730882074E+02  0.51783417171E+02  0.47000000000E+01 0.  1.
         11    1    6    6    0    0 -0.34698239100E+01 -0.65982046032E+02  0.22372212312E+02  0.69758053013E+02  0.00000000000E+00 0. -1.
        -12    1    6    6    0    0 -0.37222034838E+02 -0.20358301407E+02  0.88862238168E+02  0.98470491447E+02  0.00000000000E+00 0.  1.
</event>
<event>
12    1  0.8052519E-002  0.1770392E+03  0.7818608E-02  0.1171046E+00
         21   -1    0    0  501  502  0.00000000000E+00  0.00000000000E+00  0.33664644781E+03  0.33664644781E+03  0.00000000000E+00 0.  1.
         21   -1    0    0  502  503 -0.00000000000E+00 -0.00000000000E+00 -0.53287856753E+03  0.53287856753E+03  0.00000000000E+00 0. -1.
         -6    2    1    2    0  503 -0.34581868093E+02 -0.91512337312E+01 -0.49347149794E+03  0.52426806061E+03  0.17338751227E+03 0.  0.
        -24    2    3    3    0    0 -0.84517437833E+02 -0.19261289082E+02 -0.21708226706E+03  0.24318289328E+03  0.67074692374E+02 0.  0.
          6    2    1    2  501    0  0.34581868093E+02  0.91512337312E+01  0.29723937823E+03  0.34525695473E+03  0.17196356051E+03 0.  0.
         24    2    5    5    0    0  0.31884266461E+00  0.42223024958E+02  0.28028601886E+03  0.29449077820E+03  0.79885421550E+02 0.  0.
          5    1    5    5  501    0  0.34263025429E+02 -0.33071791227E+02  0.16953359365E+02  0.50766176538E+02  0.47000000000E+01 0. -1.
        -11    1    6    6    0    0  0.10220105974E+02  0.79024222817E+01  0.24118268396E+03  0.24152843701E+03  0.00000000000E+00 0.  1.
         12    1    6    6    0    0 -0.99012633093E+01  0.34320602676E+02  0.39103334903E+02  0.52962341184E+02  0.00000000000E+00 0. -1.
         -5    1    3    3    0  503  0.49935569740E+02  0.10110055351E+02 -0.27638923088E+03  0.28108516733E+03  0.47000000000E+01 0.  1.
         13    1    4    4    0    0  0.70684930749E+00  0.58954898404E+00 -0.83414692222E+02  0.83419770334E+02  0.00000000000E+00 0. -1.
        -14    1    4    4    0    0 -0.85224287140E+02 -0.19850838066E+02 -0.13366757484E+03  0.15976312295E+03  0.00000000000E+00 0.  1.
</event>
<event>
12    1  0.8052519E-002  0.1910913E+03  0.7818608E-02  0.1157530E+00
         21   -1    0    0  503  502  0.00000000000E+00  0.00000000000E+00  0.68359521491E+02  0.68359521491E+02  0.00000000000E+00 0. -1.
         21   -1    0    0  501  503 -0.00000000000E+00 -0.00000000000E+00 -0.57999187238E+03  0.57999187238E+03  0.00000000000E+00 0. -1.
          6    2    1    2  501    0 -0.37832540228E+02 -0.73471477361E+02 -0.34766956933E+03  0.39672412190E+03  0.17229782463E+03 0.  0.
         24    2    3    3    0    0 -0.45316323558E+02  0.20964133563E+01 -0.97447530741E+02  0.13519081290E+03  0.81991283161E+02 0.  0.
         -6    2    1    2    0  502  0.37832540228E+02  0.73471477361E+02 -0.16396278156E+03  0.25162727198E+03  0.17205560491E+03 0.  0.
        -24    2    5    5    0    0  0.17680451704E+02 -0.20843698308E+02 -0.11245296396E+03  0.14218865748E+03  0.82612874794E+02 0.  0.
          5    1    3    3  501    0  0.74837833307E+01 -0.75567890717E+02 -0.25022203859E+03  0.26153330900E+03  0.47000000000E+01 0. -1.
        -11    1    4    4    0    0  0.22320294360E+02 -0.77534192982E+01 -0.37245985535E+02  0.44108666831E+02  0.00000000000E+00 0.  1.
         12    1    4    4    0    0 -0.67636617918E+02  0.98498326545E+01 -0.60201545206E+02  0.91082146066E+02  0.00000000000E+00 0. -1.
         -5    1    5    5    0  502  0.20152088523E+02  0.94315175669E+02 -0.51509817603E+02  0.10943861450E+03  0.47000000000E+01 0.  1.
         11    1    6    6    0    0  0.29068723668E+02  0.93040003822E+01 -0.10467830226E+03  0.10903715919E+03  0.00000000000E+00 0. -1.
        -12    1    6    6    0    0 -0.11388271964E+02 -0.30147698691E+02 -0.77746616943E+01  0.33151498294E+02  0.00000000000E+00 0.  1.
</event>
<event>
12    1  0.8052519E-002  0.1770012E+03  0.7818608E-02  0.1170830E+00
         21   -1    0    0  503  502  0.00000000000E+00  0.00000000000E+00  0.13644937525E+03  0.13644937525E+03  0.00000000000E+00 0. -1.
         21   -1    0    0  501  503 -0.00000000000E+00 -0.00000000000E+00 -0.30505319548E+03  0.30505319548E+03  0.00000000000E+00 0. -1.
          6    2    1    2  501    0 -0.29652616597E+02 -0.27991273736E+02 -0.19450599197E+03  0.26298670103E+03  0.17224005030E+03 0.  0.
         24    2    3    3    0    0  0.11585059004E+02 -0.23177958326E+02 -0.20386412343E+03  0.22016873145E+03  0.79007962520E+02 0.  0.
         -6    2    1    2    0  502  0.29652616597E+02  0.27991273736E+02  0.25902171749E+02  0.17851586970E+03  0.17185518368E+03 0.  0.
        -24    2    5    5    0    0 -0.26816133953E+01 -0.21252844587E+02  0.67594968074E+02  0.10619115135E+03  0.79048127513E+02 0.  0.
          5    1    3    3  501    0 -0.41237675601E+02 -0.48133154098E+01  0.93581314617E+01  0.42817969576E+02  0.47000000000E+01 0. -1.
        -13    1    4    4    0    0  0.12271038079E+02  0.26204313358E+02 -0.42491135372E+02  0.51407596708E+02  0.00000000000E+00 0.  1.
         14    1    4    4    0    0 -0.68597907576E+00 -0.49382271685E+02 -0.16137298806E+03  0.16876113474E+03  0.00000000000E+00 0. -1.
         -5    1    5    5    0  502  0.32334229992E+02  0.49244118323E+02 -0.41692796325E+02  0.72324718347E+02  0.47000000000E+01 0.  1.
         11    1    6    6    0    0  0.20647025749E+02  0.23582773081E+02  0.24937335654E+02  0.40053933240E+02  0.00000000000E+00 0. -1.
        -12    1    6    6    0    0 -0.23328639144E+02 -0.44835617668E+02  0.42657632421E+02  0.66137218113E+02  0.00000000000E+00 0.  1.
</event>
<event>
12    1  0.8052519E-002  0.2313327E+03  0.7818608E-02  0.1126060E+00
         21   -1    0    0  501  502  0.00000000000E+00  0.00000000000E+00  0.14784918971E+03  0.14784918971E+03  0.00000000000E+00 0. -1.
         21   -1    0    0  502  503 -0.00000000000E+00 -0.00000000000E+00 -0.48824267985E+03  0.48824267985E+03  0.00000000000E+00 0.  1.
         -6    2    1    2    0  503  0.11483838405E+03 -0.96974014084E+02 -0.33450732971E+03  0.40670627176E+03  0.17584943559E+03 0.  0.
        -24    2    3    3    0    0  0.23372791445E+02 -0.36756084542E+02 -0.61504569819E+02  0.11252137993E+03  0.83552089757E+02 0.  0.
          6    2    1    2  501    0 -0.11483838405E+03  0.96974014084E+02 -0.58861604272E+01  0.22938559780E+03  0.17317994034E+03 0.  0.
         24    2    5    5    0    0 -0.14129182330E+03  0.10396042375E+03 -0.20456738245E+02  0.19803298856E+03  0.89595967425E+02 0.  0.
          5    1    5    5  501    0  0.26453439253E+02 -0.69864096683E+01  0.14570577818E+02  0.31352609242E+02  0.47000000000E+01 0. -1.
        -13    1    6    6    0    0 -0.10260184456E+03  0.10079037620E+03 -0.46651056441E+02  0.15120237931E+03  0.00000000000E+00 0.  1.
         14    1    6    6    0    0 -0.38689978747E+02  0.31700475481E+01  0.26194318197E+02  0.46830609249E+02  0.00000000000E+00 0. -1.
         -5    1    3    3    0  503  0.91465592607E+02 -0.60217929542E+02 -0.27300275989E+03  0.29418489182E+03  0.47000000000E+01 0.  1.
         11    1    4    4    0    0  0.67971225886E+01 -0.26293690460E+02  0.16710679950E+02  0.31887393400E+02  0.00000000000E+00 0. -1.
        -12    1    4    4    0    0  0.16575668856E+02 -0.10462394082E+02 -0.78215249768E+02  0.80633986533E+02  0.00000000000E+00 0.  1.
</event>
<event>
12    1  0.8052519E-002  0.2264912E+03  0.7818608E-02  0.1130729E+00
         21   -1    0    0  501  502  0.00000000000E+00  0.00000000000E+00  0.20308839774E+02  0.20308839774E+02  0.00000000000E+00 0.  1.
         21   -1    0    0  502  503 -0.00000000000E+00 -0.00000000000E+00 -0.28230247562E+04  0.28230247562E+04  0.00000000000E+00 0. -1.
         -6    2    1    2    0  503  0.13843646378E+03 -0.21329046077E+02 -0.19554666087E+04  0.19685395378E+04  0.17798503190E+03 0.  0.
        -24    2    3    3    0    0  0.88993838253E+02  0.58324520667E+02 -0.10542272828E+04  0.10624249333E+04  0.77652574010E+02 0.  0.
          6    2    1    2  501    0 -0.13843646378E+03  0.21329046077E+02 -0.84724930778E+03  0.87479405819E+03  0.16677431457E+03 0.  0.
         24    2    5    5    0    0 -0.27657228315E+02  0.14447993489E+02 -0.19850997950E+03  0.21661156530E+03  0.80874541514E+02 0.  0.
          5    1    5    5  501    0 -0.11077923546E+03  0.68810525878E+01 -0.64873932828E+03  0.65818249290E+03  0.47000000000E+01 0. -1.
        -11    1    6    6    0    0 -0.96285215739E+01 -0.29185187884E+02 -0.12882337919E+03  0.13243846361E+03  0.00000000000E+00 0.  1.
         12    1    6    6    0    0 -0.18028706742E+02  0.43633181373E+02 -0.69686600317E+02  0.84173101685E+02  0.00000000000E+00 0. -1.
         -5    1    3    3    0  503  0.49442625526E+02 -0.79653566744E+02 -0.90123932591E+03  0.90611460449E+03  0.47000000000E+01 0.  1.
         11    1    4    4    0    0  0.98619285696E+02  0.37670264019E+02 -0.94276130701E+03  0.94865362187E+03  0.00000000000E+00 0. -1.
        -12    1    4    4    0    0 -0.96254474430E+01  0.20654256648E+02 -0.11146597574E+03  0.11377131143E+03  0.00000000000E+00 0.  1.
</event>
<event>
12    1  0.8052519E-002  0.1888453E+03  0.7818608E-02  0.1159694E+00
         21   -1    0    0  501  502  0.00000000000E+00  0.00000000000E+00  0.24876077213E+03  0.24876077213E+03  0.00000000000E+00 0. -1.
         21   -1    0    0  502  503 -0.00000000000E+00 -0.00000000000E+00 -0.18440255813E+03  0.18440255813E+03  0.00000000000E+00 0. -1.
         -6    2    1    2    0  503 -0.73263210260E+02 -0.22927017052E+02 -0.70716558397E+02  0.20165165650E+03  0.17253814897E+03 0.  0.
        -24    2    3    3    0    0 -0.39096755898E+00  0.39374902555E+02 -0.52024191781E+02  0.10385908258E+03  0.80806291203E+02 0.  0.
          6    2    1    2  501    0  0.73263210260E+02  0.22927017052E+02  0.13507477240E+03  0.23151167376E+03  0.17163716048E+03 0.  0.
         24    2    5    5    0    0  0.98093147833E+02  0.25369551396E+02  0.43486809999E+02  0.13646991120E+03  0.80417996919E+02 0.  0.
          5    1    5    5  501    0 -0.24829937573E+02 -0.24425343446E+01  0.91587962401E+02  0.95041762561E+02  0.47000000000E+01 0. -1.
        -11    1    6    6    0    0  0.42737592194E+02  0.19155424277E+02 -0.20939356612E+02  0.51301936816E+02  0.00000000000E+00 0.  1.
         12    1    6    6    0    0  0.55355555639E+02  0.62141271191E+01  0.64426166611E+02  0.85167974381E+02  0.00000000000E+00 0. -1.
         -5    1    3    3    0  503 -0.72872242701E+02 -0.62301919606E+02 -0.18692366616E+02  0.97792573913E+02  0.47000000000E+01 0.  1.
         11    1    4    4    0    0 -0.26314392004E+01  0.60284324826E+02 -0.16466078333E+02  0.62548029767E+02  0.00000000000E+00 0. -1.
        -12    1    4    4    0    0  0.22404716414E+01 -0.20909422272E+02 -0.35558113448E+02  0.41311052818E+02  0.00000000000E+00 0.  1.
</event>
<event>
12    1  0.8052519E-002  0.2845195E+03  0.7818608E-02  0.1093249E+00
         21   -1    0    0  501  502  0.00000000000E+00  0.00000000000E+00  0.31968483626E+03  0.31968483626E+03  0.00000000000E+00 0. -1.
         21   -1    0    0  502  503 -0.00000000000E+00 -0.00000000000E+00 -0.42503040893E+03  0.42503040893E+03  0.00000000000E+00 0.  1.
         -6    2    1    2    0  503  0.17652852854E+03 -0.14208510320E+03 -0.28942695922E+03  0.40585623977E+03  0.17204890204E+03 0.  0.
        -24    2    3    3    0    0  0.42232396564E+02 -0.65096180546E+02 -0.60297882044E+02  0.12929707922E+03  0.84028638418E+02 0.  0.
          6    2    1    2  501    0 -0.17652852854E+03  0.14208510320E+03  0.18408138655E+03  0.33885900542E+03  0.17201444923E+03 0.  0.
         24    2    5    5    0    0 -0.11205081549E+03  0.20178981987E+02  0.54096936415E+02  0.14928969054E+03  0.79989728128E+02 0.  0.
          5    1    5    5  501    0 -0.64477713054E+02  0.12190612121E+03  0.12998445013E+03  0.18956931488E+03  0.47000000000E+01 0. -1.
        -13    1    6    6    0    0 -0.94553288606E+02 -0.47417954005E-01  0.70475477978E+02  0.11792845132E+03  0.00000000000E+00 0.  1.
         14    1    6    6    0    0 -0.17497526880E+02  0.20226399941E+02 -0.16378541562E+02  0.31361239217E+02  0.00000000000E+00 0. -1.
         -5    1    3    3    0  503  0.13429613198E+03 -0.76988922652E+02 -0.22912907718E+03  0.27655916055E+03  0.47000000000E+01 0.  1.
         13    1    4    4    0    0 -0.23173883899E+02 -0.32642732211E+02 -0.30964327051E+02  0.50609943795E+02  0.00000000000E+00 0. -1.
        -14    1    4    4    0    0  0.65406280463E+02 -0.32453448334E+02 -0.29333554993E+02  0.78687135424E+02  0.00000000000E+00 0.  1.
</event>
<event>
12    1  0.8052519E-002  0.2505806E+03  0.7818608E-02  0.1113036E+00
         21   -1    0    0  503  502  0.00000000000E+00  0.00000000000E+00  0.11397826617E+03  0.11397826617E+03  0.00000000000E+00 0. -1.
         21   -1    0    0  501  503 -0.00000000000E+00 -0.00000000000E+00 -0.55109883566E+03  0.55109883566E+03  0.00000000000E+00 0.  1.
          6    2    1    2  501    0  0.18239859091E+03 -0.19426313308E+02 -0.23651351663E+03  0.34457115090E+03  0.17071615878E+03 0.  0.
         24    2    3    3    0    0  0.76375065511E+02  0.24566464114E+02 -0.18420386491E+03  0.21833826269E+03  0.85462689608E+02 0.  0.
         -6    2    1    2    0  502 -0.18239859091E+03  0.19426313308E+02 -0.20060705285E+03  0.32050595093E+03  0.16980649962E+03 0.  0.
        -24    2    5    5    0    0 -0.78823990446E+02 -0.17973812528E+02 -0.18665222446E+02  0.10778221712E+03  0.68791979128E+02 0.  0.
          5    1    3    3  501    0  0.10602352540E+03 -0.43992777422E+02 -0.52309651725E+02  0.12623288822E+03  0.47000000000E+01 0. -1.
        -13    1    4    4    0    0  0.45273151537E+02 -0.27130423760E+02 -0.11496655936E+03  0.12650307472E+03  0.00000000000E+00 0.  1.
         14    1    4    4    0    0  0.31101913973E+02  0.51696887873E+02 -0.69237305548E+02  0.91835187962E+02  0.00000000000E+00 0. -1.
         -5    1    5    5    0  502 -0.10357460047E+03  0.37400125836E+02 -0.18194183041E+03  0.21272373381E+03  0.47000000000E+01 0.  1.
         11    1    6    6    0    0 -0.50142351358E+02  0.11436613729E+02  0.16178640122E+02  0.53914746865E+02  0.00000000000E+00 0. -1.
        -12    1    6    6    0    0 -0.28681639088E+02 -0.29410426256E+02 -0.34843862568E+02  0.53867470258E+02  0.00000000000E+00 0.  1.
</event>
<event>
12    1  0.8052519E-002  0.2403683E+03  0.7818608E-02  0.1119601E+00
         21   -1    0    0  501  502  0.00000000000E+00  0.00000000000E+00  0.60326908831E+02  0.60326908831E+02  0.00000000000E+00 0.  1.
         21   -1    0    0  502  503 -0.00000000000E+00 -0.00000000000E+00 -0.13732588229E+04  0.13732588229E+04  0.00000000000E+00 0.  1.
         -6    2    1    2    0  503  0.80003420815E+02 -0.14653754049E+03 -0.10516595414E+04  0.10787792624E+04  0.17292515047E+03 0.  0.
        -24    2    3    3    0    0  0.11264025226E+03 -0.15171397736E+03 -0.84158860719E+03  0.86607325472E+03  0.78144362798E+02 0.  0.
          6    2    1    2  501    0 -0.80003420815E+02  0.14653754049E+03 -0.26127237264E+03  0.35480646940E+03  0.17248356415E+03 0.  0.
         24    2    5    5    0    0 -0.14209215430E+02  0.55330382966E+02 -0.38451042906E+02  0.10516861563E+03  0.79489634108E+02 0.  0.
          5    1    5    5  501    0 -0.65794205386E+02  0.91207157523E+02 -0.22282132974E+03  0.24963785377E+03  0.47000000000E+01 0. -1.
        -11    1    6    6    0    0 -0.28263812789E+02  0.67374716188E+01  0.14040497448E+02  0.32270299128E+02  0.00000000000E+00 0.  1.
         12    1    6    6    0    0  0.14054597360E+02  0.48592911347E+02 -0.52491540354E+02  0.72898316502E+02  0.00000000000E+00 0. -1.
         -5    1    3    3    0  503 -0.32636831447E+02  0.51764368671E+01 -0.21007093424E+03  0.21270600763E+03  0.47000000000E+01 0.  1.
         13    1    4    4    0    0 -0.40961584102E+01 -0.10806385921E+02 -0.15787503185E+03  0.15829744840E+03  0.00000000000E+00 0. -1.
        -14    1    4    4    0    0  0.11673641067E+03 -0.14090759144E+03 -0.68371357535E+03  0.70777580632E+03  0.00000000000E+00 0.  1.
</event>
<event>
12    1  0.8052519E-002  0.2022552E+03  0.7818608E-02  0.1149799E+00
         21   -1    0    0  501  502  0.00000000000E+00  0.00000000000E+00  0.12018714641E+03  0.12018714641E+03  0.00000000000E+00 0.  1.
         21   -1    0    0  502  503 -0.00000000000E+00 -0.00000000000E+00 -0.33732797912E+03  0.33732797912E+03  0.00000000000E+00 0. -1.
         -6    2    1    2    0  503  0.89247158072E+02  0.53410091308E+01 -0.15445950182E+03  0.25448951212E+03  0.18142103648E+03 0.  0.
        -24    2    3    3    0    0 -0.20150910062E+02  0.36031351339E+02 -0.76092090676E+02  0.11638312000E+03  0.77786289939E+02 0.  0.
          6    2    1    2  501    0 -0.89247158072E+02 -0.53410091308E+01 -0.62681330893E+02  0.20302561341E+03  0.17116328127E+03 0.  0.
         24    2    5    5    0    0 -0.12040087492E+03  0.31014888740E+02 -0.33015851299E+02  0.14650627103E+03  0.70112388412E+02 0.  0.
          5    1    5    5  501    0  0.31153716847E+02 -0.36355897870E+02 -0.29665479594E+02  0.56519342378E+02  0.47000000000E+01 0. -1.
        -13    1    6    6    0    0 -0.85347124458E+02  0.25537529645E+02  0.11231639883E+02  0.89791128783E+02  0.00000000000E+00 0.  1.
         14    1    6    6    0    0 -0.35053750461E+02  0.54773590949E+01 -0.44247491182E+02  0.56715142245E+02  0.00000000000E+00 0. -1.
         -5    1    3    3    0  503  0.10939806813E+03 -0.30690342208E+02 -0.78367411140E+02  0.13810639212E+03  0.47000000000E+01 0.  1.
         11    1    4    4    0    0 -0.31301454242E+02  0.24019850456E+02 -0.87789030707E+02  0.96247847591E+02  0.00000000000E+00 0. -1.
        -12    1    4    4    0    0  0.11150544180E+02  0.12011500883E+02  0.11696940031E+02  0.20135272411E+02  0.00000000000E+00 0.  1.
</event>
<event>
12    1  0.8052519E-002  0.2146293E+03  0.7818608E-02  0.1138076E+00
         21   -1    0    0  501  502  0.00000000000E+00  0.00000000000E+00  0.32084632491E+03  0.32084632491E+03  0.00000000000E+00 0.  1.
         21   -1    0    0  502  503 -0.00000000000E+00 -0.00000000000E+00 -0.25630160289E+03  0.25630160289E+03  0.00000000000E+00 0.  1.
         -6    2    1    2    0  503  0.12275209770E+03 -0.36167876523E+02 -0.15949819886E+03  0.26688838443E+03  0.17150376532E+03 0.  0.
        -24    2    3    3    0    0  0.59889898178E+02 -0.51511107664E+02 -0.16646056812E+03  0.20163782538E+03  0.81905419661E+02 0.  0.
          6    2    1    2  501    0 -0.12275209770E+03  0.36167876523E+02  0.22404292089E+03  0.31025954337E+03  0.17230659033E+03 0.  0.
         24    2    5    5    0    0 -0.22498756349E+02  0.38350688564E+02  0.45588972954E+02  0.10550750149E+03  0.84121989189E+02 0.  0.
          5    1    5    5  501    0 -0.10025334135E+03 -0.21828120409E+01  0.17845394794E+03  0.20475204188E+03  0.47000000000E+01 0. -1.
        -13    1    6    6    0    0 -0.47027827613E+02 -0.28524477118E+01  0.20381507892E+02  0.51333798728E+02  0.00000000000E+00 0.  1.
         14    1    6    6    0    0  0.24529071264E+02  0.41203136276E+02  0.25207465063E+02  0.54173702762E+02  0.00000000000E+00 0. -1.
         -5    1    3    3    0  503  0.62862199521E+02  0.15343231141E+02  0.69623692534E+01  0.65250559048E+02  0.47000000000E+01 0.  1.
         13    1    4    4    0    0  0.52132505350E+02 -0.28612348574E+00 -0.42416212171E+02  0.67208742256E+02  0.00000000000E+00 0. -1.
        -14    1    4    4    0    0  0.77573928277E+01 -0.51224984178E+02 -0.12404435595E+03  0.13442908312E+03  0.00000000000E+00 0.  1.
</event>
<event>
12    1  0.8052519E-002  0.2312242E+03  0.7818608E-02  0.1125808E+00
         21   -1    0    0  501  502  0.00000000000E+00  0.00000000000E+00  0.73327068366E+02  0.73327068366E+02  0.00000000000E+00 0. -1.
         21   -1    0    0  502  503 -0.00000000000E+00 -0.00000000000E+00 -0.11756197336E+04  0.11756197336E+04  0.00000000000E+00 0. -1.
         -6    2    1    2    0  503  0.31320173199E+02  0.15109304932E+03 -0.93608827981E+03  0.96418629278E+03  0.17199964180E+03 0.  0.
        -24    2    3    3    0    0 -0.20968938624E+02  0.14673957584E+03 -0.80720637544E+03  0.82495361263E+03  0.83630920953E+02 0.  0.
          6    2    1    2  501    0 -0.31320173199E+02 -0.15109304932E+03 -0.16620438546E+03  0.28476050922E+03  0.17220507270E+03 0.  0.
         24    2    5    5    0    0 -0.64840490497E+02 -0.92264902103E+02 -0.44147607957E+02  0.14510267911E+03  0.79929186339E+02 0.  0.
          5    1    5    5  501    0  0.33520317298E+02 -0.58828147221E+02 -0.12205677750E+03  0.13965783011E+03  0.47000000000E+01 0. -1.
        -11    1    6    6    0    0  0.21339281048E+01 -0.12225953723E+02  0.19314609208E+02  0.22958260440E+02  0.00000000000E+00 0.  1.
         12    1    6    6    0    0 -0.66974418601E+02 -0.80038948381E+02 -0.63462217165E+02  0.12214441867E+03  0.00000000000E+00 0. -1.
         -5    1    3    3    0  503  0.52289111823E+02  0.43534734849E+01 -0.12888190437E+03  0.13923268014E+03  0.47000000000E+01 0.  1.
         13    1    4    4    0    0 -0.24176331341E+02  0.12038783686E+03 -0.44069208626E+03  0.45747922483E+03  0.00000000000E+00 0. -1.
        -14    1    4    4    0    0  0.32073927169E+01  0.26351738975E+02 -0.36651428918E+03  0.36747438780E+03  0.00000000000E+00 0.  1.
</event>
<event>
12    1  0.8052519E-002  0.2181503E+03  0.7818608E-02  0.1135389E+00
         21   -1    0    0  501  502  0.00000000000E+00  0.00000000000E+00  0.20497753584E+03  0.20497753584E+03  0.00000000000E+00 0.  1.
         21   -1    0    0  502  503 -0.00000000000E+00 -0.00000000000E+00 -0.25753467967E+03  0.25753467967E+03  0.00000000000E+00 0. -1.
         -6    2    1    2    0  503 -0.13211026001E+03 -0.16335099216E+02 -0.99844502719E+02  0.23991343530E+03  0.17282816741E+03 0.  0.
        -24    2    3    3    0    0 -0.77921682318E+02  0.49542617188E+02 -0.34651686109E+02  0.13244963299E+03  0.88407615257E+02 0.  0.
          6    2    1    2  501    0  0.13211026001E+03  0.16335099216E+02  0.47287358891E+02  0.22259878020E+03  0.17202955086E+03 0.  0.
         24    2    5    5    0    0  0.11234072095E+03 -0.12827351494E+02  0.91620472712E+02  0.16577626541E+03  0.79388164257E+02 0.  0.
          5    1    5    5  501    0  0.19769539063E+02  0.29162450711E+02 -0.44333113822E+02  0.56822514792E+02  0.47000000000E+01 0. -1.
        -11    1    6    6    0    0  0.17078516582E+02  0.20492916992E+02  0.49876407359E+02  0.56562278831E+02  0.00000000000E+00 0.  1.
         12    1    6    6    0    0  0.95262204363E+02 -0.33320268486E+02  0.41744065353E+02  0.10921398658E+03  0.00000000000E+00 0. -1.
         -5    1    3    3    0  503 -0.54188577691E+02 -0.65877716404E+02 -0.65192816610E+02  0.10746380232E+03  0.47000000000E+01 0.  1.
         11    1    4    4    0    0 -0.42017552898E+02  0.69000956821E+01 -0.58050825572E+02  0.71992947027E+02  0.00000000000E+00 0. -1.
        -12    1    4    4    0    0 -0.35904129419E+02  0.42642521506E+02  0.23399139464E+02  0.60456685961E+02  0.00000000000E+00 0.  1.
</event>
<event>
12    1  0.8052519E-002  0.2435956E+03  0.7818608E-02  0.1117494E+00
         21   -1    0    0  501  502  0.00000000000E+00  0.00000000000E+00  0.19017965665E+03  0.19017965665E+03  0.00000000000E+00 0. -1.
         21   -1    0    0  502  503 -0.00000000000E+00 -0.00000000000E+00 -0.31341329373E+03  0.31341329373E+03  0.00000000000E+00 0.  1.
         -6    2    1    2    0  503  0.79379068522E+02  0.15218494925E+03 -0.81537191956E+02  0.25645446763E+03  0.17221871269E+03 0.  0.
        -24    2    3    3    0    0  0.10809194187E+03  0.16187070285E+03 -0.58886266147E+02  0.21833101869E+03  0.79466024468E+02 0.  0.
          6    2    1    2  501    0 -0.79379068522E+02 -0.15218494925E+03 -0.41696445126E+02  0.24713848275E+03  0.17285121007E+03 0.  0.
         24    2    5    5    0    0 -0.10463936839E+03 -0.86595585603E+02  0.78740836273E+01  0.16100269057E+03  0.86091069890E+02 0.  0.
          5    1    5    5  501    0  0.25260299871E+02 -0.65589363643E+02 -0.49570528753E+02  0.86135792174E+02  0.47000000000E+01 0. -1.
        -11    1    6    6    0    0  0.51353673457E+01 -0.41660592211E+02 -0.16254230605E+01  0.42007367702E+02  0.00000000000E+00 0.  1.
         12    1    6    6    0    0 -0.10977473574E+03 -0.44934993392E+02  0.94995066878E+01  0.11899532287E+03  0.00000000000E+00 0. -1.
         -5    1    3    3    0  503 -0.28712873348E+02 -0.96857536054E+01 -0.22650925809E+02  0.38123448937E+02  0.47000000000E+01 0.  1.
         13    1    4    4    0    0 -0.31481906233E+01  0.41305003562E+01  0.11707515272E+02  0.12807734040E+02  0.00000000000E+00 0. -1.
        -14    1    4    4    0    0  0.11124013249E+03  0.15774020249E+03 -0.70593781419E+02  0.20552328466E+03  0.00000000000E+00 0.  1.
</event>
<event>
12    1  0.8052519E-002  0.2261164E+03  0.7818608E-02  0.1129610E+00
         21   -1    0    0  503  502  0.00000000000E+00  0.00000000000E+00  0.11976438342E+03  0.11976438342E+03  0.00000000000E+00 0. -1.
         21   -1    0    0  501  503 -0.00000000000E+00 -0.00000000000E+00 -0.42488828592E+03  0.42488828592E+03  0.00000000000E+00 0.  1.
          6    2    1    2  501    0 -0.94920484526E+02 -0.11162856639E+03 -0.15793315734E+03  0.27581064300E+03  0.17221438207E+03 0.  0.
         24    2    3    3    0    0 -0.18588701240E+02 -0.12025854670E+02 -0.14497350766E+02  0.85171817136E+02  0.80956187290E+02 0.  0.
         -6    2    1    2    0  502  0.94920484526E+02  0.11162856639E+03 -0.14719074516E+03  0.26884202634E+03  0.17070467026E+03 0.  0.
        -24    2    5    5    0    0  0.99683220690E+02  0.68656797722E+02 -0.35584143449E+02  0.14906147657E+03  0.79388866793E+02 0.  0.
          5    1    3    3  501    0 -0.76331783285E+02 -0.99602711718E+02 -0.14343580657E+03  0.19063882587E+03  0.47000000000E+01 0. -1.
        -11    1    4    4    0    0 -0.38641227594E+02  0.12632126575E+02 -0.29299401086E+02  0.50111575467E+02  0.00000000000E+00 0.  1.
         12    1    4    4    0    0  0.20052526354E+02 -0.24657981244E+02  0.14802050320E+02  0.35060241669E+02  0.00000000000E+00 0. -1.
         -5    1    5    5    0  502 -0.47627361639E+01  0.42971768666E+02 -0.11160660172E+03  0.11978054978E+03  0.47000000000E+01 0.  1.
         11    1    6    6    0    0  0.33896211840E+02  0.56415760042E+02 -0.47403243860E+02  0.81109547445E+02  0.00000000000E+00 0. -1.
        -12    1    6    6    0    0  0.65787008850E+02  0.12241037680E+02  0.11819100411E+02  0.67951929122E+02  0.00000000000E+00 0.  1.
</event>
<event>
12    1  0.8052519E-002  0.2467308E+03  0.7818608E-02  0.1115609E+00
         21   -1    0    0  501  502  0.00000000000E+00  0.00000000000E+00  0.19755352075E+04  0.19755352075E+04  0.00000000000E+00 0.  1.
         21   -1    0    0  502  503 -0.00000000000E+00 -0.00000000000E+00 -0.33262564601E+02  0.33262564601E+02  0.00000000000E+00 0.  1.
         -6    2    1    2    0  503  0.11519973625E+02  0.17480691237E+03  0.68683336412E+03  0.72934325699E+03  0.17178867844E+03 0.  0.
        -24    2    3    3    0    0  0.36562261412E+02  0.63530539286E+02  0.49328865279E+03  0.50464080336E+03  0.77173292386E+02 0.  0.
          6    2    1    2  501    0 -0.11519973625E+02 -0.17480691237E+03  0.12554392788E+04  0.12794545151E+04  0.17374091958E+03 0.  0.
         24    2    5    5    0    0 -0.72219508534E+02 -0.13990238365E+03  0.88279255872E+03  0.90025743227E+03  0.79701996643E+02 0.  0.
          5    1    5    5  501    0  0.60699534908E+02 -0.34904528722E+02  0.37264672006E+03  0.37919708285E+03  0.47000000000E+01 0. -1.
        -13    1    6    6    0    0 -0.17655868405E+01 -0.86209044809E+02  0.49712453305E+03  0.50454724066E+03  0.00000000000E+00 0.  1.
         14    1    6    6    0    0 -0.70453921693E+02 -0.53693338841E+02  0.38566802567E+03  0.39571019160E+03  0.00000000000E+00 0. -1.
         -5    1    3    3    0  503 -0.25042287786E+02  0.11127637309E+03  0.19354471133E+03  0.22470245363E+03  0.47000000000E+01 0.  1.
         13    1    4    4    0    0  0.37833188610E+02  0.16035217837E+02  0.94703767565E+02  0.10323411240E+03  0.00000000000E+00 0. -1.
        -14    1    4    4    0    0 -0.12709271984E+01  0.47495321449E+02  0.39858488523E+03  0.40140669096E+03  0.00000000000E+00 0.  1.
</event>
<event>
12    1  0.8052519E-002  0.1803497E+03  0.7818608E-02  0.1167883E+00
         21   -1    0    0  503  502  0.00000000000E+00  0.00000000000E+00  0.45103933090E+03  0.45103933090E+03  0.00000000000E+00 0.  1.
         21   -1    0    0  501  503 -0.00000000000E+00 -0.00000000000E+00 -0.10382433673E+03  0.10382433673E+03  0.00000000000E+00 0.  1.
          6    2    1    2  501    0 -0.41527697977E+02 -0.32905230328E+02  0.18060949936E+02  0.17953927347E+03  0.17058970931E+03 0.  0.
         24    2    3    3    0    0  0.79001413030E+01  0.28769127002E+01  0.61495748835E+02  0.10449165651E+03  0.84060039827E+02 0.  0.
         -6    2    1    2    0  502  0.41527697977E+02  0.32905230328E+02  0.32915404423E+03  0.37532439416E+03  0.17239116026E+03 0.  0.
        -24    2    5    5    0    0 -0.35548389957E+02  0.39297914711E+02  0.23300182615E+03  0.25183784110E+03  0.79526304406E+02 0.  0.
          5    1    3    3  501    0 -0.49427839280E+02 -0.35782143028E+02 -0.43434798900E+02  0.75047616957E+02  0.47000000000E+01 0. -1.
        -13    1    4    4    0    0 -0.22374878196E+02  0.31134153570E+02  0.12473490477E+02  0.40318217440E+02  0.00000000000E+00 0.  1.
         14    1    4    4    0    0  0.30275019499E+02 -0.28257240870E+02  0.49022258358E+02  0.64173439068E+02  0.00000000000E+00 0. -1.
         -5    1    5    5    0  502  0.77076087933E+02 -0.63926843837E+01  0.96152218079E+02  0.12348655306E+03  0.47000000000E+01 0.  1.
         13    1    6    6    0    0 -0.23694589852E+02  0.44543046709E+02  0.60182685494E+02  0.78533255578E+02  0.00000000000E+00 0. -1.
        -14    1    6    6    0    0 -0.11853800104E+02 -0.52451319975E+01  0.17281914066E+03  0.17330458552E+03  0.00000000000E+00 0.  1.
</event>
<event>
12    1  0.8052519E-002  0.1970054E+03  0.7818608E-02  0.1152305E+00
         21   -1    0    0  503  502  0.00000000000E+00  0.00000000000E+00  0.37782311979E+03  0.37782311979E+03  0.00000000000E+00 0. -1.
         21   -1    0    0  501  503 -0.00000000000E+00 -0.00000000000E+00 -0.10855466092E+03  0.10855466092E+03  0.00000000000E+00 0.  1.
          6    2    1    2  501    0 -0.30484366782E+02  0.91924352243E+02  0.78122767224E+02  0.21192990163E+03  0.17155679320E+03 0.  0.
         24    2    3    3    0    0 -0.59484602321E+02  0.10431969706E+03  0.19999495424E+02  0.14563463061E+03  0.79927771817E+02 0.  0.
         -6    2    1    2    0  502  0.30484366782E+02 -0.91924352243E+02  0.19114569165E+03  0.27444787908E+03  0.17148055208E+03 0.  0.
        -24    2    5    5    0    0 -0.26378480149E+02 -0.36395202736E+02  0.16764033826E+03  0.19143305242E+03  0.80764444856E+02 0.  0.
          5    1    3    3  501    0  0.29000235539E+02 -0.12395344822E+02  0.58123271799E+02  0.66295271017E+02  0.47000000000E+01 0. -1.
        -13    1    4    4    0    0 -0.29765346102E+02  0.36984159173E+02 -0.30451447428E+02  0.56401192440E+02  0.00000000000E+00 0.  1.
         14    1    4    4    0    0 -0.29719256219E+02  0.67335537892E+02  0.50450942852E+02  0.89233438172E+02  0.00000000000E+00 0. -1.
         -5    1    5    5    0  502  0.56862846931E+02 -0.55529149506E+02  0.23505353396E+02  0.83014826653E+02  0.47000000000E+01 0.  1.
         11    1    6    6    0    0  0.18213154258E+02 -0.31193959611E+02  0.12271632329E+03  0.12792215643E+03  0.00000000000E+00 0. -1.
        -12    1    6    6    0    0 -0.44591634407E+02 -0.52012431256E+01  0.44924014964E+02  0.63510895991E+02  0.00000000000E+00 0.  1.
</event>
<event>
12    1  0.8052519E-002  0.2455775E+03  0.7818608E-02  0.1117405E+00
         21   -1    0    0  501  502  0.00000000000E+00  0.00000000000E+00  0.14835925495E+03  0.14835925495E+03  0.00000000000E+00 0. -1.
         21   -1    0    0  502  503 -0.00000000000E+00 -0.00000000000E+00 -0.57232159128E+03  0.57232159128E+03  0.00000000000E+00 0.  1.
         -6    2    1    2    0  503  0.16901525328E+02 -0.16364433466E+03 -0.41555445749E+03  0.48269433331E+03  0.18232713031E+03 0.  0.
        -24    2    3    3    0    0 -0.18751017574E+02 -0.14180177124E+03 -0.17979433626E+03  0.24320920610E+03  0.79783278914E+02 0.  0.
          6    2    1    2  501    0 -0.16901525328E+02  0.16364433466E+03 -0.84078788423E+01  0.23798651292E+03  0.17176075827E+03 0.  0.
         24    2    5    5    0    0  0.32964524550E+02  0.40561667609E+02  0.32093196434E+02  0.99067857021E+02  0.77798189435E+02 0.  0.
          5    1    5    5  501    0 -0.49866049878E+02  0.12308266705E+03 -0.40501075276E+02  0.13891865590E+03  0.47000000000E+01 0. -1.
        -13    1    6    6    0    0  0.40092612621E+02  0.26114227086E+02 -0.14315050112E+02  0.49942878399E+02  0.00000000000E+00 0.  1.
         14    1    6    6    0    0 -0.71280880707E+01  0.14447440523E+02  0.46408246546E+02  0.49124978622E+02  0.00000000000E+00 0. -1.
         -5    1    3    3    0  503  0.35652542902E+02 -0.21842563417E+02 -0.23576012123E+03  0.23948512720E+03  0.47000000000E+01 0.  1.
         13    1    4    4    0    0  0.17097579694E+02 -0.10489756140E+03 -0.88021941626E+02  0.13799886894E+03  0.00000000000E+00 0. -1.
        -14    1    4    4    0    0 -0.35848597268E+02 -0.36904209839E+02 -0.91772394635E+02  0.10521033717E+03  0.00000000000E+00 0.  1.
</event>
<event>
12    1  0.8052519E-002  0.2512700E+03  0.7818608E-02  0.1112903E+00
         21   -1    0    0  503  502  0.00000000000E+00  0.00000000000E+00  0.18011836783E+03  0.18011836783E+03  0.00000000000E+00 0. -1.
         21   -1    0    0  501  503 -0.00000000000E+00 -0.00000000000E+00 -0.37779491429E+03  0.37779491429E+03  0.00000000000E+00 0. -1.
          6    2    1    2  501    0  0.60773322487E+02  0.17435705550E+03 -0.18759911654E+02  0.24945294916E+03  0.16667651314E+03 0.  0.
         24    2    3    3    0    0  0.86485689328E+02  0.66009254353E+02 -0.27536299625E+02  0.13765184538E+03  0.79704370145E+02 0.  0.
         -6    2    1    2    0  502 -0.60773322487E+02 -0.17435705550E+03 -0.17891663481E+03  0.30846033295E+03  0.17041958592E+03 0.  0.
        -24    2    5    5    0    0 -0.89415288849E+02 -0.17946603480E+03 -0.17874190294E+03  0.27898857634E+03  0.75384390529E+02 0.  0.
          5    1    3    3  501    0 -0.25712366841E+02  0.10834780115E+03  0.87763879706E+01  0.11180110379E+03  0.47000000000E+01 0. -1.
        -11    1    4    4    0    0  0.65015143978E+02 -0.45873330387E+00 -0.12811389079E+02  0.66266968189E+02  0.00000000000E+00 0.  1.
         12    1    4    4    0    0  0.21470545349E+02  0.66467987657E+02 -0.14724910546E+02  0.71384877190E+02  0.00000000000E+00 0. -1.
         -5    1    5    5    0  502  0.28641966362E+02  0.51089793016E+01 -0.17473187397E+00  0.29471756612E+02  0.47000000000E+01 0.  1.
         11    1    6    6    0    0 -0.24539478480E+02 -0.10458585076E+03 -0.55673007037E+02  0.12099533006E+03  0.00000000000E+00 0. -1.
        -12    1    6    6    0    0 -0.64875810369E+02 -0.74880184044E+02 -0.12306889590E+03  0.15799324628E+03  0.00000000000E+00 0.  1.
</event>
<event>
12    1  0.8052519E-002  0.2597417E+03  0.7818608E-02  0.1107738E+00
         21   -1    0    0  501  502  0.00000000000E+00  0.00000000000E+00  0.15637090160E+03  0.15637090160E+03  0.00000000000E+00 0.  1.
         21   -1    0    0  502  503 -0.00000000000E+00 -0.00000000000E+00 -0.60700878500E+03  0.60700878500E+03  0.00000000000E+00 0. -1.
         -6    2    1    2    0  503 -0.96921711044E+02  0.16459305977E+03 -0.43248991817E+03  0.50300476067E+03  0.17170197011E+03 0.  0.
        -24    2    3    3    0    0 -0.40572395021E+01  0.94904972474E+02 -0.13343805196E+03  0.18217092786E+03  0.79731538652E+02 0.  0.
          6    2    1    2  501    0  0.96921711044E+02 -0.16459305977E+03 -0.18147965229E+02  0.26037492593E+03  0.17601437445E+03 0.  0.
         24    2    5    5    0    0  0.83825078260E+02 -0.29815217895E+02  0.15660029924E+02  0.12072658549E+03  0.80087957547E+02 0.  0.
          5    1    5    5  501    0  0.13096632785E+02 -0.13477784187E+03 -0.33807995153E+02  0.13964834044E+03  0.47000000000E+01 0. -1.
        -13    1    6    6    0    0  0.74164983445E+02 -0.38890685517E+02 -0.17024995604E+02  0.85456308514E+02  0.00000000000E+00 0.  1.
         14    1    6    6    0    0  0.96600948142E+01  0.90754676220E+01  0.32685025528E+02  0.35270276979E+02  0.00000000000E+00 0. -1.
         -5    1    3    3    0  503 -0.92864471542E+02  0.69688087293E+02 -0.29905186621E+03  0.32083383280E+03  0.47000000000E+01 0.  1.
         13    1    4    4    0    0 -0.28307751715E+02  0.65789367639E+02 -0.12387717607E+03  0.14309131508E+03  0.00000000000E+00 0. -1.
        -14    1    4    4    0    0  0.24250512213E+02  0.29115604835E+02 -0.95608758925E+01  0.39079612784E+02  0.00000000000E+00 0.  1.
</event>
<event>
12    1  0.8052519E-002  0.2584836E+03  0.7818608E-02  0.1108188E+00
         21   -1    0    0  501  502  0.00000000000E+00  0.00000000000E+00  0.59681357105E+03  0.59681357105E+03  0.00000000000E+00 0.  1.
         21   -1    0    0  502  503 -0.00000000000E+00 -0.00000000000E+00 -0.11647467141E+03  0.11647467141E+03  0.00000000000E+00 0. -1.
         -6    2    1    2    0  503  0.18669197147E+03  0.46548670736E+02  0.31367638014E+03  0.40645620973E+03  0.17260680175E+03 0.  0.
        -24    2    3    3    0    0  0.46686824569E+02  0.43378626527E+02  0.64202033017E+02  0.12032506810E+03  0.79340129451E+02 0.  0.
          6    2    1    2  501    0 -0.18669197147E+03 -0.46548670736E+02  0.16666251949E+03  0.30683203273E+03  0.17131500211E+03 0.  0.
         24    2    5    5    0    0 -0.12484575975E+03  0.24692391516E+02  0.52745285011E+02  0.15884734039E+03  0.79083718497E+02 0.  0.
          5    1    5    5  501    0 -0.61846211717E+02 -0.71241062253E+02  0.11391723448E+03  0.14798469234E+03  0.47000000000E+01 0. -1.
        -13    1    6    6    0    0 -0.66985463092E+02  0.40859324239E+02  0.59388138507E+02  0.98404713497E+02  0.00000000000E+00 0.  1.
         14    1    6    6    0    0 -0.57860296662E+02 -0.16166932723E+02 -0.66428534959E+01  0.60442626896E+02  0.00000000000E+00 0. -1.
         -5    1    3    3    0  503  0.14000514690E+03  0.31700442094E+01  0.24947434713E+03  0.28613114164E+03  0.47000000000E+01 0.  1.
         13    1    4    4    0    0 -0.16802283656E+02  0.13151570460E+02  0.41102175082E+02  0.46310574798E+02  0.00000000000E+00 0. -1.
        -14    1    4    4    0    0  0.63489108225E+02  0.30227056067E+02  0.23099857935E+02  0.74014493299E+02  0.00000000000E+00 0.  1.
</event>
<event>
12    1  0.8052519E-002  0.1882425E+03  0.7818608E-02  0.1160597E+00
         21   -1    0    0  503  502  0.00000000000E+00  0.00000000000E+00  0.14760642992E+03  0.14760642992E+03  0.00000000000E+00 0. -1.
         21   -1    0    0  501  503 -0.00000000000E+00 -0.00000000000E+00 -0.12446335968E+04  0.12446335968E+04  0.00000000000E+00 0. -1.
          6    2    1    2  501    0  0.64723462589E+01  0.71131189544E+02 -0.11754912508E+04  0.11904683559E+04  0.17416569202E+03 0.  0.
         24    2    3    3    0    0  0.15011240945E+02  0.98580216983E+02 -0.11182942134E+04  0.11262814965E+04  0.89356953367E+02 0.  0.
         -6    2    1    2    0  502 -0.64723462589E+01 -0.71131189544E+02  0.78464083878E+02  0.20177167088E+03  0.17162067859E+03 0.  0.
        -24    2    5    5    0    0 -0.22569770277E+02 -0.11104857663E+03  0.80014349521E+02  0.15844710308E+03  0.76563747575E+02 0.  0.
          5    1    3    3  501    0 -0.85388946856E+01 -0.27449027439E+02 -0.57197037380E+02  0.64186859363E+02  0.47000000000E+01 0. -1.
        -11    1    4    4    0    0 -0.28195967393E+02  0.31812465574E+02 -0.19558283671E+03  0.20014917327E+03  0.00000000000E+00 0.  1.
         12    1    4    4    0    0  0.43207208337E+02  0.66767751409E+02 -0.92271137671E+03  0.92613232326E+03  0.00000000000E+00 0. -1.
         -5    1    5    5    0  502  0.16097424018E+02  0.39917387085E+02 -0.15502656430E+01  0.43324567802E+02  0.47000000000E+01 0.  1.
         11    1    6    6    0    0  0.13182164713E+02 -0.10575748910E+01  0.29329127085E+02  0.32172746646E+02  0.00000000000E+00 0. -1.
        -12    1    6    6    0    0 -0.35751934990E+02 -0.10999100174E+03  0.50685222436E+02  0.12627435643E+03  0.00000000000E+00 0.  1.
</event>
<event>
12    1  0.8052519E-002  0.2497599E+03  0.7818608E-02  0.1113995E+00
         21   -1    0    0  503  502  0.00000000000E+00  0.00000000000E+00  0.94427836731E+03  0.94427836731E+03  0.00000000000E+00 0. -1.
         21   -1    0    0  501  503 -0.00000000000E+00 -0.00000000000E+00 -0.13530478427E+03  0.13530478427E+03  0.00000000000E+00 0. -1.
          6    2    1    2  501    0  0.18010436486E+03  0.71596526072E+01  0.14534814635E+02  0.24680890781E+03  0.16797182285E+03 0.  0.
         24    2    3    3    0    0  0.44844550776E+02 -0.33585697707E+02 -0.26507261274E+02  0.99628940178E+02  0.78001653803E+02 0.  0.
         -6    2    1    2    0  502 -0.18010436486E+03 -0.71596526072E+01  0.79443876840E+03  0.83277424376E+03  0.17289054763E+03 0.  0.
        -24    2    5    5    0    0 -0.17037551305E+03 -0.28711508618E+02  0.78382381780E+03  0.80643225767E+03  0.78109171557E+02 0.  0.
          5    1    3    3  501    0  0.13525981408E+03  0.40745350314E+02  0.41042075910E+02  0.14717996763E+03  0.47000000000E+01 0. -1.
        -11    1    4    4    0    0 -0.16561627350E+02  0.10573319403E+02 -0.52801457005E+00  0.19656077509E+02  0.00000000000E+00 0.  1.
         12    1    4    4    0    0  0.61406178126E+02 -0.44159017110E+02 -0.25979246704E+02  0.79972862669E+02  0.00000000000E+00 0. -1.
         -5    1    5    5    0  502 -0.97288518056E+01  0.21551856011E+02  0.10614950605E+02  0.26341986093E+02  0.47000000000E+01 0.  1.
         13    1    6    6    0    0 -0.13618253459E+03 -0.41217380495E+01  0.45613938156E+03  0.47605231526E+03  0.00000000000E+00 0. -1.
        -14    1    6    6    0    0 -0.34192978460E+02 -0.24589770568E+02  0.32768443624E+03  0.33037994241E+03  0.00000000000E+00 0.  1.
</event>
<event>
12    1  0.8052519E-002  0.1921508E+03  0.7818608E-02  0.1156547E+00
         21   -1    0    0  503  502  0.00000000000E+00  0.00000000000E+00  0.13580689020E+03  0.13580689020E+03  0.00000000000E+00 0.  1.
         21   -1    0    0  501  503 -0.00000000000E+00 -0.00000000000E+00 -0.48765325042E+03  0.48765325042E+03  0.00000000000E+00 0.  1.
          6    2    1    2  501    0  0.33790067674E+02  0.79581322922E+02 -0.38333375994E+03  0.42879680683E+03  0.17160120749E+03 0.  0.
         24    2    3    3    0    0  0.30385322087E+02  0.46759233640E+02 -0.86955498321E+02  0.13055018775E+03  0.79827308009E+02 0.  0.
         -6    2    1    2    0  502 -0.33790067674E+02 -0.79581322922E+02  0.31487399714E+02  0.19466333378E+03  0.17154416792E+03 0.  0.
        -24    2    5    5    0    0 -0.89489360137E+01 -0.46163611922E+02 -0.47437383441E+02  0.10530430164E+03  0.81409631333E+02 0.  0.
          5    1    3    3  501    0  0.34047455868E+01  0.32822089282E+02 -0.29637826161E+03  0.29824661908E+03  0.47000000000E+01 0. -1.
        -13    1    4    4    0    0 -0.55978001468E+01  0.14351737577E+02 -0.80187744152E+02  0.81654038787E+02  0.00000000000E+00 0.  1.
         14    1    4    4    0    0  0.35983122234E+02  0.32407496063E+02 -0.67677541685E+01  0.48896148962E+02  0.00000000000E+00 0. -1.
         -5    1    5    5    0  502 -0.24841131660E+02 -0.33417711000E+02  0.78924783155E+02  0.89359032150E+02  0.47000000000E+01 0.  1.
         11    1    6    6    0    0 -0.19130932026E+02 -0.91747339371E+01 -0.61022112930E+02  0.64605468572E+02  0.00000000000E+00 0. -1.
        -12    1    6    6    0    0  0.10181996013E+02 -0.36988877985E+02  0.13584729489E+02  0.40698833063E+02  0.00000000000E+00 0.  1.
</event>
<event>
12    1  0.8052519E-002  0.2024391E+03  0.7818608E-02  0.1147729E+00
         21   -1    0    0  503  502  0.00000000000E+00  0.00000000000E+00  0.75013994105E+03  0.75013994105E+03  0.00000000000E+00 0. -1.
         21   -1    0    0  501  503 -0.00000000000E+00 -0.00000000000E+00 -0.57681185373E+02  0.57681185373E+02  0.00000000000E+00 0. -1.
          6    2    1    2  501    0  0.10855992413E+03  0.95196735937E+01  0.43985619801E+03  0.48420560688E+03  0.17060396682E+03 0.  0.
         24    2    3    3    0    0  0.36100255760E+02  0.34206263890E+02  0.36520150431E+03  0.37717643061E+03  0.80103833290E+02 0.  0.
         -6    2    1    2    0  502 -0.10855992413E+03 -0.95196735937E+01  0.25260255767E+03  0.32361551954E+03  0.17042027765E+03 0.  0.
        -24    2    5    5    0    0 -0.12888635589E+03  0.27875865487E+02  0.22528217453E+03  0.27282099714E+03  0.79312557071E+02 0.  0.
          5    1    3    3  501    0  0.72459668369E+02 -0.24686590296E+02  0.74654693705E+02  0.10702917627E+03  0.47000000000E+01 0. -1.
        -11    1    4    4    0    0 -0.10022552871E+01  0.52576586251E+02  0.21909374911E+03  0.22531616195E+03  0.00000000000E+00 0.  1.
         12    1    4    4    0    0  0.37102511047E+02 -0.18370322361E+02  0.14610775519E+03  0.15186026866E+03  0.00000000000E+00 0. -1.
         -5    1    5    5    0  502  0.20326431760E+02 -0.37395539080E+02  0.27320383140E+02  0.50794522403E+02  0.47000000000E+01 0.  1.
         13    1    6    6    0    0 -0.90126647505E+02 -0.16487209362E+02  0.10841120524E+03  0.14194234775E+03  0.00000000000E+00 0. -1.
        -14    1    6    6    0    0 -0.38759708384E+02  0.44363074848E+02  0.11687096928E+03  0.13087864939E+03  0.00000000000E+00 0.  1.
</event>
<event>
12    1  0.8052519E-002  0.3294699E+03  0.7818608E-02  0.1071378E+00
         21   -1    0    0  501  502  0.00000000000E+00  0.00000000000E+00  0.13365801401E+04  0.13365801401E+04  0.00000000000E+00 0. -1.
         21   -1    0    0  502  503 -0.00000000000E+00 -0.00000000000E+00 -0.93463089566E+02  0.93463089566E+02  0.00000000000E+00 0.  1.
         -6    2    1    2    0  503  0.27860525871E+03  0.33254305479E+02  0.36253651749E+03  0.48984512474E+03  0.17259426615E+03 0.  0.
        -24    2    3    3    0    0  0.75890423961E+02 -0.13791962849E+02  0.17434064787E+03  0.20922717996E+03  0.86207752822E+02 0.  0.
          6    2    1    2  501    0 -0.27860525871E+03 -0.33254305479E+02  0.88058053308E+03  0.94019810495E+03  0.17269528744E+03 0.  0.
         24    2    5    5    0    0 -0.21371160817E+03 -0.14106694993E+02  0.81295107316E+03  0.84441892811E+03  0.79260510262E+02 0.  0.
          5    1    5    5  501    0 -0.64893650543E+02 -0.19147610487E+02  0.67629459920E+02  0.95779176846E+02  0.47000000000E+01 0. -1.
        -11    1    6    6    0    0 -0.83146738156E+02 -0.48283256745E+01  0.18371082164E+03  0.20170859868E+03  0.00000000000E+00 0.  1.
         12    1    6    6    0    0 -0.13056487002E+03 -0.92783693181E+01  0.62924025152E+03  0.64271032943E+03  0.00000000000E+00 0. -1.
         -5    1    3    3    0  503  0.20271483475E+03  0.47046268328E+02  0.18819586962E+03  0.28061794478E+03  0.47000000000E+01 0.  1.
         13    1    4    4    0    0  0.90535771855E+02 -0.11143769871E+02  0.17124594349E+03  0.19402598474E+03  0.00000000000E+00 0. -1.
        -14    1    4    4    0    0 -0.14645347894E+02 -0.26481929776E+01  0.30947043797E+01  0.15201195222E+02  0.00000000000E+00 0.  1.
</event>
<event>
12    1  0.8052519E-002  0.1892838E+03  0.7818608E-02  0.1159165E+00
         21   -1    0    0  501  502  0.00000000000E+00  0.00000000000E+00  0.10025693448E+04  0.10025693448E+04  0.00000000000E+00 0. -1.
         21   -1    0    0  502  503 -0.00000000000E+00 -0.00000000000E+00 -0.38398315324E+02  0.38398315324E+02  0.00000000000E+00 0.  1.
         -6    2    1    2    0  503 -0.79049733265E+02  0.78171964123E+01  0.34414614410E+03  0.39276575972E+03  0.17180920996E+03 0.  0.
        -24    2    3    3    0    0  0.19327557101E+02  0.20207082297E+01  0.10610025286E+03  0.13508450921E+03  0.81319882224E+02 0.  0.
          6    2    1    2  501    0  0.79049733265E+02 -0.78171964123E+01  0.62002488535E+03  0.64820190037E+03  0.17153680742E+03 0.  0.
         24    2    5    5    0    0  0.87857955206E+02  0.50626327496E+02  0.41856444664E+03  0.43819802272E+03  0.80865726981E+02 0.  0.
          5    1    5    5  501    0 -0.88082219409E+01 -0.58443523908E+02  0.20146043871E+03  0.21000387764E+03  0.47000000000E+01 0. -1.
        -13    1    6    6    0    0  0.85573005301E+02  0.22609297736E+02  0.21207002152E+03  0.22979907225E+03  0.00000000000E+00 0.  1.
         14    1    6    6    0    0  0.22849499048E+01  0.28017029760E+02  0.20649442512E+03  0.20839895047E+03  0.00000000000E+00 0. -1.
         -5    1    3    3    0  503 -0.98377290366E+02  0.57964881826E+01  0.23804589123E+03  0.25768125052E+03  0.47000000000E+01 0.  1.
         13    1    4    4    0    0  0.81871469665E+01  0.33711348182E+02  0.92593671443E+02  0.98879079502E+02  0.00000000000E+00 0. -1.
        -14    1    4    4    0    0  0.11140410134E+02 -0.31690639952E+02  0.13506581420E+02  0.36205429706E+02  0.00000000000E+00 0.  1.
</event>
<event>
12    1  0.8052519E-002  0.2108119E+03  0.7818608E-02  0.1141380E+00
         21   -1    0    0  503  502  0.00000000000E+00  0.00000000000E+00  0.55220397912E+03  0.55220397912E+03  0.00000000000E+00 0.  1.
         21   -1    0    0  501  503 -0.00000000000E+00 -0.00000000000E+00 -0.80928178298E+02  0.80928178298E+02  0.00000000000E+00 0.  1.
          6    2    1    2  501    0 -0.26699544275E+02  0.11779454699E+03  0.27483231687E+03  0.34497996637E+03  0.16997044990E+03 0.  0.
         24    2    3    3    0    0 -0.16503175250E+02  0.19665485377E+02  0.21112804669E+03  0.22744868240E+03  0.80614917455E+02 0.  0.
         -6    2    1    2    0  502  0.26699544275E+02 -0.11779454699E+03  0.19644348395E+03  0.28815219104E+03  0.17278084921E+03 0.  0.
        -24    2    5    5    0    0 -0.20395058252E+02 -0.13694718502E+03  0.15810111026E+03  0.22430117107E+03  0.78387271895E+02 0.  0.
          5    1    3    3  501    0 -0.10196369024E+02  0.98129061609E+02  0.63704270178E+02  0.11753128397E+03  0.47000000000E+01 0. -1.
        -13    1    4    4    0    0 -0.22496072512E+02  0.45735317411E+02  0.17638209388E+03  0.18359857183E+03  0.00000000000E+00 0.  1.
         14    1    4    4    0    0  0.59928972615E+01 -0.26069832034E+02  0.34745952810E+02  0.43850110564E+02  0.00000000000E+00 0. -1.
         -5    1    5    5    0  502  0.47094602527E+02  0.19152638032E+02  0.38342373691E+02  0.63851019969E+02  0.47000000000E+01 0.  1.
         13    1    6    6    0    0 -0.92721180528E+01 -0.71537465460E+02  0.13673618808E+03  0.15459743293E+03  0.00000000000E+00 0. -1.
        -14    1    6    6    0    0 -0.11122940200E+02 -0.65409719559E+02  0.21364922173E+02  0.69703738141E+02  0.00000000000E+00 0.  1.
</event>
<event>
12    1  0.8052519E-002  0.1772380E+03  0.7818608E-02  0.1170558E+00
         21   -1    0    0  501  502  0.00000000000E+00  0.00000000000E+00  0.13084934671E+03  0.13084934671E+03  0.00000000000E+00 0.  1.
         21   -1    0    0  502  503 -0.00000000000E+00 -0.00000000000E+00 -0.25809075712E+03  0.25809075712E+03  0.00000000000E+00 0.  1.
         -6    2    1    2    0  503 -0.39988527468E+02  0.59611169144E+01 -0.11546405747E+03  0.21153078469E+03  0.17256508064E+03 0.  0.
        -24    2    3    3    0    0 -0.36744690798E+02  0.12201651193E+01 -0.15155217882E+03  0.17468731032E+03  0.78714245071E+02 0.  0.
          6    2    1    2  501    0  0.39988527468E+02 -0.59611169144E+01 -0.11777352939E+02  0.17740931915E+03  0.17233903573E+03 0.  0.
         24    2    5    5    0    0  0.53789189869E+02 -0.56772337525E+02  0.21260039371E+02  0.11507315218E+03  0.81691283639E+02 0.  0.
          5    1    5    5  501    0 -0.13800662401E+02  0.50811220611E+02 -0.33037392310E+02  0.62336166976E+02  0.47000000000E+01 0. -1.
        -13    1    6    6    0    0 -0.69448233212E+01 -0.38169114332E+02  0.32447472923E+02  0.50576183713E+02  0.00000000000E+00 0.  1.
         14    1    6    6    0    0  0.60734013190E+02 -0.18603223193E+02 -0.11187433552E+02  0.64496968462E+02  0.00000000000E+00 0. -1.
         -5    1    3    3    0  503 -0.32438366704E+01  0.47409517952E+01  0.36088121352E+02  0.36843474361E+02  0.47000000000E+01 0.  1.
         11    1    4    4    0    0 -0.48439244709E+02  0.46876923304E+01 -0.41489760497E+02  0.63951036844E+02  0.00000000000E+00 0. -1.
        -12    1    4    4    0    0  0.11694553911E+02 -0.34675272111E+01 -0.11006241833E+03  0.11073627348E+03  0.00000000000E+00 0.  1.
</event>
<event>
12    1  0.8052519E-002  0.2096647E+03  0.7818608E-02  0.1141992E+00
         21   -1    0    0  503  502  0.00000000000E+00  0.00000000000E+00  0.66646807895E+03  0.66646807895E+03  0.00000000000E+00 0. -1.
         21   -1    0    0  501  503 -0.00000000000E+00 -0.00000000000E+00 -0.15307318359E+03  0.15307318359E+03  0.00000000000E+00 0. -1.
          6    2    1    2  501    0  0.11371324857E+03  0.38728225411E+02 -0.53090286904E+02  0.21550089423E+03  0.17085513896E+03 0.  0.
         24    2    3    3    0    0  0.12347234655E+03  0.37072923692E+02  0.96736929354E+01  0.15178757394E+03  0.79536565399E+02 0.  0.
         -6    2    1    2    0  502 -0.11371324857E+03 -0.38728225411E+02  0.56648518226E+03  0.60404036830E+03  0.17183924603E+03 0.  0.
        -24    2    5    5    0    0 -0.61393255404E+02  0.18490376940E+02  0.46969931897E+03  0.47993983054E+03  0.74925061579E+02 0.  0.
          5    1    3    3  501    0 -0.97590979804E+01  0.16553017188E+01 -0.62763979840E+02  0.63713320291E+02  0.47000000000E+01 0. -1.
        -11    1    4    4    0    0  0.11068833380E+03  0.58870943013E+02  0.14000663284E+02  0.12614956894E+03  0.00000000000E+00 0.  1.
         12    1    4    4    0    0  0.12784012744E+02 -0.21798019320E+02 -0.43269703488E+01  0.25638005003E+02  0.00000000000E+00 0. -1.
         -5    1    5    5    0  502 -0.52319993163E+02 -0.57218602351E+02  0.96785863294E+02  0.12410053776E+03  0.47000000000E+01 0.  1.
         11    1    6    6    0    0 -0.57081479708E+02  0.43351591334E+02  0.30435762177E+03  0.31268389426E+03  0.00000000000E+00 0. -1.
        -12    1    6    6    0    0 -0.43117756958E+01 -0.24861214394E+02  0.16534169720E+03  0.16725593628E+03  0.00000000000E+00 0.  1.
</event>
<event>
12    1  0.8052519E-002  0.1984362E+03  0.7818608E-02  0.1151293E+00
         21   -1    0    0  503  502  0.00000000000E+00  0.00000000000E+00  0.86969840504E+03  0.86969840504E+03  0.00000000000E+00 0. -1.
         21   -1    0    0  501  503 -0.00000000000E+00 -0.00000000000E+00 -0.49462275456E+02  0.49462275456E+02  0.00000000000E+00 0. -1.
          6    2    1    2  501    0  0.10376321294E+02  0.95110445418E+02  0.54863965403E+03  0.58342299125E+03  0.17384835883E+03 0.  0.
         24    2    3    3    0    0 -0.32740801061E+02  0.28575207805E+02  0.43745842269E+03  0.44678705056E+03  0.79751453978E+02 0.  0.
         -6    2    1    2    0  502 -0.10376321294E+02 -0.95110445418E+02  0.27159647555E+03  0.33573768924E+03  0.17263106783E+03 0.  0.
        -24    2    5    5    0    0  0.24793437254E+01 -0.49167793974E+02  0.46216266337E+02  0.10531563290E+03  0.80819676752E+02 0.  0.
          5    1    3    3  501    0  0.43117122355E+02  0.66535237613E+02  0.11118123134E+03  0.13663594069E+03  0.47000000000E+01 0. -1.
        -13    1    4    4    0    0  0.15392742744E+02  0.64553787244E+01  0.28310551782E+03  0.28359714854E+03  0.00000000000E+00 0.  1.
         14    1    4    4    0    0 -0.48133543805E+02  0.22119829081E+02  0.15435290487E+03  0.16318990202E+03  0.00000000000E+00 0. -1.
         -5    1    5    5    0  502 -0.12855665019E+02 -0.45942651444E+02  0.22538020921E+03  0.23042205634E+03  0.47000000000E+01 0.  1.
         13    1    6    6    0    0 -0.54509232073E+00 -0.69808644111E+02  0.47462774094E+02  0.84417171493E+02  0.00000000000E+00 0. -1.
        -14    1    6    6    0    0  0.30244360461E+01  0.20640850136E+02 -0.12465077567E+01  0.20898461411E+02  0.00000000000E+00 0.  1.
</event>
<event>
12    1  0.8052519E-002  0.1787210E+03  0.7818608E-02  0.1169633E+00
         21   -1    0    0  501  502  0.00000000000E+00  0.00000000000E+00  0.81502870421E+03  0.81502870421E+03  0.00000000000E+00 0.  1.
         21   -1    0    0  502  503 -0.00000000000E+00 -0.00000000000E+00 -0.48421438513E+02  0.48421438513E+02  0.00000000000E+00 0.  1.
         -6    2    1    2    0  503  0.17419025245E+02  0.44382290140E+02  0.19161248336E+03  0.26202393700E+03  0.17224398296E+03 0.  0.
        -24    2    3    3    0    0  0.60204493625E+02 -0.15637944877E+01  0.16322243040E+03  0.19296074779E+03  0.83458144579E+02 0.  0.
          6    2    1    2  501    0 -0.17419025245E+02 -0.44382290140E+02  0.57499478234E+03  0.60142620573E+03  0.16976828648E+03 0.  0.
         24    2    5    5    0    0 -0.25167236634E+02 -0.94130580066E+02  0.38510171889E+03  0.40491566485E+03  0.78481882246E+02 0.  0.
          5    1    5    5  501    0  0.77482113896E+01  0.49748289925E+02  0.18989306345E+03  0.19651054088E+03  0.47000000000E+01 0. -1.
        -13    1    6    6    0    0 -0.33781312411E+02 -0.40417864707E+02  0.29499592012E+03  0.29966209927E+03  0.00000000000E+00 0.  1.
         14    1    6    6    0    0  0.86140757771E+01 -0.53712715359E+02  0.90105798775E+02  0.10525356557E+03  0.00000000000E+00 0. -1.
         -5    1    3    3    0  503 -0.42785468380E+02  0.45946084628E+02  0.28390052962E+02  0.69063189214E+02  0.47000000000E+01 0.  1.
         13    1    4    4    0    0  0.33427968179E+02  0.12980934233E+02  0.15803264167E+03  0.16205014515E+03  0.00000000000E+00 0. -1.
        -14    1    4    4    0    0  0.26776525446E+02 -0.14544728721E+02  0.51897887298E+01  0.30910602640E+02  0.00000000000E+00 0.  1.
</event>
<event>
12    1  0.8052519E-002  0.1811259E+03  0.7818608E-02  0.1167483E+00
         21   -1    0    0  503  502  0.00000000000E+00  0.00000000000E+00  0.75999839562E+02  0.75999839562E+02  0.00000000000E+00 0.  1.
         21   -1    0    0  501  503 -0.00000000000E+00 -0.00000000000E+00 -0.46345956543E+03  0.46345956543E+03  0.00000000000E+00 0.  1.
          6    2    1    2  501    0  0.42093182035E+02 -0.35758486523E+02 -0.27069765044E+03  0.32396006993E+03  0.16918156998E+03 0.  0.
         24    2    3    3    0    0  0.41390942604E+02  0.37353387226E+02 -0.11408284237E+03  0.15105510374E+03  0.81818480660E+02 0.  0.
         -6    2    1    2    0  502 -0.42093182035E+02  0.35758486523E+02 -0.11676207542E+03  0.21549933506E+03  0.17249949514E+03 0.  0.
        -24    2    5    5    0    0  0.38788647213E+01 -0.92883064933E+01 -0.12704116669E+03  0.15015109590E+03  0.79401356023E+02 0.  0.
          5    1    3    3  501    0  0.70223943132E+00 -0.73111873749E+02 -0.15661480808E+03  0.17290496619E+03  0.47000000000E+01 0. -1.
        -11    1    4    4    0    0  0.21376696369E+02 -0.18892224513E+02 -0.73566625212E+02  0.78904547649E+02  0.00000000000E+00 0.  1.
         12    1    4    4    0    0  0.20014246235E+02  0.56245611738E+02 -0.40516217158E+02  0.72150556096E+02  0.00000000000E+00 0. -1.
         -5    1    5    5    0  502 -0.45972046756E+02  0.45046793017E+02  0.10279091263E+02  0.65348239160E+02  0.47000000000E+01 0.  1.
         13    1    6    6    0    0 -0.30259428368E+02 -0.27462426586E+02 -0.73612908991E+02  0.84194288697E+02  0.00000000000E+00 0. -1.
        -14    1    6    6    0    0  0.34138293089E+02  0.18174120092E+02 -0.53428257697E+02  0.65956807205E+02  0.00000000000E+00 0.  1.
</event>
<event>
12    1  0.8052519E-002  0.2327267E+03  0.7818608E-02  0.1125707E+00
         21   -1    0    0  501  502  0.00000000000E+00  0.00000000000E+00  0.22725717526E+04  0.22725717526E+04  0.00000000000E+00 0. -1.
         21   -1    0    0  502  503 -0.00000000000E+00 -0.00000000000E+00 -0.23289937434E+02  0.23289937434E+02  0.00000000000E+00 0.  1.
         -6    2    1    2    0  503  0.21567009236E+02 -0.15623758321E+03  0.10767137639E+04  0.11004213683E+04  0.16352168111E+03 0.  0.
        -24    2    3    3    0    0 -0.42018478649E+02 -0.12373124173E+03  0.79935197770E+03  0.81397516578E+03  0.80728021943E+02 0.  0.
          6    2    1    2  501    0 -0.21567009236E+02  0.15623758321E+03  0.11725680513E+04  0.11954403218E+04  0.17113272520E+03 0.  0.
         24    2    5    5    0    0  0.12103229857E+02  0.91001591036E+02  0.37275903693E+03  0.39225543074E+03  0.80543439133E+02 0.  0.
          5    1    5    5  501    0 -0.33670239092E+02  0.65235992170E+02  0.79980901441E+03  0.80318489105E+03  0.47000000000E+01 0. -1.
        -13    1    6    6    0    0 -0.36184453998E+01 -0.94903917552E+01  0.63221679614E+01  0.11963715581E+02  0.00000000000E+00 0.  1.
         14    1    6    6    0    0  0.15721675256E+02  0.10049198279E+03  0.36643686897E+03  0.38029171516E+03  0.00000000000E+00 0. -1.
         -5    1    3    3    0  503  0.63585487884E+02 -0.32506341482E+02  0.27736178616E+03  0.28644620250E+03  0.47000000000E+01 0.  1.
         11    1    4    4    0    0 -0.13410546932E+02 -0.83219308178E+01  0.30938628953E+03  0.30978859477E+03  0.00000000000E+00 0. -1.
        -12    1    4    4    0    0 -0.28607931717E+02 -0.11540931091E+03  0.48996568818E+03  0.50418657102E+03  0.00000000000E+00 0.  1.
</event>
<event>
12    1  0.8052519E-002  0.1749519E+03  0.7818608E-02  0.1172806E+00
         21   -1    0    0  501  502  0.00000000000E+00  0.00000000000E+00  0.16054718394E+03  0.16054718394E+03  0.00000000000E+00 0.  1.
         21   -1    0    0  502  503 -0.00000000000E+00 -0.00000000000E+00 -0.19066848819E+03  0.19066848819E+03  0.00000000000E+00 0.  1.
         -6    2    1    2    0  503  0.29524528214E+02 -0.14112070918E+02 -0.10445652601E+02  0.17516089370E+03  0.17175965391E+03 0.  0.
        -24    2    3    3    0    0  0.43383842967E+02  0.75565203719E+01  0.52634407186E+02  0.10687625124E+03  0.81932249009E+02 0.  0.
          6    2    1    2  501    0 -0.29524528214E+02  0.14112070918E+02 -0.19675651655E+02  0.17605477843E+03  0.17186420636E+03 0.  0.
         24    2    5    5    0    0 -0.19509485084E+02  0.48051540556E+02 -0.67408184396E+02  0.11645047179E+03  0.79544192107E+02 0.  0.
          5    1    5    5  501    0 -0.10015043130E+02 -0.33939469638E+02  0.47732532740E+02  0.59604306640E+02  0.47000000000E+01 0. -1.
        -11    1    6    6    0    0 -0.48012679807E+02  0.38103490314E+02 -0.29599749328E+02  0.68067896666E+02  0.00000000000E+00 0.  1.
         12    1    6    6    0    0  0.28503194723E+02  0.99480502421E+01 -0.37808435068E+02  0.48382575121E+02  0.00000000000E+00 0. -1.
         -5    1    3    3    0  503 -0.13859314754E+02 -0.21668591290E+02 -0.63080059786E+02  0.68284642465E+02  0.47000000000E+01 0.  1.
         11    1    4    4    0    0  0.15515458767E+02  0.40651367269E+02  0.45624392329E+02  0.63046397970E+02  0.00000000000E+00 0. -1.
        -12    1    4    4    0    0  0.27868384201E+02 -0.33094846897E+02  0.70100148566E+01  0.43829853266E+02  0.00000000000E+00 0.  1.
</event>
<event>
12    1  0.8052519E-002  0.1746810E+03  0.7818608E-02  0.1173508E+00
         21   -1    0    0  501  502  0.00000000000E+00  0.00000000000E+00  0.16450572005E+04  0.16450572005E+04  0.00000000000E+00 0.  1.
         21   -1    0    0  502  503 -0.00000000000E+00 -0.00000000000E+00 -0.39110784616E+02  0.39110784616E+02  0.00000000000E+00 0.  1.
         -6    2    1    2    0  503 -0.12449686391E+02 -0.14659452404E+02  0.18762431893E+03  0.25512949456E+03  0.17180884642E+03 0.  0.
        -24    2    3    3    0    0  0.28207232474E+02  0.58018558000E+01  0.36081972708E+02  0.96829706558E+02  0.85116237130E+02 0.  0.
          6    2    1    2  501    0  0.12449686391E+02  0.14659452404E+02  0.14183220970E+04  0.14290384906E+04  0.17361895786E+03 0.  0.
         24    2    5    5    0    0  0.50058475268E+02 -0.46125684253E+02  0.90663051558E+03  0.91235713972E+03  0.76047543907E+02 0.  0.
          5    1    5    5  501    0 -0.37608788877E+02  0.60785136657E+02  0.51169158140E+03  0.51668135085E+03  0.47000000000E+01 0. -1.
        -13    1    6    6    0    0  0.28497859559E+02 -0.44902930069E+02  0.26088386261E+03  0.26624948995E+03  0.00000000000E+00 0.  1.
         14    1    6    6    0    0  0.21560615709E+02 -0.12227541844E+01  0.64574665297E+03  0.64610764977E+03  0.00000000000E+00 0. -1.
         -5    1    3    3    0  503 -0.40656918865E+02 -0.20461308204E+02  0.15154234622E+03  0.15829978801E+03  0.47000000000E+01 0.  1.
         11    1    4    4    0    0  0.34593459724E+02 -0.15699109941E+02 -0.15153495127E+02  0.40899852361E+02  0.00000000000E+00 0. -1.
        -12    1    4    4    0    0 -0.63862272504E+01  0.21500965740E+02  0.51235467835E+02  0.55929854197E+02  0.00000000000E+00 0.  1.
</event>
<event>
12    1  0.8052519E-002  0.2680279E+03  0.7818608E-02  0.1103117E+00
         21   -1    0    0  501  502  0.00000000000E+00  0.00000000000E+00  0.23262967075E+04  0.23262967075E+04  0.00000000000E+00 0. -1.
         21   -1    0    0  502  503 -0.00000000000E+00 -0.00000000000E+00 -0.60513227446E+02  0.60513227446E+02  0.00000000000E+00 0.  1.
         -6    2    1    2    0  503  0.17422373861E+03  0.93825607694E+02  0.28487895712E+03  0.38785478278E+03  0.17354583418E+03 0.  0.
        -24    2    3    3    0    0  0.35681318572E+02  0.40257612616E+02  0.11869163585E+03  0.16491118454E+03  0.10106513987E+03 0.  0.
          6    2    1    2  501    0 -0.17422373861E+03 -0.93825607694E+02  0.19809045229E+04  0.19989551522E+04  0.18078112630E+03 0.  0.
         24    2    5    5    0    0 -0.92321229006E+02  0.86960482522E+01  0.63840111715E+03  0.65004589074E+03  0.80030263692E+02 0.  0.
          5    1    5    5  501    0 -0.81902509608E+02 -0.10252165595E+03  0.13425034058E+04  0.13489092614E+04  0.47000000000E+01 0. -1.
        -13    1    6    6    0    0 -0.40165063034E+02 -0.35771940337E+02  0.26408222293E+03  0.26950377450E+03  0.00000000000E+00 0.  1.
         14    1    6    6    0    0 -0.52156165971E+02  0.44467988590E+02  0.37431889423E+03  0.38054211624E+03  0.00000000000E+00 0. -1.
         -5    1    3    3    0  503  0.13854242004E+03  0.53567995079E+02  0.16618732126E+03  0.22294359824E+03  0.47000000000E+01 0.  1.
         11    1    4    4    0    0  0.35837431176E+02 -0.27743588545E+02  0.36197441381E+02  0.58002439097E+02  0.00000000000E+00 0. -1.
        -12    1    4    4    0    0 -0.15611260401E+00  0.68001201160E+02  0.82494194473E+02  0.10690874544E+03  0.00000000000E+00 0.  1.
</event>
<event>
12    1  0.8052519E-002  0.2085713E+03  0.7818608E-02  0.1143786E+00
         21   -1    0    0  501  502  0.00000000000E+00  0.00000000000E+00  0.47241206937E+03  0.47241206937E+03  0.00000000000E+00 0. -1.
         21   -1    0    0  502  503 -0.00000000000E+00 -0.00000000000E+00 -0.94288724620E+02  0.94288724620E+02  0.00000000000E+00 0.  1.
         -6    2    1    2    0  503  0.81065115585E+02  0.84233614860E+02  0.12915321003E+03  0.24532130951E+03  0.17272851068E+03 0.  0.
        -24    2    3    3    0    0 -0.48767308338E+01 -0.65696244874E+01  0.75550287821E+02  0.10920888351E+03  0.78433358834E+02 0.  0.
          6    2    1    2  501    0 -0.81065115585E+02 -0.84233614860E+02  0.24897013472E+03  0.32137948448E+03  0.16622812706E+03 0.  0.
         24    2    5    5    0    0 -0.93817850254E+02 -0.10926534460E+03  0.17569547061E+03  0.24276341656E+03  0.85583137764E+02 0.  0.
          5    1    5    5  501    0  0.12752734669E+02  0.25031729742E+02  0.73274664108E+02  0.78616067922E+02  0.47000000000E+01 0. -1.
        -11    1    6    6    0    0 -0.40113185354E+01 -0.68752827301E+02  0.77114512672E+02  0.10339095707E+03  0.00000000000E+00 0.  1.
         12    1    6    6    0    0 -0.89806531719E+02 -0.40512517301E+02  0.98580957937E+02  0.13937245949E+03  0.00000000000E+00 0. -1.
         -5    1    3    3    0  503  0.85941846419E+02  0.90803239347E+02  0.53602922212E+02  0.13611242600E+03  0.47000000000E+01 0.  1.
         11    1    4    4    0    0 -0.43817266323E+01 -0.16578722630E+02  0.90002842252E+02  0.91621859760E+02  0.00000000000E+00 0. -1.
        -12    1    4    4    0    0 -0.49500420149E+00  0.10009098142E+02 -0.14452554431E+02  0.17587023750E+02  0.00000000000E+00 0.  1.
</event>
<event>
12    1  0.8052519E-002  0.2308803E+03  0.7818608E-02  0.1126229E+00
         21   -1    0    0  501  502  0.00000000000E+00  0.00000000000E+00  0.32182255222E+03  0.32182255222E+03  0.00000000000E+00 0. -1.
         21   -1    0    0  502  503 -0.00000000000E+00 -0.00000000000E+00 -0.17165756400E+03  0.17165756400E+03  0.00000000000E+00 0.  1.
         -6    2    1    2    0  503  0.26023313313E+02 -0.14857732998E+03  0.25922977633E+02  0.23233103438E+03  0.17479494543E+03 0.  0.
        -24    2    3    3    0    0  0.49700937751E+02 -0.20430771941E+02  0.39083652486E+02  0.10126821128E+03  0.76420671738E+02 0.  0.
          6    2    1    2  501    0 -0.26023313313E+02  0.14857732998E+03  0.12424201059E+03  0.26114908185E+03  0.17323489814E+03 0.  0.
         24    2    5    5    0    0 -0.60506560070E+02  0.76888405983E+02  0.13030600366E+03  0.18122875813E+03  0.79317951296E+02 0.  0.
          5    1    5    5  501    0  0.34483246757E+02  0.71688923995E+02 -0.60639930721E+01  0.79920323714E+02  0.47000000000E+01 0. -1.
        -11    1    6    6    0    0 -0.14825464103E+02  0.45294142517E+02  0.99662247798E+01  0.48689622802E+02  0.00000000000E+00 0.  1.
         12    1    6    6    0    0 -0.45681095967E+02  0.31594263465E+02  0.12033977888E+03  0.13253913533E+03  0.00000000000E+00 0. -1.
         -5    1    3    3    0  503 -0.23677624438E+02 -0.12814655804E+03 -0.13160674853E+02  0.13106282310E+03  0.47000000000E+01 0.  1.
         13    1    4    4    0    0  0.32471934455E+02 -0.10250119852E+02 -0.19583961827E+02  0.39281332018E+02  0.00000000000E+00 0. -1.
        -14    1    4    4    0    0  0.17229003296E+02 -0.10180652090E+02  0.58667614313E+02  0.61986879263E+02  0.00000000000E+00 0.  1.
</event>
<event>
12    1  0.8052519E-002  0.2764962E+03  0.7818608E-02  0.1097722E+00
         21   -1    0    0  503  502  0.00000000000E+00  0.00000000000E+00  0.11280949797E+04  0.11280949797E+04  0.00000000000E+00 0.  1.
         21   -1    0    0  501  503 -0.00000000000E+00 -0.00000000000E+00 -0.68045550119E+02  0.68045550119E+02  0.00000000000E+00 0.  1.
          6    2    1    2  501    0 -0.12313068388E+02  0.21656300659E+03  0.57845313566E+03  0.64081619704E+03  0.17025340160E+03 0.  0.
         24    2    3    3    0    0 -0.40637144556E+02  0.20784032756E+03  0.56410750566E+03  0.60755622830E+03  0.77835167700E+02 0.  0.
         -6    2    1    2    0  502  0.12313068388E+02 -0.21656300659E+03  0.48159629388E+03  0.55532433274E+03  0.17146129818E+03 0.  0.
        -24    2    5    5    0    0 -0.37542832637E+02 -0.20344204291E+03  0.35374569556E+03  0.41739088485E+03  0.79252788737E+02 0.  0.
          5    1    3    3  501    0  0.28324076167E+02  0.87226790357E+01  0.14345630002E+02  0.33259968738E+02  0.47000000000E+01 0. -1.
        -13    1    4    4    0    0  0.13615395814E+02  0.12872659923E+03  0.30968034087E+03  0.33564539305E+03  0.00000000000E+00 0.  1.
         14    1    4    4    0    0 -0.54252540370E+02  0.79113728329E+02  0.25442716478E+03  0.27191083525E+03  0.00000000000E+00 0. -1.
         -5    1    5    5    0  502  0.49855901026E+02 -0.13120963680E+02  0.12785059832E+03  0.13793344789E+03  0.47000000000E+01 0.  1.
         11    1    6    6    0    0  0.16256573400E+02 -0.49365329541E+02  0.47668157614E+02  0.70522799077E+02  0.00000000000E+00 0. -1.
        -12    1    6    6    0    0 -0.53799406037E+02 -0.15407671337E+03  0.30607753794E+03  0.34686808577E+03  0.00000000000E+00 0.  1.
</event>
<event>
12    1  0.8052519E-002  0.1968868E+03  0.7818608E-02  0.1152615E+00
         21   -1    0    0  503  502  0.00000000000E+00  0.00000000000E+00  0.63692173158E+03  0.63692173158E+03  0.00000000000E+00 0. -1.
         21   -1    0    0  501  503 -0.00000000000E+00 -0.00000000000E+00 -0.96251522598E+02  0.96251522598E+02  0.00000000000E+00 0. -1.
          6    2    1    2  501    0  0.86706525902E+02 -0.38121758131E+02  0.46606489052E+02  0.20132423371E+03  0.17142926290E+03 0.  0.
         24    2    3    3    0    0  0.24583097150E+01  0.28334734689E+02  0.40464593932E+02  0.93741520208E+02  0.79631581501E+02 0.  0.
         -6    2    1    2    0  502 -0.86706525902E+02  0.38121758131E+02  0.49406371993E+03  0.53184902047E+03  0.17260686877E+03 0.  0.
        -24    2    5    5    0    0 -0.11408896950E+02  0.25109352720E+02  0.40883845280E+03  0.41728684618E+03  0.78859298656E+02 0.  0.
          5    1    3    3  501    0  0.84248216187E+02 -0.66456492819E+02  0.61418951204E+01  0.10758271350E+03  0.47000000000E+01 0. -1.
        -11    1    4    4    0    0  0.27644759012E+02  0.49751686153E+01  0.50645296691E+02  0.57913133920E+02  0.00000000000E+00 0.  1.
         12    1    4    4    0    0 -0.25186449297E+02  0.23359566073E+02 -0.10180702759E+02  0.35828386288E+02  0.00000000000E+00 0. -1.
         -5    1    5    5    0  502 -0.75297628952E+02  0.13012405411E+02  0.85225267131E+02  0.11456217429E+03  0.47000000000E+01 0.  1.
         13    1    6    6    0    0 -0.36785893045E+02 -0.11855670946E+02  0.19692316371E+03  0.20068007192E+03  0.00000000000E+00 0. -1.
        -14    1    6    6    0    0  0.25376996095E+02  0.36965023666E+02  0.21191528909E+03  0.21660677426E+03  0.00000000000E+00 0.  1.
</event>
<event>
12    1  0.8052519E-002  0.2394446E+03  0.7818608E-02  0.1120660E+00
         21   -1    0    0  501  502  0.00000000000E+00  0.00000000000E+00  0.81481800217E+02  0.81481800217E+02  0.00000000000E+00 0. -1.
         21   -1    0    0  502  503 -0.00000000000E+00 -0.00000000000E+00 -0.87682191125E+03  0.87682191125E+03  0.00000000000E+00 0. -1.
         -6    2    1    2    0  503  0.12963156071E+02  0.16297216061E+03 -0.17752214293E+03  0.29570823727E+03  0.17088382546E+03 0.  0.
        -24    2    3    3    0    0 -0.10143943672E+02  0.12693786645E+03 -0.41974354259E+02  0.15348411333E+03  0.74695415502E+02 0.  0.
          6    2    1    2  501    0 -0.12963156071E+02 -0.16297216061E+03 -0.61781796810E+03  0.66259547420E+03  0.17494499757E+03 0.  0.
         24    2    5    5    0    0  0.15444647081E+02 -0.10984353546E+02 -0.17898594023E+03  0.19729671484E+03  0.80813573988E+02 0.  0.
          5    1    5    5  501    0 -0.28407803152E+02 -0.15198780707E+03 -0.43883202787E+03  0.46529875936E+03  0.47000000000E+01 0. -1.
        -13    1    6    6    0    0 -0.26072621089E+02  0.17478780893E+02 -0.52579741657E+02  0.61236578813E+02  0.00000000000E+00 0.  1.
         14    1    6    6    0    0  0.41517268169E+02 -0.28463134439E+02 -0.12640619858E+03  0.13606013603E+03  0.00000000000E+00 0. -1.
         -5    1    3    3    0  503  0.23107099743E+02  0.36034294161E+02 -0.13554778868E+03  0.14222412393E+03  0.47000000000E+01 0.  1.
         13    1    4    4    0    0 -0.17090748610E+02  0.24958168875E+02  0.17776073451E+02  0.35085505112E+02  0.00000000000E+00 0. -1.
        -14    1    4    4    0    0  0.69468049381E+01  0.10197969758E+03 -0.59750427709E+02  0.11839860822E+03  0.00000000000E+00 0.  1.
</event>
<event>
12    1  0.8052519E-002  0.2279825E+03  0.7818608E-02  0.1128280E+00
         21   -1    0    0  503  502  0.00000000000E+00  0.00000000000E+00  0.72011734088E+03  0.72011734088E+03  0.00000000000E+00 0.  1.
         21   -1    0    0  501  503 -0.00000000000E+00 -0.00000000000E+00 -0.75322107023E+02  0.75322107023E+02  0.00000000000E+00 0.  1.
          6    2    1    2  501    0  0.12344994422E+03 -0.82595605240E+02  0.40919088176E+03  0.46841561432E+03  0.17295689432E+03 0.  0.
         24    2    3    3    0    0  0.14162719989E+03 -0.88075516483E+02  0.25668751872E+03  0.31466319064E+03  0.72862067789E+02 0.  0.
         -6    2    1    2    0  502 -0.12344994422E+03  0.82595605240E+02  0.23560435210E+03  0.32702383358E+03  0.17138627212E+03 0.  0.
        -24    2    5    5    0    0 -0.15425809052E+02 -0.58136472455E+01  0.53959066317E+02  0.97889572614E+02  0.79993959207E+02 0.  0.
          5    1    3    3  501    0 -0.18177255671E+02  0.54799112429E+01  0.15250336304E+03  0.15375242368E+03  0.47000000000E+01 0. -1.
        -13    1    4    4    0    0  0.92798654302E+02 -0.94842004439E+02  0.18901319018E+03  0.23093848122E+03  0.00000000000E+00 0.  1.
         14    1    4    4    0    0  0.48828545585E+02  0.67664879567E+01  0.67674328539E+02  0.83724709414E+02  0.00000000000E+00 0. -1.
         -5    1    5    5    0  502 -0.10802413516E+03  0.88409252485E+02  0.18164528578E+03  0.22913426097E+03  0.47000000000E+01 0.  1.
         13    1    6    6    0    0 -0.79661616702E+01 -0.37794507080E+02  0.50146080152E+01  0.38949079460E+02  0.00000000000E+00 0. -1.
        -14    1    6    6    0    0 -0.74596473819E+01  0.31980859835E+02  0.48944458302E+02  0.58940493154E+02  0.00000000000E+00 0.  1.
</event>
<event>
12    1  0.8052519E-002  0.2057644E+03  0.7818608E-02  0.1145691E+00
         21   -1    0    0  501  502  0.00000000000E+00  0.00000000000E+00  0.95861976210E+02  0.95861976210E+02  0.00000000000E+00 0.  1.
         21   -1    0    0  502  503 -0.00000000000E+00 -0.00000000000E+00 -0.90736491874E+03  0.90736491874E+03  0.00000000000E+00 0.  1.
         -6    2    1    2    0  503  0.11486349036E+03  0.11815843395E+02 -0.76632903093E+03  0.79256209612E+03  0.16601583355E+03 0.  0.
        -24    2    3    3    0    0  0.11817148318E+03 -0.38585224382E+02 -0.49466046560E+03  0.51619800685E+03  0.79486395517E+02 0.  0.
          6    2    1    2  501    0 -0.11486349036E+03 -0.11815843395E+02 -0.45173911596E+02  0.21066479882E+03  0.17031071487E+03 0.  0.
         24    2    5    5    0    0 -0.12635118774E+03 -0.51905233403E+02 -0.55035392232E+02  0.16755487905E+03  0.79918503475E+02 0.  0.
          5    1    5    5  501    0  0.11487697379E+02  0.40089390007E+02  0.98614806356E+01  0.43109919770E+02  0.47000000000E+01 0. -1.
        -11    1    6    6    0    0 -0.13858569219E+02  0.18526930155E+02  0.17327336777E+01  0.23201496671E+02  0.00000000000E+00 0.  1.
         12    1    6    6    0    0 -0.11249261852E+03 -0.70432163558E+02 -0.56768125910E+02  0.14435338238E+03  0.00000000000E+00 0. -1.
         -5    1    3    3    0  503 -0.33079928200E+01  0.50401067777E+02 -0.27166856533E+03  0.27636408927E+03  0.47000000000E+01 0.  1.
         11    1    4    4    0    0  0.51614440982E+01 -0.26887539978E+02 -0.47457389979E+02  0.54788540543E+02  0.00000000000E+00 0. -1.
        -12    1    4    4    0    0  0.11301003909E+03 -0.11697684404E+02 -0.44720307562E+03  0.46140946631E+03  0.00000000000E+00 0.  1.
</event>
<event>
12    1  0.8052519E-002  0.2005991E+03  0.7818608E-02  0.1149702E+00
         21   -1    0    0  503  502  0.00000000000E+00  0.00000000000E+00  0.15182397818E+04  0.15182397818E+04  0.00000000000E+00 0.  1.
         21   -1    0    0  501  503 -0.00000000000E+00 -0.00000000000E+00 -0.31966077874E+02  0.31966077874E+02  0.00000000000E+00 0.  1.
          6    2    1    2  501    0 -0.98702028964E+02  0.29847345508E+02  0.41769520161E+03  0.46336732203E+03  0.17206696115E+03 0.  0.
         24    2    3    3    0    0 -0.56515584726E+02  0.65989163908E+02  0.37477979454E+03  0.39301286745E+03  0.80315867142E+02 0.  0.
         -6    2    1    2    0  502  0.98702028964E+02 -0.29847345508E+02  0.10685785023E+04  0.10868385376E+04  0.16948462098E+03 0.  0.
        -24    2    5    5    0    0 -0.13795463212E+02 -0.64939577359E+01  0.42968499747E+03  0.43767902951E+03  0.81861160098E+02 0.  0.
          5    1    3    3  501    0 -0.42186444238E+02 -0.36141818401E+02  0.42915407065E+02  0.70354454573E+02  0.47000000000E+01 0. -1.
        -13    1    4    4    0    0  0.10551592767E+02 -0.95802754292E+00  0.58408189242E+01  0.12098309485E+02  0.00000000000E+00 0.  1.
         14    1    4    4    0    0 -0.67067177493E+02  0.66947191451E+02  0.36893897562E+03  0.38091455797E+03  0.00000000000E+00 0. -1.
         -5    1    5    5    0  502  0.11249749218E+03 -0.23353387772E+02  0.63889350483E+03  0.64915950812E+03  0.47000000000E+01 0.  1.
         13    1    6    6    0    0  0.59116631645E+01 -0.21034890081E+01 -0.11431654362E+01  0.63780290523E+01  0.00000000000E+00 0. -1.
        -14    1    6    6    0    0 -0.19707126376E+02 -0.43904687278E+01  0.43082816290E+03  0.43130100046E+03  0.00000000000E+00 0.  1.
</event>
<event>
12    1  0.8052519E-002  0.2054055E+03  0.7818608E-02  0.1145574E+00
         21   -1    0    0  501  502  0.00000000000E+00  0.00000000000E+00  0.57259501510E+02  0.57259501510E+02  0.00000000000E+00 0. -1.
         21   -1    0    0  502  503 -0.00000000000E+00 -0.00000000000E+00 -0.87678915696E+03  0.87678915696E+03  0.00000000000E+00 0.  1.
         -6    2    1    2    0  503 -0.52565701668E+02  0.93918751953E+02 -0.60130181729E+03  0.63541741510E+03  0.17495008141E+03 0.  0.
        -24    2    3    3    0    0 -0.85797232625E+02  0.18109331099E+02 -0.40999963514E+03  0.42692276809E+03  0.80462637902E+02 0.  0.
          6    2    1    2  501    0  0.52565701668E+02 -0.93918751953E+02 -0.21822783816E+03  0.29863124337E+03  0.17312811789E+03 0.  0.
         24    2    5    5    0    0  0.29548030115E+02 -0.11663637388E+03 -0.22252540871E+03  0.26566971030E+03  0.81152373056E+02 0.  0.
          5    1    5    5  501    0  0.23017671552E+02  0.22717621926E+02  0.42975705465E+01  0.32961533069E+02  0.47000000000E+01 0. -1.
        -11    1    6    6    0    0  0.83483612994E+01  0.12015069714E+02 -0.25754516385E+02  0.29620130838E+02  0.00000000000E+00 0.  1.
         12    1    6    6    0    0  0.21199668816E+02 -0.12865144359E+03 -0.19677089232E+03  0.23604957946E+03  0.00000000000E+00 0. -1.
         -5    1    3    3    0  503  0.33231530957E+02  0.75809420854E+02 -0.19130218214E+03  0.20849464701E+03  0.47000000000E+01 0.  1.
         13    1    4    4    0    0 -0.36059358564E+02  0.47769457618E+02 -0.17747672335E+03  0.18729705217E+03  0.00000000000E+00 0. -1.
        -14    1    4    4    0    0 -0.49737874060E+02 -0.29660126518E+02 -0.23252291179E+03  0.23962571592E+03  0.00000000000E+00 0.  1.
</event>
<event>
12    1  0.8052519E-002  0.1880389E+03  0.7818608E-02  0.1161647E+00
         21   -1    0    0  503  502  0.00000000000E+00  0.00000000000E+00  0.88587947205E+03  0.88587947205E+03  0.00000000000E+00 0.  1.
         21   -1    0    0  501  503 -0.00000000000E+00 -0.00000000000E+00 -0.39094526363E+02  0.39094526363E+02  0.00000000000E+00 0.  1.
          6    2    1    2  501    0  0.60677412765E+02 -0.23600716140E+02  0.38047875850E+03  0.42440864498E+03  0.17640824822E+03 0.  0.
         24    2    3    3    0    0  0.11864534950E+02 -0.12122002414E+02  0.64667198517E+02  0.10460637899E+03  0.80454569976E+02 0.  0.
         -6    2    1    2    0  502 -0.60677412765E+02  0.23600716140E+02  0.46630618718E+03  0.50056535343E+03  0.16995726119E+03 0.  0.
        -24    2    5    5    0    0 -0.10147189897E+03  0.17257988330E+02  0.26799058739E+03  0.29794356926E+03  0.79730992040E+02 0.  0.
          5    1    3    3  501    0  0.48812877816E+02 -0.11478713726E+02  0.31581155999E+03  0.31980226599E+03  0.47000000000E+01 0. -1.
        -11    1    4    4    0    0 -0.33805080772E+00 -0.19584029491E+02  0.80745202112E+02  0.83086919269E+02  0.00000000000E+00 0.  1.
         12    1    4    4    0    0  0.12202585757E+02  0.74620270767E+01 -0.16078003595E+02  0.21519459725E+02  0.00000000000E+00 0. -1.
         -5    1    5    5    0  502  0.40794486202E+02  0.63427278107E+01  0.19831559979E+03  0.20262178417E+03  0.47000000000E+01 0.  1.
         13    1    6    6    0    0 -0.40921461664E+02 -0.31187111838E+02  0.87607293474E+02  0.10159842439E+03  0.00000000000E+00 0. -1.
        -14    1    6    6    0    0 -0.60550437303E+02  0.48445100168E+02  0.18038329392E+03  0.19634514487E+03  0.00000000000E+00 0.  1.
</event>
<event>
12    1  0.8052519E-002  0.1858301E+03  0.7818608E-02  0.1162776E+00
         21   -1    0    0  501  502  0.00000000000E+00  0.00000000000E+00  0.99810559304E+03  0.99810559304E+03  0.00000000000E+00 0.  1.
         21   -1    0    0  502  503 -0.00000000000E+00 -0.00000000000E+00 -0.86194960094E+02  0.86194960094E+02  0.00000000000E+00 0.  1.
         -6    2    1    2    0  503  0.46216889981E+02  0.51954506316E+02  0.33842430828E+02  0.18678364253E+03  0.17002219663E+03 0.  0.
        -24    2    3    3    0    0  0.13404976062E+02  0.31172273545E+02  0.85507281101E+02  0.12197724124E+03  0.80097117541E+02 0.  0.
          6    2    1    2  501    0 -0.46216889981E+02 -0.51954506316E+02  0.87806820212E+03  0.89751691060E+03  0.17232981636E+03 0.  0.
         24    2    5    5    0    0 -0.95293740006E+02 -0.50262816329E+02  0.56651903287E+03  0.58208645253E+03  0.79205909022E+02 0.  0.
          5    1    5    5  501    0  0.49076850025E+02 -0.16916899869E+01  0.31154916925E+03  0.31543045808E+03  0.47000000000E+01 0. -1.
        -11    1    6    6    0    0 -0.68183968517E+02 -0.10797975154E+02  0.18295837853E+03  0.19554901714E+03  0.00000000000E+00 0.  1.
         12    1    6    6    0    0 -0.27109771489E+02 -0.39464841176E+02  0.38356065434E+03  0.38653743539E+03  0.00000000000E+00 0. -1.
         -5    1    3    3    0  503  0.32811913919E+02  0.20782232771E+02 -0.51664850273E+02  0.64806401286E+02  0.47000000000E+01 0.  1.
         11    1    4    4    0    0 -0.28145714928E+02  0.95103625044E+01  0.63711663624E+02  0.70297968289E+02  0.00000000000E+00 0. -1.
        -12    1    4    4    0    0  0.41550690990E+02  0.21661911041E+02  0.21795617477E+02  0.51679272953E+02  0.00000000000E+00 0.  1.
</event>
<event>
12    1  0.8052519E-002  0.2240593E+03  0.7818608E-02  0.1131004E+00
         21   -1    0    0  503  502  0.00000000000E+00  0.00000000000E+00  0.14262864439E+03  0.14262864439E+03  0.00000000000E+00 0. -1.
         21   -1    0    0  501  503 -0.00000000000E+00 -0.00000000000E+00 -0.39113042097E+03  0.39113042097E+03  0.00000000000E+00 0. -1.
          6    2    1    2  501    0  0.58296972807E+01  0.14287182930E+03 -0.20987158081E+03  0.30699944110E+03  0.17249994616E+03 0.  0.
         24    2    3    3    0    0  0.44094308547E+02  0.21328159416E+02 -0.11511821454E+03  0.14813681307E+03  0.79329147463E+02 0.  0.
         -6    2    1    2    0  502 -0.58296972807E+01 -0.14287182930E+03 -0.38630195772E+02  0.22675962427E+03  0.17170116538E+03 0.  0.
        -24    2    5    5    0    0 -0.42088054510E+02 -0.46902224119E+02  0.25341945085E+02  0.10576640796E+03  0.81074631737E+02 0.  0.
          5    1    3    3  501    0 -0.38264611266E+02  0.12154366988E+03 -0.94753366271E+02  0.15886262803E+03  0.47000000000E+01 0. -1.
        -13    1    4    4    0    0  0.25396490490E+02  0.51390749947E+02 -0.63527952664E+02  0.85567468579E+02  0.00000000000E+00 0.  1.
         14    1    4    4    0    0  0.18697818057E+02 -0.30062590531E+02 -0.51590261877E+02  0.62569344491E+02  0.00000000000E+00 0. -1.
         -5    1    5    5    0  502  0.36258357229E+02 -0.95969605181E+02 -0.63972140856E+02  0.12099321631E+03  0.47000000000E+01 0.  1.
         11    1    6    6    0    0 -0.13225217841E+01 -0.59884129757E+02  0.15249608037E+02  0.61809454018E+02  0.00000000000E+00 0. -1.
        -12    1    6    6    0    0 -0.40765532726E+02  0.12981905638E+02  0.10092337047E+02  0.43956953938E+02  0.00000000000E+00 0.  1.
</event>
<event>
12    1  0.8052519E-002  0.1798385E+03  0.7818608E-02  0.1168009E+00
         21   -1    0    0  503  502  0.00000000000E+00  0.00000000000E+00  0.22624709236E+03  0.22624709236E+03  0.00000000000E+00 0. -1.
         21   -1    0    0  501  503 -0.00000000000E+00 -0.00000000000E+00 -0.16802351846E+03  0.16802351846E+03  0.00000000000E+00 0.  1.
          6    2    1    2  501    0  0.40002764540E+02 -0.37046333149E+02 -0.47301709632E+02  0.18575807127E+03  0.17116061854E+03 0.  0.
         24    2    3    3    0    0 -0.39917146056E+02 -0.35920966425E+02 -0.41262363869E+02  0.10546472001E+03  0.80848810236E+02 0.  0.
         -6    2    1    2    0  502 -0.40002764540E+02  0.37046333149E+02  0.10552528354E+03  0.20851253955E+03  0.17137456553E+03 0.  0.
        -24    2    5    5    0    0  0.26804756523E+02  0.29545987791E+02  0.78251979782E+01  0.89824306053E+02  0.80098138977E+02 0.  0.
          5    1    3    3  501    0  0.79919910596E+02 -0.11253667240E+01 -0.60393457636E+01  0.80293351264E+02  0.47000000000E+01 0. -1.
        -11    1    4    4    0    0 -0.23598522193E+02 -0.55234984525E+02 -0.50572818774E+02  0.78520085099E+02  0.00000000000E+00 0.  1.
         12    1    4    4    0    0 -0.16318623863E+02  0.19314018100E+02  0.93104549053E+01  0.26944634911E+02  0.00000000000E+00 0. -1.
         -5    1    5    5    0  502 -0.66807521063E+02  0.75003453580E+01  0.97700085561E+02  0.11868823349E+03  0.47000000000E+01 0.  1.
         11    1    6    6    0    0 -0.50773781454E+00  0.20492349749E+01  0.39631471817E+02  0.39687664583E+02  0.00000000000E+00 0. -1.
        -12    1    6    6    0    0  0.27312494338E+02  0.27496752816E+02 -0.31806273839E+02  0.50136641470E+02  0.00000000000E+00 0.  1.
</event>
<event>
12    1  0.8052519E-002  0.2195797E+03  0.7818608E-02  0.1134207E+00
         21   -1    0    0  503  502  0.00000000000E+00  0.00000000000E+00  0.16129805209E+03  0.16129805209E+03  0.00000000000E+00 0.  1.
         21   -1    0    0  501  503 -0.00000000000E+00 -0.00000000000E+00 -0.38098311166E+03  0.38098311166E+03  0.00000000000E+00 0. -1.
          6    2    1    2  501    0  0.12436336013E+03 -0.57826555671E+02 -0.23574677848E+03  0.32216730282E+03  0.17147907034E+03 0.  0.
         24    2    3    3    0    0  0.67066217840E+02 -0.69743646168E+02 -0.23166383246E+03  0.26331375570E+03  0.79397411275E+02 0.  0.
         -6    2    1    2    0  502 -0.12436336013E+03  0.57826555671E+02  0.16061718905E+02  0.22011386092E+03  0.17141171801E+03 0.  0.
        -24    2    5    5    0    0 -0.58602702583E+02  0.34923348135E+02  0.73761715274E+02  0.12955779774E+03  0.81795570301E+02 0.  0.
          5    1    3    3  501    0  0.57297142291E+02  0.11917090497E+02 -0.40829460179E+01  0.58853547122E+02  0.47000000000E+01 0. -1.
        -11    1    4    4    0    0  0.47522034535E+02 -0.24911240800E+02 -0.44023561341E+02  0.69404521738E+02  0.00000000000E+00 0.  1.
         12    1    4    4    0    0  0.19544183305E+02 -0.44832405368E+02 -0.18764027112E+03  0.19390923396E+03  0.00000000000E+00 0. -1.
         -5    1    5    5    0  502 -0.65760657548E+02  0.22903207536E+02 -0.57699996370E+02  0.90556063174E+02  0.47000000000E+01 0.  1.
         13    1    6    6    0    0  0.15970829950E+02  0.16455583407E+02  0.38979937460E+02  0.45224873233E+02  0.00000000000E+00 0. -1.
        -14    1    6    6    0    0 -0.74573532533E+02  0.18467764729E+02  0.34781777814E+02  0.84332924510E+02  0.00000000000E+00 0.  1.
</event>
<event>
12    1  0.8052519E-002  0.2084120E+03  0.7818608E-02  0.1143151E+00
         21   -1    0    0  501  502  0.00000000000E+00  0.00000000000E+00  0.33528921280E+03  0.33528921280E+03  0.00000000000E+00 0.  1.
         21   -1    0    0  502  503 -0.00000000000E+00 -0.00000000000E+00 -0.16330262857E+03  0.16330262857E+03  0.00000000000E+00 0.  1.
         -6    2    1    2    0  503 -0.43675767155E+02 -0.10897295115E+03  0.20072777873E+03  0.28820737553E+03  0.17026207280E+03 0.  0.
        -24    2    3    3    0    0 -0.51662002688E+02 -0.38419580521E+02  0.18982981093E+03  0.21621839187E+03  0.81055593118E+02 0.  0.
          6    2    1    2  501    0  0.43675767155E+02  0.10897295115E+03 -0.28741194494E+02  0.21038446584E+03  0.17220014659E+03 0.  0.
         24    2    5    5    0    0 -0.36251420131E+02  0.87340253872E+02 -0.11375129165E+02  0.12564959059E+03  0.81950842844E+02 0.  0.
          5    1    5    5  501    0  0.79927187287E+02  0.21632697281E+02 -0.17366065330E+02  0.84734875254E+02  0.47000000000E+01 0. -1.
        -11    1    6    6    0    0 -0.31961883881E+02  0.81175451225E+02  0.23195905998E+02  0.90272177097E+02  0.00000000000E+00 0.  1.
         12    1    6    6    0    0 -0.42895362503E+01  0.61648026475E+01 -0.34571035163E+02  0.35377413489E+02  0.00000000000E+00 0. -1.
         -5    1    3    3    0  503  0.79862355327E+01 -0.70553370632E+02  0.10897967795E+02  0.71988983654E+02  0.47000000000E+01 0.  1.
         13    1    4    4    0    0 -0.59006829619E+02  0.51464367961E+01  0.10395849618E+03  0.11964807011E+03  0.00000000000E+00 0. -1.
        -14    1    4    4    0    0  0.73448269311E+01 -0.43566017317E+02  0.85871314749E+02  0.96570321757E+02  0.00000000000E+00 0.  1.
</event>
<event>
12    1  0.8052519E-002  0.1778078E+03  0.7818608E-02  0.1170029E+00
         21   -1    0    0  501  502  0.00000000000E+00  0.00000000000E+00  0.35622199063E+02  0.35622199063E+02  0.00000000000E+00 0. -1.
         21   -1    0    0  502  503 -0.00000000000E+00 -0.00000000000E+00 -0.13053838057E+04  0.13053838057E+04  0.00000000000E+00 0.  1.
         -6    2    1    2    0  503  0.38405766408E+02  0.20450753141E+02 -0.10154684662E+04  0.10309179461E+04  0.17240176756E+03 0.  0.
        -24    2    3    3    0    0  0.65915880216E+02  0.59864966046E+02 -0.52958627082E+03  0.54264150352E+03  0.77906775604E+02 0.  0.
          6    2    1    2  501    0 -0.38405766408E+02 -0.20450753141E+02 -0.25429314044E+03  0.31008805871E+03  0.17203594590E+03 0.  0.
         24    2    5    5    0    0 -0.28987428692E+01  0.47749993109E+02 -0.18213086875E+03  0.20453440427E+03  0.79838616148E+02 0.  0.
          5    1    5    5  501    0 -0.35507023538E+02 -0.68200746249E+02 -0.72162271696E+02  0.10555365444E+03  0.47000000000E+01 0. -1.
        -11    1    6    6    0    0 -0.26184292210E+02  0.47023734600E+02 -0.61723998771E+02  0.81894449132E+02  0.00000000000E+00 0.  1.
         12    1    6    6    0    0  0.23285549341E+02  0.72625850861E+00 -0.12040686998E+03  0.12263995514E+03  0.00000000000E+00 0. -1.
         -5    1    3    3    0  503 -0.27510113809E+02 -0.39414212905E+02 -0.48588219542E+03  0.48827644257E+03  0.47000000000E+01 0.  1.
         13    1    4    4    0    0  0.41368351578E+01  0.56044842480E+02 -0.23555777407E+03  0.24216854193E+03  0.00000000000E+00 0. -1.
        -14    1    4    4    0    0  0.61779045059E+02  0.38201235657E+01 -0.29402849674E+03  0.30047296159E+03  0.00000000000E+00 0.  1.
</event>
<event>
12    1  0.8052519E-002  0.2179367E+03  0.7818608E-02  0.1135615E+00
         21   -1    0    0  503  502  0.00000000000E+00  0.00000000000E+00  0.57932601316E+02  0.57932601316E+02  0.00000000000E+00 0.  1.
         21   -1    0    0  501  503 -0.00000000000E+00 -0.00000000000E+00 -0.11262579192E+04  0.11262579192E+04  0.00000000000E+00 0.  1.
          6    2    1    2  501    0 -0.11594309063E+03  0.61531842601E+02 -0.84570387904E+03  0.87333352764E+03  0.17397537632E+03 0.  0.
         24    2    3    3    0    0  0.62101914947E+01  0.31034096201E+02 -0.24073309399E+03  0.25538265772E+03  0.79159318587E+02 0.  0.
         -6    2    1    2    0  502  0.11594309063E+03 -0.61531842601E+02 -0.22262143888E+03  0.31085699290E+03  0.17275067893E+03 0.  0.
        -24    2    5    5    0    0  0.97989571177E+01  0.28496571399E+01 -0.38359162201E+02  0.88626861748E+02  0.79241120589E+02 0.  0.
          5    1    3    3  501    0 -0.12215328212E+03  0.30497746400E+02 -0.60497078505E+03  0.61795086992E+03  0.47000000000E+01 0. -1.
        -13    1    4    4    0    0 -0.34999250946E+01  0.54574546065E+02 -0.20002656530E+03  0.20736744532E+03  0.00000000000E+00 0.  1.
         14    1    4    4    0    0  0.97101165892E+01 -0.23540449865E+02 -0.40706528686E+02  0.48015212398E+02  0.00000000000E+00 0. -1.
         -5    1    5    5    0  502  0.10614413351E+03 -0.64381499741E+02 -0.18426227668E+03  0.22223013116E+03  0.47000000000E+01 0.  1.
         13    1    6    6    0    0 -0.54808016177E+01 -0.45113986960E+01 -0.60400048893E+02  0.60815769426E+02  0.00000000000E+00 0. -1.
        -14    1    6    6    0    0  0.15279758735E+02  0.73610558359E+01  0.22040886692E+02  0.27811092323E+02  0.00000000000E+00 0.  1.
</event>
<event>
12    1  0.8052519E-002  0.2200225E+03  0.7818608E-02  0.1133937E+00
         21   -1    0    0  503  502  0.00000000000E+00  0.00000000000E+00  0.61578584393E+03  0.61578584393E+03  0.00000000000E+00 0. -1.
         21   -1    0    0  501  503 -0.00000000000E+00 -0.00000000000E+00 -0.96372855295E+02  0.96372855295E+02  0.00000000000E+00 0. -1.
          6    2    1    2  501    0  0.12908793376E+03  0.47900573908E+02  0.10645895284E+03  0.24442464756E+03  0.17161509278E+03 0.  0.
         24    2    3    3    0    0  0.14414220944E+03 -0.12111012504E+02  0.80732671338E+02  0.17725357283E+03  0.63066724133E+02 0.  0.
         -6    2    1    2    0  502 -0.12908793376E+03 -0.47900573908E+02  0.41295403579E+03  0.46773405167E+03  0.17113137582E+03 0.  0.
        -24    2    5    5    0    0 -0.15797274797E+03 -0.59714684527E+02  0.33367308776E+03  0.38240255442E+03  0.79829515120E+02 0.  0.
          5    1    3    3  501    0 -0.15054275679E+02  0.60011586412E+02  0.25726281504E+02  0.67171074726E+02  0.47000000000E+01 0. -1.
        -13    1    4    4    0    0  0.24590020804E+02 -0.23652742591E+02  0.34593158202E+02  0.48588146184E+02  0.00000000000E+00 0.  1.
         14    1    4    4    0    0  0.11955218864E+03  0.11541730087E+02  0.46139513136E+02  0.12866542665E+03  0.00000000000E+00 0. -1.
         -5    1    5    5    0  502  0.28884814206E+02  0.11814110619E+02  0.79280948031E+02  0.85331497245E+02  0.47000000000E+01 0.  1.
         11    1    6    6    0    0 -0.73929512296E+02 -0.15801148302E+02  0.22904159542E+03  0.24119556693E+03  0.00000000000E+00 0. -1.
        -12    1    6    6    0    0 -0.84043235673E+02 -0.43913536225E+02  0.10463149234E+03  0.14120698749E+03  0.00000000000E+00 0.  1.
</event>
<event>
12    1  0.8052519E-002  0.2084589E+03  0.7818608E-02  0.1142810E+00
         21   -1    0    0  503  502  0.00000000000E+00  0.00000000000E+00  0.16555109563E+03  0.16555109563E+03  0.00000000000E+00 0. -1.
         21   -1    0    0  501  503 -0.00000000000E+00 -0.00000000000E+00 -0.28372528725E+03  0.28372528725E+03  0.00000000000E+00 0. -1.
          6    2    1    2  501    0 -0.31697967648E+02  0.11381206785E+03 -0.12071666626E+03  0.24088925252E+03  0.17174740326E+03 0.  0.
         24    2    3    3    0    0 -0.95355688122E+01  0.37573582110E+02  0.13905981496E+02  0.84528049153E+02  0.73816757089E+02 0.  0.
         -6    2    1    2    0  502  0.31697967648E+02 -0.11381206785E+03  0.25424746392E+01  0.20838713036E+03  0.17164144017E+03 0.  0.
        -24    2    5    5    0    0  0.12791379419E+02 -0.96256609333E+02  0.64226286978E+02  0.14136000222E+03  0.80179050017E+02 0.  0.
          5    1    3    3  501    0 -0.22162398836E+02  0.76238485738E+02 -0.13462264775E+03  0.15636120336E+03  0.47000000000E+01 0. -1.
        -11    1    4    4    0    0 -0.38699556051E+01 -0.20407209324E+02  0.16022553745E+02  0.26232670037E+02  0.00000000000E+00 0.  1.
         12    1    4    4    0    0 -0.56656132071E+01  0.57980791433E+02 -0.21165722486E+01  0.58295379117E+02  0.00000000000E+00 0. -1.
         -5    1    5    5    0  502  0.18906588229E+02 -0.17555458514E+02 -0.61683812339E+02  0.67027128140E+02  0.47000000000E+01 0.  1.
         11    1    6    6    0    0  0.27952684296E+02 -0.59015886651E+00  0.22526984512E+02  0.35904956176E+02  0.00000000000E+00 0. -1.
        -12    1    6    6    0    0 -0.15161304877E+02 -0.95666450467E+02  0.41699302466E+02  0.10545504605E+03  0.00000000000E+00 0.  1.
</event>
<event>
12    1  0.8052519E-002  0.2118885E+03  0.7818608E-02  0.1140130E+00
         21   -1    0    0  501  502  0.00000000000E+00  0.00000000000E+00  0.18669396375E+04  0.18669396375E+04  0.00000000000E+00 0. -1.
         21   -1    0    0  502  503 -0.00000000000E+00 -0.00000000000E+00 -0.32881591971E+02  0.32881591971E+02  0.00000000000E+00 0.  1.
         -6    2    1    2    0  503 -0.74446162444E+02 -0.96801755864E+02  0.42427618336E+03  0.47424363384E+03  0.17315869436E+03 0.  0.
        -24    2    3    3    0    0  0.13477048519E+02 -0.50416461817E+02  0.29084798222E+03  0.30778865077E+03  0.86126966296E+02 0.  0.
          6    2    1    2  501    0  0.74446162444E+02  0.96801755864E+02  0.14097818622E+04  0.14255775956E+04  0.17284030554E+03 0.  0.
         24    2    5    5    0    0 -0.74299550330E+01 -0.46687529428E+01  0.64426262101E+03  0.64901996007E+03  0.77946021354E+02 0.  0.
          5    1    5    5  501    0  0.81876117477E+02  0.10147050881E+03  0.76551924117E+03  0.77655763558E+03  0.47000000000E+01 0. -1.
        -13    1    6    6    0    0 -0.10201670693E+02 -0.35223916349E+02  0.17741826111E+03  0.18116853409E+03  0.00000000000E+00 0.  1.
         14    1    6    6    0    0  0.27717156598E+01  0.30555163406E+02  0.46684435990E+03  0.46785142598E+03  0.00000000000E+00 0. -1.
         -5    1    3    3    0  503 -0.87923210963E+02 -0.46385294047E+02  0.13342820114E+03  0.16645498307E+03  0.47000000000E+01 0.  1.
         13    1    4    4    0    0  0.12578870975E+02  0.22556434444E+02  0.52334913283E+02  0.58360636376E+02  0.00000000000E+00 0. -1.
        -14    1    4    4    0    0  0.89817754320E+00 -0.72972896261E+02  0.23851306894E+03  0.24942801439E+03  0.00000000000E+00 0.  1.
</event>
<event>
12    1  0.8052519E-002  0.2232807E+03  0.7818608E-02  0.1131659E+00
         21   -1    0    0  503  502  0.00000000000E+00  0.00000000000E+00  0.37920414600E+03  0.37920414600E+03  0.00000000000E+00 0.  1.
         21   -1    0    0  501  503 -0.00000000000E+00 -0.00000000000E+00 -0.17984940262E+03  0.17984940262E+03  0.00000000000E+00 0.  1.
          6    2    1    2  501    0 -0.13898273066E+03  0.23968053055E+02 -0.46071363835E+02  0.22798431227E+03  0.17309999736E+03 0.  0.
         24    2    3    3    0    0 -0.22791218776E+02 -0.16875304609E+02 -0.63668506526E+02  0.10348372299E+03  0.76491742315E+02 0.  0.
         -6    2    1    2    0  502  0.13898273066E+03 -0.23968053055E+02  0.24542610721E+03  0.33106923635E+03  0.17170380941E+03 0.  0.
        -24    2    5    5    0    0  0.17696587882E+01 -0.25189018416E+02  0.11194752849E+03  0.13958153746E+03  0.79455258627E+02 0.  0.
          5    1    3    3  501    0 -0.11619151188E+03  0.40843357664E+02  0.17597142691E+02  0.12450058927E+03  0.47000000000E+01 0. -1.
        -13    1    4    4    0    0 -0.18078809238E+02  0.29698105329E+02 -0.27049581008E+02  0.44051113906E+02  0.00000000000E+00 0.  1.
         14    1    4    4    0    0 -0.47124095377E+01 -0.46573409938E+02 -0.36618925518E+02  0.59432609088E+02  0.00000000000E+00 0. -1.
         -5    1    5    5    0  502  0.13721307187E+03  0.12209653609E+01  0.13347857872E+03  0.19148769889E+03  0.47000000000E+01 0.  1.
         13    1    6    6    0    0  0.80390637347E+01 -0.26001384568E+02 -0.23920158565E+00  0.27216828665E+02  0.00000000000E+00 0. -1.
        -14    1    6    6    0    0 -0.62694049465E+01  0.81236615224E+00  0.11218673008E+03  0.11236470880E+03  0.00000000000E+00 0.  1.
</event>
<event>
12    1  0.8052519E-002  0.2724456E+03  0.7818608E-02  0.1099924E+00
         21   -1    0    0  503  502  0.00000000000E+00  0.00000000000E+00  0.10840193130E+04  0.10840193130E+04  0.00000000000E+00 0.  1.
         21   -1    0    0  501  503 -0.00000000000E+00 -0.00000000000E+00 -0.87351110258E+02  0.87351110258E+02  0.00000000000E+00 0. -1.
          6    2    1    2  501    0 -0.15921628563E+03  0.14040802275E+03  0.22541417180E+03  0.35340990851E+03  0.17036072354E+03 0.  0.
         24    2    3    3    0    0 -0.20994080797E+02  0.82071013793E+02  0.50678940681E+02  0.12305566931E+03  0.73470674340E+02 0.  0.
         -6    2    1    2    0  502  0.15921628563E+03 -0.14040802275E+03  0.77125403093E+03  0.81796051474E+03  0.17076997681E+03 0.  0.
        -24    2    5    5    0    0  0.17912138596E+03 -0.14348614413E+03  0.74964882965E+03  0.78805127581E+03  0.79866770609E+02 0.  0.
          5    1    3    3  501    0 -0.13822220483E+03  0.58337008954E+02  0.17473523112E+03  0.23035423920E+03  0.47000000000E+01 0. -1.
        -13    1    4    4    0    0 -0.64706584112E+01  0.25060629471E+02  0.58247951921E+02  0.63739536183E+02  0.00000000000E+00 0.  1.
         14    1    4    4    0    0 -0.14523422386E+02  0.57010384322E+02 -0.75690112407E+01  0.59316133130E+02  0.00000000000E+00 0. -1.
         -5    1    5    5    0  502 -0.19905100336E+02  0.30781213824E+01  0.21605201288E+02  0.29909238929E+02  0.47000000000E+01 0.  1.
         11    1    6    6    0    0  0.14575513908E+03 -0.14339612649E+03  0.57571089361E+03  0.61094193070E+03  0.00000000000E+00 0. -1.
        -12    1    6    6    0    0  0.33366246882E+02 -0.90017642630E-01  0.17393793604E+03  0.17710934511E+03  0.00000000000E+00 0.  1.
</event>
<event>
12    1  0.8052519E-002  0.2716773E+03  0.7818608E-02  0.1100552E+00
         21   -1    0    0  501  502  0.00000000000E+00  0.00000000000E+00  0.15938083215E+04  0.15938083215E+04  0.00000000000E+00 0.  1.
         21   -1    0    0  502  503 -0.00000000000E+00 -0.00000000000E+00 -0.15378408384E+03  0.15378408384E+03  0.00000000000E+00 0. -1.
         -6    2    1    2    0  503 -0.13933393507E+03  0.15845764978E+03 -0.12032831988E+02  0.27033877061E+03  0.16856894618E+03 0.  0.
        -24    2    3    3    0    0 -0.14127771143E+03  0.60134300990E+02 -0.64895719496E+01  0.17172803633E+03  0.76634705037E+02 0.  0.
          6    2    1    2  501    0  0.13933393507E+03 -0.15845764978E+03  0.14520570697E+04  0.14772536347E+04  0.17113093111E+03 0.  0.
         24    2    5    5    0    0  0.44568729145E+02 -0.11343022209E+03  0.11094063257E+04  0.11188690148E+04  0.78947386342E+02 0.  0.
          5    1    5    5  501    0  0.94765205922E+02 -0.45027427690E+02  0.34265074396E+03  0.35838461997E+03  0.47000000000E+01 0. -1.
        -13    1    6    6    0    0  0.66494285236E+02 -0.70806735748E+02  0.76573559529E+03  0.77187180651E+03  0.00000000000E+00 0.  1.
         14    1    6    6    0    0 -0.21925556092E+02 -0.42623486340E+02  0.34367073042E+03  0.34699720827E+03  0.00000000000E+00 0. -1.
         -5    1    3    3    0  503  0.19437763626E+01  0.98323348789E+02 -0.55432600385E+01  0.98610734281E+02  0.47000000000E+01 0.  1.
         11    1    4    4    0    0 -0.55309170927E+02  0.64892104925E+02 -0.77728271354E+01  0.85618377186E+02  0.00000000000E+00 0. -1.
        -12    1    4    4    0    0 -0.85968540502E+02 -0.47578039351E+01  0.12832551857E+01  0.86109659146E+02  0.00000000000E+00 0.  1.
</event>
<event>
12    1  0.8052519E-002  0.2397030E+03  0.7818608E-02  0.1120204E+00
         21   -1    0    0  503  502  0.00000000000E+00  0.00000000000E+00  0.17673340379E+03  0.17673340379E+03  0.00000000000E+00 0. -1.
         21   -1    0    0  501  503 -0.00000000000E+00 -0.00000000000E+00 -0.61063582063E+03  0.61063582063E+03  0.00000000000E+00 0.  1.
          6    2    1    2  501    0 -0.43492671938E+02  0.15920785054E+03 -0.48666060410E+03  0.54192890912E+03  0.17207453842E+03 0.  0.
         24    2    3    3    0    0  0.22086180636E+02  0.12520853810E+03 -0.40331430606E+03  0.43046037299E+03  0.80428389575E+02 0.  0.
         -6    2    1    2    0  502  0.43492671938E+02 -0.15920785054E+03  0.52758187267E+02  0.24544031530E+03  0.17383546780E+03 0.  0.
        -24    2    5    5    0    0  0.57017133038E+02 -0.70752554519E+02  0.88381911472E+02  0.14901215464E+03  0.78335065740E+02 0.  0.
          5    1    3    3  501    0 -0.65578852575E+02  0.33999312438E+02 -0.83346298035E+02  0.11146853613E+03  0.47000000000E+01 0. -1.
        -13    1    4    4    0    0 -0.23175995130E+02  0.26123461196E+02 -0.16164618452E+03  0.16537548472E+03  0.00000000000E+00 0.  1.
         14    1    4    4    0    0  0.45262175767E+02  0.99085076902E+02 -0.24166812154E+03  0.26508488827E+03  0.00000000000E+00 0. -1.
         -5    1    5    5    0  502 -0.13524461100E+02 -0.88455296017E+02 -0.35623724204E+02  0.96428160656E+02  0.47000000000E+01 0.  1.
         13    1    6    6    0    0 -0.11554996120E+02 -0.27899343839E+02  0.52461014905E+02  0.60531391912E+02  0.00000000000E+00 0. -1.
        -14    1    6    6    0    0  0.68572129158E+02 -0.42853210679E+02  0.35920896567E+02  0.88480762728E+02  0.00000000000E+00 0.  1.
</event>
<event>
12    1  0.8052519E-002  0.2376149E+03  0.7818608E-02  0.1123928E+00
         21   -1    0    0  501  502  0.00000000000E+00  0.00000000000E+00  0.88480436140E+03  0.88480436140E+03  0.00000000000E+00 0. -1.
         21   -1    0    0  502  503 -0.00000000000E+00 -0.00000000000E+00 -0.64213642275E+02  0.64213642275E+02  0.00000000000E+00 0. -1.
         -6    2    1    2    0  503  0.12924289526E+03  0.57055190632E+02  0.27626018297E+03  0.35508486192E+03  0.17264573471E+03 0.  0.
        -24    2    3    3    0    0  0.15679527910E+03  0.52908603120E+02  0.19003162933E+03  0.26434467509E+03  0.79887466294E+02 0.  0.
          6    2    1    2  501    0 -0.12924289526E+03 -0.57055190632E+02  0.54433053616E+03  0.59393314176E+03  0.19105450409E+03 0.  0.
         24    2    5    5    0    0 -0.69260680310E+02 -0.71375044899E+02  0.16009649425E+03  0.20475347464E+03  0.80010368304E+02 0.  0.
          5    1    5    5  501    0 -0.59982214954E+02  0.14319854268E+02  0.38423404191E+03  0.38917966712E+03  0.47000000000E+01 0. -1.
        -13    1    6    6    0    0 -0.13823089881E+02 -0.42802868907E+02  0.16002446881E+02  0.47741404532E+02  0.00000000000E+00 0.  1.
         14    1    6    6    0    0 -0.55437590429E+02 -0.28572175992E+02  0.14409404737E+03  0.15701207011E+03  0.00000000000E+00 0. -1.
         -5    1    3    3    0  503 -0.27552383831E+02  0.41465875113E+01  0.86228553638E+02  0.90740186826E+02  0.47000000000E+01 0.  1.
         11    1    4    4    0    0  0.22336721326E+02  0.43479623708E+02  0.47058358869E+02  0.67852014980E+02  0.00000000000E+00 0. -1.
        -12    1    4    4    0    0  0.13445855777E+03  0.94289794124E+01  0.14297327046E+03  0.19649266011E+03  0.00000000000E+00 0.  1.
</event>
<event>
12    1  0.8052519E-002  0.2119970E+03  0.7818608E-02  0.1140151E+00
         21   -1    0    0  501  502  0.00000000000E+00  0.00000000000E+00  0.12434070642E+03  0.12434070642E+03  0.00000000000E+00 0.  1.
         21   -1    0    0  502  503 -0.00000000000E+00 -0.00000000000E+00 -0.63928876962E+03  0.63928876962E+03  0.00000000000E+00 0.  1.
         -6    2    1    2    0  503  0.11595232657E+03 -0.43606116399E+02 -0.51007283779E+03  0.55237397364E+03  0.17203566921E+03 0.  0.
        -24    2    3    3    0    0  0.10212705904E+03 -0.77144480976E+02 -0.48469573941E+03  0.50785378673E+03  0.81266855207E+02 0.  0.
          6    2    1    2  501    0 -0.11595232657E+03  0.43606116399E+02 -0.48752254071E+01  0.21125550240E+03  0.17105169993E+03 0.  0.
         24    2    5    5    0    0 -0.13673059219E+03  0.63049126384E+02 -0.24671859702E+02  0.17627316845E+03  0.88278434945E+02 0.  0.
          5    1    5    5  501    0  0.20778265618E+02 -0.19443009984E+02  0.19796634295E+02  0.34982333952E+02  0.47000000000E+01 0. -1.
        -13    1    6    6    0    0 -0.53566106347E+02  0.60947793204E+02  0.17494418824E+02  0.83006119869E+02  0.00000000000E+00 0.  1.
         14    1    6    6    0    0 -0.83164485840E+02  0.21013331792E+01 -0.42166278526E+02  0.93267048581E+02  0.00000000000E+00 0. -1.
         -5    1    3    3    0  503  0.13825267526E+02  0.33538364576E+02 -0.25377098375E+02  0.44520186910E+02  0.47000000000E+01 0.  1.
         11    1    4    4    0    0  0.53792725140E+02 -0.87900205088E+01 -0.97406620968E+02  0.11161976325E+03  0.00000000000E+00 0. -1.
        -12    1    4    4    0    0  0.48334333903E+02 -0.68354460467E+02 -0.38728911844E+03  0.39623402348E+03  0.00000000000E+00 0.  1.
</event>
<event>
12    1  0.8052519E-002  0.2335385E+03  0.7818608E-02  0.1124176E+00
         21   -1    0    0  503  502  0.00000000000E+00  0.00000000000E+00  0.60357154344E+02  0.60357154344E+02  0.00000000000E+00 0. -1.
         21   -1    0    0  501  503 -0.00000000000E+00 -0.00000000000E+00 -0.90360334505E+03  0.90360334505E+03  0.00000000000E+00 0. -1.
          6    2    1    2  501    0  0.10767564974E+03 -0.11504982549E+03 -0.42425088062E+03  0.48427592138E+03  0.17234805025E+03 0.  0.
         24    2    3    3    0    0  0.65771378781E+02 -0.96067229256E+01 -0.29316930401E+03  0.31084384380E+03  0.79104304738E+02 0.  0.
         -6    2    1    2    0  502 -0.10767564974E+03  0.11504982549E+03 -0.41899531009E+03  0.47968457802E+03  0.17236506787E+03 0.  0.
        -24    2    5    5    0    0 -0.13884895591E+03  0.90367870548E+02 -0.29130146780E+03  0.34586088327E+03  0.85544262516E+02 0.  0.
          5    1    3    3  501    0  0.41904270958E+02 -0.10544310257E+03 -0.13108157662E+03  0.17343207758E+03  0.47000000000E+01 0. -1.
        -13    1    4    4    0    0 -0.17804994481E+02 -0.64384242909E+01 -0.70065225685E+02  0.72578281779E+02  0.00000000000E+00 0.  1.
         14    1    4    4    0    0  0.83576373261E+02 -0.31682986347E+01 -0.22310407832E+03  0.23826556203E+03  0.00000000000E+00 0. -1.
         -5    1    5    5    0  502  0.31173306173E+02  0.24681954944E+02 -0.12769384229E+03  0.13382369475E+03  0.47000000000E+01 0.  1.
         13    1    6    6    0    0 -0.10156792551E+03  0.10098220075E+03 -0.19415610725E+03  0.24126757417E+03  0.00000000000E+00 0. -1.
        -14    1    6    6    0    0 -0.37281030402E+02 -0.10614330203E+02 -0.97145360547E+02  0.10459330910E+03  0.00000000000E+00 0.  1.
</event>
<event>
12    1  0.8052519E-002  0.1891769E+03  0.7818608E-02  0.1159330E+00
         21   -1    0    0  503  502  0.00000000000E+00  0.00000000000E+00  0.51987260713E+02  0.51987260713E+02  0.00000000000E+00 0. -1.
         21   -1    0    0  501  503 -0.00000000000E+00 -0.00000000000E+00 -0.68723198737E+03  0.68723198737E+03  0.00000000000E+00 0. -1.
          6    2    1    2  501    0  0.44095401529E+02 -0.62164419345E+02 -0.30438634070E+03  0.35809566143E+03  0.17254749740E+03 0.  0.
         24    2    3    3    0    0  0.36527509789E+02  0.30225601350E+02 -0.13900553292E+03  0.16844838227E+03  0.82489231769E+02 0.  0.
         -6    2    1    2    0  502 -0.44095401529E+02  0.62164419345E+02 -0.33085838595E+03  0.38112358665E+03  0.17314472929E+03 0.  0.
        -24    2    5    5    0    0 -0.92826283377E+02  0.25466529299E+02 -0.25155695226E+03  0.28096250955E+03  0.79961043931E+02 0.  0.
          5    1    3    3  501    0  0.75678917396E+01 -0.92390020695E+02 -0.16538080779E+03  0.18964727916E+03  0.47000000000E+01 0. -1.
        -11    1    4    4    0    0  0.23150107872E+02  0.22690073403E+02 -0.41021360372E+01  0.32674063805E+02  0.00000000000E+00 0.  1.
         12    1    4    4    0    0  0.13377401918E+02  0.75355279471E+01 -0.13490339688E+03  0.13577431846E+03  0.00000000000E+00 0. -1.
         -5    1    5    5    0  502  0.48730881848E+02  0.36697890046E+02 -0.79301433693E+02  0.10016107710E+03  0.47000000000E+01 0.  1.
         11    1    6    6    0    0 -0.41855125785E+02  0.43247622869E+02 -0.74022500804E+02  0.95401986686E+02  0.00000000000E+00 0. -1.
        -12    1    6    6    0    0 -0.50971157592E+02 -0.17781093570E+02 -0.17753445145E+03  0.18556052287E+03  0.00000000000E+00 0.  1.
</event>
<event>
12    1  0.8052519E-002  0.2619203E+03  0.7818608E-02  0.1106000E+00
         21   -1    0    0  501  502  0.00000000000E+00  0.00000000000E+00  0.43132609956E+03  0.43132609956E+03  0.00000000000E+00 0. -1.
         21   -1    0    0  502  503 -0.00000000000E+00 -0.00000000000E+00 -0.16101427006E+03  0.16101427006E+03  0.00000000000E+00 0. -1.
         -6    2    1    2    0  503  0.18845126749E+03 -0.59488791526E+02  0.10227768697E+03  0.28118138241E+03  0.17189952887E+03 0.  0.
        -24    2    3    3    0    0  0.39244141199E+02  0.86917639054E+01  0.71351864196E+02  0.11417883396E+03  0.79561725861E+02 0.  0.
          6    2    1    2  501    0 -0.18845126749E+03  0.59488791526E+02  0.16803414253E+03  0.31115898721E+03  0.17184773996E+03 0.  0.
         24    2    5    5    0    0 -0.37386062742E+02 -0.14185021040E+02  0.40033692559E+02  0.99842324506E+02  0.82260930663E+02 0.  0.
          5    1    5    5  501    0 -0.15106520475E+03  0.73673812565E+02  0.12800044997E+03  0.21131666270E+03  0.47000000000E+01 0. -1.
        -11    1    6    6    0    0 -0.42849610393E+02 -0.41550734067E+02  0.40153168122E+02  0.71936287940E+02  0.00000000000E+00 0.  1.
         12    1    6    6    0    0  0.54635476510E+01  0.27365713027E+02 -0.11947556287E+00  0.27906036566E+02  0.00000000000E+00 0. -1.
         -5    1    3    3    0  503  0.14920712629E+03 -0.68180555431E+02  0.30925822773E+02  0.16700254845E+03  0.47000000000E+01 0.  1.
         11    1    4    4    0    0  0.28022756360E+02 -0.23885864044E+02  0.21626246280E+01  0.36884770847E+02  0.00000000000E+00 0. -1.
        -12    1    4    4    0    0  0.11221384839E+02  0.32577627949E+02  0.69189239568E+02  0.77294063113E+02  0.00000000000E+00 0.  1.
</event>
<event>
12    1  0.8052519E-002  0.1822371E+03  0.7818608E-02  0.1166184E+00
         21   -1    0    0  503  502  0.00000000000E+00  0.00000000000E+00  0.45087484845E+02  0.45087484845E+02  0.00000000000E+00 0.  1.
         21   -1    0    0  501  503 -0.00000000000E+00 -0.00000000000E+00 -0.74315112956E+03  0.74315112956E+03  0.00000000000E+00 0.  1.
          6    2    1    2  501    0 -0.12375081354E+02 -0.51025506304E+02 -0.40380492811E+03  0.44211932022E+03  0.17220432171E+03 0.  0.
         24    2    3    3    0    0  0.43704405005E+02 -0.15752396940E+02 -0.12288806250E+03  0.15345779453E+03  0.79307034801E+02 0.  0.
         -6    2    1    2    0  502  0.12375081354E+02  0.51025506304E+02 -0.29425871660E+03  0.34611929418E+03  0.17450968047E+03 0.  0.
        -24    2    5    5    0    0  0.63955289733E+02  0.28000408331E+02 -0.10566799648E+03  0.14919488546E+03  0.78861184473E+02 0.  0.
          5    1    3    3  501    0 -0.56079486358E+02 -0.35273109363E+02 -0.28091686560E+03  0.28866152569E+03  0.47000000000E+01 0. -1.
        -13    1    4    4    0    0  0.37775392798E+02  0.28447487222E+02 -0.61373112577E+02  0.77478376194E+02  0.00000000000E+00 0.  1.
         14    1    4    4    0    0  0.59290122070E+01 -0.44199884162E+02 -0.61514949928E+02  0.75979418334E+02  0.00000000000E+00 0. -1.
         -5    1    5    5    0  502 -0.51580208379E+02  0.23025097972E+02 -0.18859072012E+03  0.19692440872E+03  0.47000000000E+01 0.  1.
         11    1    6    6    0    0  0.37252546848E+02  0.32037394312E+02 -0.10465655989E+02  0.50236210409E+02  0.00000000000E+00 0. -1.
        -12    1    6    6    0    0  0.26702742885E+02 -0.40369859807E+01 -0.95202340491E+02  0.98958675054E+02  0.00000000000E+00 0.  1.
</event>
<event>
12    1  0.8052519E-002  0.1909108E+03  0.7818608E-02  0.1158076E+00
         21   -1    0    0  501  502  0.00000000000E+00  0.00000000000E+00  0.42802931293E+02  0.42802931293E+02  0.00000000000E+00 0.  1.
         21   -1    0    0  502  503 -0.00000000000E+00 -0.00000000000E+00 -0.10143064982E+04  0.10143064982E+04  0.00000000000E+00 0.  1.
         -6    2    1    2    0  503 -0.55954970543E+02  0.54369037128E+02 -0.70095328792E+03  0.72598346530E+03  0.17213230120E+03 0.  0.
        -24    2    3    3    0    0 -0.56458611932E+02  0.94277830036E+02 -0.40237448432E+03  0.42471222976E+03  0.79996052254E+02 0.  0.
          6    2    1    2  501    0  0.55954970543E+02 -0.54369037128E+02 -0.27055027902E+03  0.33112596422E+03  0.17424121148E+03 0.  0.
         24    2    5    5    0    0 -0.36200424109E+02 -0.22206059756E+02 -0.11432871288E+03  0.14685892539E+03  0.81810204621E+02 0.  0.
          5    1    5    5  501    0  0.92155394651E+02 -0.32162977373E+02 -0.15622156613E+03  0.18426703884E+03  0.47000000000E+01 0. -1.
        -11    1    6    6    0    0  0.20088487308E+02  0.28056819598E+01 -0.42578230851E+01  0.20725545373E+02  0.00000000000E+00 0.  1.
         12    1    6    6    0    0 -0.56288911417E+02 -0.25011741715E+02 -0.11007088980E+03  0.12613338001E+03  0.00000000000E+00 0. -1.
         -5    1    3    3    0  503  0.50364138916E+00 -0.39908792908E+02 -0.29857880360E+03  0.30127123554E+03  0.47000000000E+01 0.  1.
         13    1    4    4    0    0  0.92504481337E+01 -0.91562203688E+01 -0.30274884858E+02  0.32954147164E+02  0.00000000000E+00 0. -1.
        -14    1    4    4    0    0 -0.65709060065E+02  0.10343405040E+03 -0.37209959946E+03  0.39175808260E+03  0.00000000000E+00 0.  1.
</event>
<event>
12    1  0.8052519E-002  0.1995121E+03  0.7818608E-02  0.1150320E+00
         21   -1    0    0  503  502  0.00000000000E+00  0.00000000000E+00  0.95241683648E+02  0.95241683648E+02  0.00000000000E+00 0.  1.
         21   -1    0    0  501  503 -0.00000000000E+00 -0.00000000000E+00 -0.47563797107E+03  0.47563797107E+03  0.00000000000E+00 0.  1.
          6    2    1    2  501    0  0.99609795217E+02  0.15308550936E+02 -0.89025319798E+02  0.21774780675E+03  0.17126627439E+03 0.  0.
         24    2    3    3    0    0  0.68115909219E+02 -0.16021322414E+02  0.11079047472E+02  0.10812846463E+03  0.81685737495E+02 0.  0.
         -6    2    1    2    0  502 -0.99609795217E+02 -0.15308550936E+02 -0.29137096762E+03  0.35313184797E+03  0.17218768319E+03 0.  0.
        -24    2    5    5    0    0 -0.59776526286E+00  0.26665776012E+02 -0.39092425004E+02  0.78847726549E+02  0.63066039637E+02 0.  0.
          5    1    3    3  501    0  0.31493885998E+02  0.31329873350E+02 -0.10010436727E+03  0.10961934212E+03  0.47000000000E+01 0. -1.
        -11    1    4    4    0    0  0.15652629766E+02 -0.21576726326E+02 -0.30826915025E+02  0.40753633304E+02  0.00000000000E+00 0.  1.
         12    1    4    4    0    0  0.52463279452E+02  0.55554039118E+01  0.41905962497E+02  0.67374831327E+02  0.00000000000E+00 0. -1.
         -5    1    5    5    0  502 -0.99012029954E+02 -0.41974326948E+02 -0.25227854262E+03  0.27428412142E+03  0.47000000000E+01 0.  1.
         13    1    6    6    0    0 -0.21914274879E+02  0.37372889134E+02 -0.17679940909E+02  0.46792612624E+02  0.00000000000E+00 0. -1.
        -14    1    6    6    0    0  0.21316509616E+02 -0.10707113121E+02 -0.21412484095E+02  0.32055113924E+02  0.00000000000E+00 0.  1.
</event>
<event>
12    1  0.8052519E-002  0.1847396E+03  0.7818608E-02  0.1164290E+00
         21   -1    0    0  501  502  0.00000000000E+00  0.00000000000E+00  0.21920328592E+03  0.21920328592E+03  0.00000000000E+00 0.  1.
         21   -1    0    0  502  503 -0.00000000000E+00 -0.00000000000E+00 -0.31427968136E+03  0.31427968136E+03  0.00000000000E+00 0.  1.
         -6    2    1    2    0  503 -0.66353016503E+02 -0.90176350961E+01 -0.23884182612E+03  0.29939491065E+03  0.16765397126E+03 0.  0.
        -24    2    3    3    0    0 -0.84466647456E+02  0.39641223232E+02 -0.13271863497E+03  0.18115781910E+03  0.80609417816E+02 0.  0.
          6    2    1    2  501    0  0.66353016503E+02  0.90176350961E+01  0.14376543068E+03  0.23408805662E+03  0.17217630108E+03 0.  0.
         24    2    5    5    0    0  0.51277497437E+02  0.64775392422E+02  0.13207233205E+03  0.17496938501E+03  0.79661481232E+02 0.  0.
          5    1    5    5  501    0  0.15075519065E+02 -0.55757757326E+02  0.11693098630E+02  0.59118671608E+02  0.47000000000E+01 0. -1.
        -11    1    6    6    0    0 -0.73363277696E+01  0.54643347123E+02  0.67990857379E+02  0.87535557216E+02  0.00000000000E+00 0.  1.
         12    1    6    6    0    0  0.58613825207E+02  0.10132045299E+02  0.64081474669E+02  0.87433827796E+02  0.00000000000E+00 0. -1.
         -5    1    3    3    0  503  0.18113630953E+02 -0.48658858328E+02 -0.10612319115E+03  0.11823709156E+03  0.47000000000E+01 0.  1.
         13    1    4    4    0    0 -0.18208808626E+02  0.19842106607E+02  0.46834716001E+01  0.27335047328E+02  0.00000000000E+00 0. -1.
        -14    1    4    4    0    0 -0.66257838830E+02  0.19799116625E+02 -0.13740210657E+03  0.15382277177E+03  0.00000000000E+00 0.  1.
</event>
<event>
12    1  0.8052519E-002  0.1954533E+03  0.7818608E-02  0.1153854E+00
         21   -1    0    0  503  502  0.00000000000E+00  0.00000000000E+00  0.84687014363E+02  0.84687014363E+02  0.00000000000E+00 0. -1.
         21   -1    0    0  501  503 -0.00000000000E+00 -0.00000000000E+00 -0.55522592007E+03  0.55522592007E+03  0.00000000000E+00 0. -1.
          6    2    1    2  501    0  0.39935555345E+02 -0.83974895687E+02 -0.37587191348E+03  0.42365278569E+03  0.17191671178E+03 0.  0.
         24    2    3    3    0    0  0.47742004235E+02 -0.19631731656E+02 -0.89774626236E+02  0.13026783179E+03  0.79028606390E+02 0.  0.
         -6    2    1    2    0  502 -0.39935555345E+02  0.83974895687E+02 -0.94666992227E+02  0.21626014875E+03  0.17076293753E+03 0.  0.
        -24    2    5    5    0    0 -0.23954619246E+02  0.11523128983E+03 -0.10782608025E+03  0.17847650029E+03  0.79845623760E+02 0.  0.
          5    1    3    3  501    0 -0.78064488893E+01 -0.64343164032E+02 -0.28609728725E+03  0.29338495389E+03  0.47000000000E+01 0. -1.
        -11    1    4    4    0    0 -0.15429633784E+02  0.15686109937E+02 -0.19892659734E+02  0.29662190664E+02  0.00000000000E+00 0.  1.
         12    1    4    4    0    0  0.63171638018E+02 -0.35317841593E+02 -0.69881966502E+02  0.10060564113E+03  0.00000000000E+00 0. -1.
         -5    1    5    5    0  502 -0.15980936099E+02 -0.31256394145E+02  0.13159088019E+02  0.37783648461E+02  0.47000000000E+01 0.  1.
         11    1    6    6    0    0 -0.81555168837E+01  0.75292044578E+02 -0.16434081374E+02  0.77495054442E+02  0.00000000000E+00 0. -1.
        -12    1    6    6    0    0 -0.15799102362E+02  0.39939245255E+02 -0.91391998873E+02  0.10098144584E+03  0.00000000000E+00 0.  1.
</event>
<event>
12    1  0.8052519E-002  0.1808328E+03  0.7818608E-02  0.1167349E+00
         21   -1    0    0  503  502  0.00000000000E+00  0.00000000000E+00  0.90397509216E+02  0.90397509216E+02  0.00000000000E+00 0.  1.
         21   -1    0    0  501  503 -0.00000000000E+00 -0.00000000000E+00 -0.36942310838E+03  0.36942310838E+03  0.00000000000E+00 0.  1.
          6    2    1    2  501    0 -0.57387278454E+02 -0.19485564919E+01 -0.10116343094E+03  0.20720649430E+03  0.17147418149E+03 0.  0.
         24    2    3    3    0    0 -0.90742601838E+02  0.15978917591E+02 -0.11406904941E+03  0.16692477495E+03  0.79765825165E+02 0.  0.
         -6    2    1    2    0  502  0.57387278454E+02  0.19485564919E+01 -0.17786216822E+03  0.25261412330E+03  0.16994660281E+03 0.  0.
        -24    2    5    5    0    0  0.89609908942E+02  0.39111067512E+02 -0.98792050795E+02  0.15937505632E+03  0.77980304535E+02 0.  0.
          5    1    3    3  501    0  0.33355323384E+02 -0.17927474083E+02  0.12905618469E+02  0.40281719341E+02  0.47000000000E+01 0. -1.
        -13    1    4    4    0    0 -0.82538090856E+02  0.32609685085E+02 -0.11831559181E+03  0.14790032883E+03  0.00000000000E+00 0.  1.
         14    1    4    4    0    0 -0.82045109819E+01 -0.16630767494E+02  0.42465423978E+01  0.19024446122E+02  0.00000000000E+00 0. -1.
         -5    1    5    5    0  502 -0.32222630488E+02 -0.37162511020E+02 -0.79070117428E+02  0.93239066978E+02  0.47000000000E+01 0.  1.
         11    1    6    6    0    0  0.42481756131E+02  0.54535960521E+02 -0.81473908313E+02  0.10684974651E+03  0.00000000000E+00 0. -1.
        -12    1    6    6    0    0  0.47128152811E+02 -0.15424893010E+02 -0.17318142483E+02  0.52525309811E+02  0.00000000000E+00 0.  1.
</event>
<event>
12    1  0.8052519E-002  0.2018300E+03  0.7818608E-02  0.1148360E+00
         21   -1    0    0  501  502  0.00000000000E+00  0.00000000000E+00  0.25640177334E+03  0.25640177334E+03  0.00000000000E+00 0. -1.
         21   -1    0    0  502  503 -0.00000000000E+00 -0.00000000000E+00 -0.18299361579E+03  0.18299361579E+03  0.00000000000E+00 0. -1.
         -6    2    1    2    0  503 -0.49863558278E+02 -0.91299116698E+02 -0.44081875161E+02  0.20585893215E+03  0.17208365720E+03 0.  0.
        -24    2    3    3    0    0  0.17072042165E+02 -0.45550198918E+02  0.28064270902E+02  0.97228851252E+02  0.79369836647E+02 0.  0.
          6    2    1    2  501    0  0.49863558278E+02  0.91299116698E+02  0.11749003271E+03  0.23353645698E+03  0.17295509764E+03 0.  0.
         24    2    5    5    0    0 -0.12119692623E+02  0.10389881049E+02  0.10157541773E+03  0.13027178357E+03  0.79989596381E+02 0.  0.
          5    1    5    5  501    0  0.61983250900E+02  0.80909235649E+02  0.15914614982E+02  0.10326467341E+03  0.47000000000E+01 0. -1.
        -13    1    6    6    0    0 -0.44791672449E+02  0.52309434432E+00  0.40908065478E+02  0.60663311562E+02  0.00000000000E+00 0.  1.
         14    1    6    6    0    0  0.32671979827E+02  0.98667867048E+01  0.60667352252E+02  0.69608472005E+02  0.00000000000E+00 0. -1.
         -5    1    3    3    0  503 -0.66935600443E+02 -0.45748917780E+02 -0.72146146064E+02  0.10863008090E+03  0.47000000000E+01 0.  1.
         13    1    4    4    0    0 -0.19924027298E+02  0.12003175968E+02  0.14703571103E+02  0.27517959595E+02  0.00000000000E+00 0. -1.
        -14    1    4    4    0    0  0.36996069464E+02 -0.57553374886E+02  0.13360699799E+02  0.69710891657E+02  0.00000000000E+00 0.  1.
</event>
<event>
12    1  0.8052519E-002  0.1766254E+03  0.7818608E-02  0.1171176E+00
         21   -1    0    0  501  502  0.00000000000E+00  0.00000000000E+00  0.63491429350E+02  0.63491429350E+02  0.00000000000E+00 0. -1.
         21   -1    0    0  502  503 -0.00000000000E+00 -0.00000000000E+00 -0.50692183185E+03  0.50692183185E+03  0.00000000000E+00 0. -1.
         -6    2    1    2    0  503 -0.38630384621E+02  0.68784476762E+01 -0.17037694170E+03  0.24521373208E+03  0.17193560562E+03 0.  0.
        -24    2    3    3    0    0 -0.37611575712E+02  0.70786446324E+02 -0.11075347037E+03  0.15767906126E+03  0.78555735302E+02 0.  0.
          6    2    1    2  501    0  0.38630384621E+02 -0.68784476762E+01 -0.27305346080E+03  0.32519952912E+03  0.17221185100E+03 0.  0.
         24    2    5    5    0    0  0.35399126941E+01  0.59493950740E+02 -0.12783274433E+03  0.16165203454E+03  0.78981697821E+02 0.  0.
          5    1    5    5  501    0  0.35090471927E+02 -0.66372398416E+02 -0.14522071647E+03  0.16354749458E+03  0.47000000000E+01 0. -1.
        -11    1    6    6    0    0  0.15546556735E+02  0.84884027342E+01 -0.10145127515E+03  0.10298596816E+03  0.00000000000E+00 0.  1.
         12    1    6    6    0    0 -0.12006644041E+02  0.51005548006E+02 -0.26381469177E+02  0.58666066379E+02  0.00000000000E+00 0. -1.
         -5    1    3    3    0  503 -0.10188089095E+01 -0.63907998648E+02 -0.59623471324E+02  0.87534670820E+02  0.47000000000E+01 0.  1.
         11    1    4    4    0    0 -0.27138957942E+02  0.25705324952E+02 -0.10449075084E+03  0.11097569004E+03  0.00000000000E+00 0. -1.
        -12    1    4    4    0    0 -0.10472617770E+02  0.45081121372E+02 -0.62627195337E+01  0.46703371218E+02  0.00000000000E+00 0.  1.
</event>
<event>
12    1  0.8052519E-002  0.1806194E+03  0.7818608E-02  0.1167487E+00
         21   -1    0    0  503  502  0.00000000000E+00  0.00000000000E+00  0.85047702498E+03  0.85047702498E+03  0.00000000000E+00 0. -1.
         21   -1    0    0  501  503 -0.00000000000E+00 -0.00000000000E+00 -0.70706020449E+02  0.70706020449E+02  0.00000000000E+00 0. -1.
          6    2    1    2  501    0  0.41930242439E+02 -0.27863263919E+02  0.76482583482E+02  0.19507149332E+03  0.17224632136E+03 0.  0.
         24    2    3    3    0    0 -0.44684217195E+02  0.10593247701E+02  0.71547693636E+02  0.10005880447E+03  0.52761688041E+02 0.  0.
         -6    2    1    2    0  502 -0.41930242439E+02  0.27863263919E+02  0.70328842105E+03  0.72611155211E+03  0.17346145456E+03 0.  0.
        -24    2    5    5    0    0  0.50147829167E+01  0.78241882055E+02  0.40931004624E+03  0.42413934242E+03  0.78819589434E+02 0.  0.
          5    1    3    3  501    0  0.86614459634E+02 -0.38456511621E+02  0.49348898455E+01  0.95012688844E+02  0.47000000000E+01 0. -1.
        -11    1    4    4    0    0  0.41648372321E+01  0.17855574989E+02  0.31620692794E+02  0.36551821297E+02  0.00000000000E+00 0.  1.
         12    1    4    4    0    0 -0.48849054427E+02 -0.72623272873E+01  0.39927000843E+02  0.63506983178E+02  0.00000000000E+00 0. -1.
         -5    1    5    5    0  502 -0.46945025356E+02 -0.50378618135E+02  0.29397837481E+03  0.30197220969E+03  0.47000000000E+01 0.  1.
         11    1    6    6    0    0  0.11224424922E+02  0.55257588245E+02  0.38834146384E+03  0.39241366097E+03  0.00000000000E+00 0. -1.
        -12    1    6    6    0    0 -0.62096420056E+01  0.22984293810E+02  0.20968582395E+02  0.31725681449E+02  0.00000000000E+00 0.  1.
</event>
<event>
12    1  0.8052519E-002  0.1964721E+03  0.7818608E-02  0.1153691E+00
         21   -1    0    0  501  502  0.00000000000E+00  0.00000000000E+00  0.76286193060E+02  0.76286193060E+02  0.00000000000E+00 0. -1.
         21   -1    0    0  502  503 -0.00000000000E+00 -0.00000000000E+00 -0.58762124640E+03  0.58762124640E+03  0.00000000000E+00 0. -1.
         -6    2    1    2    0  503 -0.85546831323E+02 -0.13170043837E+02 -0.38985427899E+03  0.43656343080E+03  0.17637902331E+03 0.  0.
        -24    2    3    3    0    0 -0.53641925468E+02 -0.56478046268E+02 -0.35642614612E+03  0.37305724087E+03  0.77877348763E+02 0.  0.
          6    2    1    2  501    0  0.85546831323E+02  0.13170043837E+02 -0.12148077436E+03  0.22734400866E+03  0.17156925521E+03 0.  0.
         24    2    5    5    0    0  0.34369124588E+02  0.70563751203E+02 -0.50774503624E+02  0.12277507431E+03  0.79593900165E+02 0.  0.
          5    1    5    5  501    0  0.51177706735E+02 -0.57393707366E+02 -0.70706270731E+02  0.10456893436E+03  0.47000000000E+01 0. -1.
        -13    1    6    6    0    0 -0.25214917600E+02  0.32193420360E+02 -0.19740241365E+02  0.45407989530E+02  0.00000000000E+00 0.  1.
         14    1    6    6    0    0  0.59584042188E+02  0.38370330844E+02 -0.31034262260E+02  0.77367084775E+02  0.00000000000E+00 0. -1.
         -5    1    3    3    0  503 -0.31904905854E+02  0.43308002431E+02 -0.33428132865E+02  0.63506189926E+02  0.47000000000E+01 0.  1.
         11    1    4    4    0    0 -0.12201004769E+02  0.59859806331E+01 -0.19050060570E+03  0.19098475660E+03  0.00000000000E+00 0. -1.
        -12    1    4    4    0    0 -0.41440920700E+02 -0.62464026902E+02 -0.16592554042E+03  0.18207248428E+03  0.00000000000E+00 0.  1.
</event>
<event>
12    1  0.8052519E-002  0.2015089E+03  0.7818608E-02  0.1148696E+00
         21   -1    0    0  501  502  0.00000000000E+00  0.00000000000E+00  0.10827108146E+03  0.10827108146E+03  0.00000000000E+00 0. -1.
         21   -1    0    0  502  503 -0.00000000000E+00 -0.00000000000E+00 -0.18436039672E+04  0.18436039672E+04  0.00000000000E+00 0. -1.
         -6    2    1    2    0  503 -0.82885825027E+02 -0.63085575145E+02 -0.17397533334E+04  0.17513844510E+04  0.17249923072E+03 0.  0.
        -24    2    3    3    0    0 -0.19322767983E+02 -0.18207559621E+02 -0.14449223825E+04  0.14464226861E+04  0.60274461937E+02 0.  0.
          6    2    1    2  501    0  0.82885825027E+02  0.63085575145E+02  0.44204476614E+01  0.20049059759E+03  0.17125153892E+03 0.  0.
         24    2    5    5    0    0  0.60843612087E+02 -0.30526819440E+02  0.30180380235E+01  0.10419316085E+03  0.78824326046E+02 0.  0.
          5    1    5    5  501    0  0.22042212939E+02  0.93612394586E+02  0.14024096379E+01  0.96297436747E+02  0.47000000000E+01 0. -1.
        -13    1    6    6    0    0 -0.16917912350E+02 -0.70404055804E+01  0.12833347531E+02  0.22371362897E+02  0.00000000000E+00 0.  1.
         14    1    6    6    0    0  0.77761524437E+02 -0.23486413860E+02 -0.98153095075E+01  0.81821797949E+02  0.00000000000E+00 0. -1.
         -5    1    3    3    0  503 -0.63563057044E+02 -0.44878015525E+02 -0.29483095081E+03  0.30496176491E+03  0.47000000000E+01 0.  1.
         11    1    4    4    0    0 -0.21735251503E+02  0.31632242345E+01 -0.18247738107E+03  0.18379450956E+03  0.00000000000E+00 0. -1.
        -12    1    4    4    0    0  0.24124835203E+01 -0.21370783855E+02 -0.12624450015E+04  0.12626281766E+04  0.00000000000E+00 0.  1.
</event>
<event>
12    1  0.8052519E-002  0.2014092E+03  0.7818608E-02  0.1148874E+00
         21   -1    0    0  503  502  0.00000000000E+00  0.00000000000E+00  0.17729740337E+03  0.17729740337E+03  0.00000000000E+00 0.  1.
         21   -1    0    0  501  503 -0.00000000000E+00 -0.00000000000E+00 -0.22817586029E+03  0.22817586029E+03  0.00000000000E+00 0.  1.
          6    2    1    2  501    0  0.11124586610E+02 -0.10358727970E+03 -0.11290086110E+02  0.20021023327E+03  0.17059481386E+03 0.  0.
         24    2    3    3    0    0 -0.23553627310E+02 -0.29845155149E+02 -0.60624872541E+02  0.10483470912E+03  0.76612234141E+02 0.  0.
         -6    2    1    2    0  502 -0.11124586610E+02  0.10358727970E+03 -0.39588370805E+02  0.20526303040E+03  0.17237050676E+03 0.  0.
        -24    2    5    5    0    0 -0.60128071208E+02  0.98539533923E+02  0.97810762980E+00  0.14127435630E+03  0.81437475158E+02 0.  0.
          5    1    3    3  501    0  0.34678213921E+02 -0.73742124553E+02  0.49334786432E+02  0.95375524148E+02  0.47000000000E+01 0. -1.
        -11    1    4    4    0    0 -0.32377243331E+02 -0.39693543650E+02 -0.95887172916E+01  0.52113403194E+02  0.00000000000E+00 0.  1.
         12    1    4    4    0    0  0.88236160206E+01  0.98483885008E+01 -0.51036155250E+02  0.52721305925E+02  0.00000000000E+00 0. -1.
         -5    1    5    5    0  502  0.49003484598E+02  0.50477457788E+01 -0.40566478435E+02  0.63988674098E+02  0.47000000000E+01 0.  1.
         13    1    6    6    0    0 -0.51187606595E+02  0.10076153288E+02 -0.31466212345E+01  0.52264721938E+02  0.00000000000E+00 0. -1.
        -14    1    6    6    0    0 -0.89404646133E+01  0.88463380635E+02  0.41247288643E+01  0.89009634361E+02  0.00000000000E+00 0.  1.
</event>
<event>
12    1  0.8052519E-002  0.2029739E+03  0.7818608E-02  0.1147346E+00
         21   -1    0    0  501  502  0.00000000000E+00  0.00000000000E+00  0.25250576640E+03  0.25250576640E+03  0.00000000000E+00 0. -1.
         21   -1    0    0  502  503 -0.00000000000E+00 -0.00000000000E+00 -0.35670542651E+03  0.35670542651E+03  0.00000000000E+00 0. -1.
         -6    2    1    2    0  503 -0.10687252372E+03 -0.42716013468E+01 -0.27665702450E+03  0.34286567865E+03  0.17198192198E+03 0.  0.
        -24    2    3    3    0    0 -0.13705172511E+03  0.14704475258E+02 -0.25471676462E+03  0.30074275516E+03  0.81031954535E+02 0.  0.
          6    2    1    2  501    0  0.10687252372E+03  0.42716013468E+01  0.17245736440E+03  0.26634551426E+03  0.17250625359E+03 0.  0.
         24    2    5    5    0    0  0.12053043924E+03 -0.21477401631E+02  0.18341509341E+03  0.23485406088E+03  0.80786557395E+02 0.  0.
          5    1    5    5  501    0 -0.13657915520E+02  0.25749002978E+02 -0.10957729016E+02  0.31491453379E+02  0.47000000000E+01 0. -1.
        -11    1    6    6    0    0  0.74924246707E+02  0.10753827340E+02  0.51349579410E+02  0.91466206069E+02  0.00000000000E+00 0.  1.
         12    1    6    6    0    0  0.45606192533E+02 -0.32231228971E+02  0.13206551400E+03  0.14338785481E+03  0.00000000000E+00 0. -1.
         -5    1    3    3    0  503  0.30179201389E+02 -0.18976076604E+02 -0.21940259880E+02  0.42122923490E+02  0.47000000000E+01 0.  1.
         11    1    4    4    0    0 -0.14294474212E+02  0.28999934689E+02 -0.83835681609E+02  0.89854046741E+02  0.00000000000E+00 0. -1.
        -12    1    4    4    0    0 -0.12275725090E+03 -0.14295459431E+02 -0.17088108301E+03  0.21088870842E+03  0.00000000000E+00 0.  1.
</event>
<event>
12    1  0.8052519E-002  0.1832888E+03  0.7818608E-02  0.1165236E+00
         21   -1    0    0  503  502  0.00000000000E+00  0.00000000000E+00  0.38781115215E+04  0.38781115215E+04  0.00000000000E+00 0.  1.
         21   -1    0    0  501  503 -0.00000000000E+00 -0.00000000000E+00 -0.10582081364E+02  0.10582081364E+02  0.00000000000E+00 0.  1.
          6    2    1    2  501    0 -0.61999463526E+02 -0.94338178082E+01  0.10709385238E+04  0.10861027428E+04  0.16963760106E+03 0.  0.
         24    2    3    3    0    0  0.16057371708E+02  0.36705505251E+01  0.35863226657E+03  0.36939716299E+03  0.86981890484E+02 0.  0.
         -6    2    1    2    0  502  0.61999463526E+02  0.94338178082E+01  0.27965909164E+04  0.28025908601E+04  0.17222614602E+03 0.  0.
        -24    2    5    5    0    0  0.36582835541E+02 -0.44500327168E+02  0.23410544273E+04  0.23431450201E+04  0.80462233690E+02 0.  0.
          5    1    3    3  501    0 -0.78056835234E+02 -0.13104368333E+02  0.71230625725E+03  0.71670557980E+03  0.47000000000E+01 0. -1.
        -11    1    4    4    0    0 -0.11440817252E+02  0.39762783455E+02  0.13458956683E+03  0.14080597553E+03  0.00000000000E+00 0.  1.
         12    1    4    4    0    0  0.27498188960E+02 -0.36092232930E+02  0.22404269974E+03  0.22859118745E+03  0.00000000000E+00 0. -1.
         -5    1    5    5    0  502  0.25416627984E+02  0.53934144976E+02  0.45553648910E+03  0.45944583997E+03  0.47000000000E+01 0.  1.
         13    1    6    6    0    0  0.52254156611E+02 -0.33359490068E+02  0.98219701038E+03  0.98415157352E+03  0.00000000000E+00 0. -1.
        -14    1    6    6    0    0 -0.15671321070E+02 -0.11140837100E+02  0.13588574169E+04  0.13589934466E+04  0.00000000000E+00 0.  1.
</event>
<event>
12    1  0.8052519E-002  0.1843037E+03  0.7818608E-02  0.1163831E+00
         21   -1    0    0  503  502  0.00000000000E+00  0.00000000000E+00  0.10910250717E+04  0.10910250717E+04  0.00000000000E+00 0. -1.
         21   -1    0    0  501  503 -0.00000000000E+00 -0.00000000000E+00 -0.18238689375E+03  0.18238689375E+03  0.00000000000E+00 0. -1.
          6    2    1    2  501    0 -0.52957320701E+02  0.37745991180E+02 -0.12556432299E+03  0.22301179611E+03  0.17244890353E+03 0.  0.
         24    2    3    3    0    0 -0.95714541888E+02  0.56639640933E+02 -0.94136545508E+02  0.16648795015E+03  0.80543316856E+02 0.  0.
         -6    2    1    2    0  502  0.52957320701E+02 -0.37745991180E+02  0.10342025009E+04  0.10504001693E+04  0.17186176174E+03 0.  0.
        -24    2    5    5    0    0  0.82608819182E+02  0.27501510596E+02  0.74668057964E+03  0.75404330157E+03  0.58897050336E+02 0.  0.
          5    1    3    3  501    0  0.42757221187E+02 -0.18893649753E+02 -0.31427777480E+02  0.56523845959E+02  0.47000000000E+01 0. -1.
        -13    1    4    4    0    0 -0.26516631800E+02  0.51638806617E+02 -0.12548337786E+02  0.59389888804E+02  0.00000000000E+00 0.  1.
         14    1    4    4    0    0 -0.69197910087E+02  0.50008343158E+01 -0.81588207722E+02  0.10709806134E+03  0.00000000000E+00 0. -1.
         -5    1    5    5    0  502 -0.29651498481E+02 -0.65247501776E+02  0.28752192125E+03  0.29635686773E+03  0.47000000000E+01 0.  1.
         13    1    6    6    0    0  0.20911887669E+02  0.37182555004E+02  0.30652666884E+03  0.30948093342E+03  0.00000000000E+00 0. -1.
        -14    1    6    6    0    0  0.61696931513E+02 -0.96810444073E+01  0.44015391081E+03  0.44456236815E+03  0.00000000000E+00 0.  1.
</event>
<event>
12    1  0.8052519E-002  0.1770369E+03  0.7818608E-02  0.1170776E+00
         21   -1    0    0  501  502  0.00000000000E+00  0.00000000000E+00  0.14281798033E+03  0.14281798033E+03  0.00000000000E+00 0.  1.
         21   -1    0    0  502  503 -0.00000000000E+00 -0.00000000000E+00 -0.58730167268E+03  0.58730167268E+03  0.00000000000E+00 0.  1.
         -6    2    1    2    0  503  0.18050981963E+02  0.39283098400E+02 -0.51123042999E+03  0.54091823847E+03  0.17136799116E+03 0.  0.
        -24    2    3    3    0    0  0.11797627068E+02  0.45254737760E+02 -0.13173018621E+03  0.16129040763E+03  0.80464764581E+02 0.  0.
          6    2    1    2  501    0 -0.18050981963E+02 -0.39283098400E+02  0.66746737631E+02  0.18920141454E+03  0.17167716362E+03 0.  0.
         24    2    5    5    0    0 -0.31411937792E+01  0.32281267359E+02 -0.96413976560E+01  0.83366649725E+02  0.76191170204E+02 0.  0.
          5    1    5    5  501    0 -0.14909788184E+02 -0.71564365759E+02  0.76388135287E+02  0.10583476481E+03  0.47000000000E+01 0. -1.
        -13    1    6    6    0    0  0.29995504007E+02  0.36948205514E+02  0.27796253456E+01  0.47672072206E+02  0.00000000000E+00 0.  1.
         14    1    6    6    0    0 -0.33136697786E+02 -0.46669381550E+01 -0.12421023002E+02  0.35694577520E+02  0.00000000000E+00 0. -1.
         -5    1    3    3    0  503  0.62533548950E+01 -0.59716393600E+01 -0.37950024377E+03  0.37962783084E+03  0.47000000000E+01 0.  1.
         11    1    4    4    0    0  0.17074091486E+02  0.18918412613E+02  0.13568246498E+01  0.25520029565E+02  0.00000000000E+00 0. -1.
        -12    1    4    4    0    0 -0.52764644179E+01  0.26336325147E+02 -0.13308701086E+03  0.13577037806E+03  0.00000000000E+00 0.  1.
</event>
<event>
12    1  0.8052519E-002  0.2367820E+03  0.7818608E-02  0.1122042E+00
         21   -1    0    0  503  502  0.00000000000E+00  0.00000000000E+00  0.70499897518E+03  0.70499897518E+03  0.00000000000E+00 0.  1.
         21   -1    0    0  501  503 -0.00000000000E+00 -0.00000000000E+00 -0.81562805168E+02  0.81562805168E+02  0.00000000000E+00 0.  1.
          6    2    1    2  501    0 -0.43649413909E+02  0.15465006226E+03  0.37610969703E+03  0.44416421913E+03  0.17320922684E+03 0.  0.
         24    2    3    3    0    0  0.41941736057E+02  0.65084775696E+02  0.20125656312E+03  0.22981988413E+03  0.79484826785E+02 0.  0.
         -6    2    1    2    0  502  0.43649413909E+02 -0.15465006226E+03  0.24732647298E+03  0.34239756122E+03  0.17390742537E+03 0.  0.
        -24    2    5    5    0    0  0.74855467170E+01 -0.81171086255E+02  0.37454032413E+02  0.11706332832E+03  0.75207975908E+02 0.  0.
          5    1    3    3  501    0 -0.85591149967E+02  0.89565286565E+02  0.17485313391E+03  0.21434433500E+03  0.47000000000E+01 0. -1.
        -11    1    4    4    0    0  0.26591426253E+01  0.70960070958E+02  0.13610680398E+03  0.15351698538E+03  0.00000000000E+00 0.  1.
         12    1    4    4    0    0  0.39282593432E+02 -0.58752952613E+01  0.65149759146E+02  0.76302898752E+02  0.00000000000E+00 0. -1.
         -5    1    5    5    0  502  0.36163867192E+02 -0.73478976006E+02  0.20987244057E+03  0.22533423289E+03  0.47000000000E+01 0.  1.
         13    1    6    6    0    0  0.41295275495E+02 -0.44959880920E+02  0.16231575329E+02  0.63167671385E+02  0.00000000000E+00 0. -1.
        -14    1    6    6    0    0 -0.33809728778E+02 -0.36211205336E+02  0.21222457085E+02  0.53895656937E+02  0.00000000000E+00 0.  1.
</event>
<event>
12    1  0.8052519E-002  0.1817033E+03  0.7818608E-02  0.1166229E+00
         21   -1    0    0  501  502  0.00000000000E+00  0.00000000000E+00  0.16361396109E+03  0.16361396109E+03  0.00000000000E+00 0. -1.
         21   -1    0    0  502  503 -0.00000000000E+00 -0.00000000000E+00 -0.20150443857E+03  0.20150443857E+03  0.00000000000E+00 0. -1.
         -6    2    1    2    0  503  0.31230110474E+02 -0.49987991415E+02 -0.20249592943E+02  0.18282818878E+03  0.17187780983E+03 0.  0.
        -24    2    3    3    0    0  0.43127481354E+02 -0.94822412888E+02 -0.31270222786E+02  0.13491976505E+03  0.79838878580E+02 0.  0.
          6    2    1    2  501    0 -0.31230110474E+02  0.49987991415E+02 -0.17640884540E+02  0.18229021088E+03  0.17159370936E+03 0.  0.
         24    2    5    5    0    0 -0.65816023582E+02  0.80130130258E+02  0.51687752653E+01  0.13084019145E+03  0.79623192131E+02 0.  0.
          5    1    5    5  501    0  0.34585913108E+02 -0.30142138843E+02 -0.22809659806E+02  0.51450019436E+02  0.47000000000E+01 0. -1.
        -11    1    6    6    0    0  0.14374449958E+02 -0.34392665186E+01 -0.13145573225E+01  0.14838511608E+02  0.00000000000E+00 0.  1.
         12    1    6    6    0    0 -0.80190473540E+02  0.83569396777E+02  0.64833325878E+01  0.11600167984E+03  0.00000000000E+00 0. -1.
         -5    1    3    3    0  503 -0.11897370880E+02  0.44834421473E+02  0.11020629843E+02  0.47908423736E+02  0.47000000000E+01 0.  1.
         11    1    4    4    0    0 -0.22959884983E+02 -0.23942872948E+02 -0.15946022510E+02  0.36806155970E+02  0.00000000000E+00 0. -1.
        -12    1    4    4    0    0  0.66087366337E+02 -0.70879539941E+02 -0.15324200276E+02  0.98113609075E+02  0.00000000000E+00 0.  1.
</event>
<event>
12    1  0.8052519E-002  0.2001462E+03  0.7818608E-02  0.1149796E+00
         21   -1    0    0  503  502  0.00000000000E+00  0.00000000000E+00  0.31343610854E+02  0.31343610854E+02  0.00000000000E+00 0.  1.
         21   -1    0    0  501  503 -0.00000000000E+00 -0.00000000000E+00 -0.14058698491E+04  0.14058698491E+04  0.00000000000E+00 0. -1.
          6    2    1    2  501    0 -0.98891821651E+02 -0.18951959589E+02 -0.46733923821E+03  0.50839402226E+03  0.17297326133E+03 0.  0.
         24    2    3    3    0    0 -0.12300545116E+03 -0.55607150630E+02 -0.32900831167E+03  0.36319551884E+03  0.73770045003E+02 0.  0.
         -6    2    1    2    0  502  0.98891821651E+02  0.18951959589E+02 -0.90718700004E+03  0.92881943770E+03  0.17198408545E+03 0.  0.
        -24    2    5    5    0    0  0.13744903201E+03  0.15065310918E+02 -0.69281675115E+03  0.71092391660E+03  0.79363496141E+02 0.  0.
          5    1    3    3  501    0  0.24113629507E+02  0.36655191041E+02 -0.13833092655E+03  0.14519850343E+03  0.47000000000E+01 0. -1.
        -11    1    4    4    0    0 -0.31435444872E+02  0.18107942992E+02 -0.78057655960E+02  0.86076027137E+02  0.00000000000E+00 0.  1.
         12    1    4    4    0    0 -0.91570006285E+02 -0.73715093622E+02 -0.25095065571E+03  0.27711949170E+03  0.00000000000E+00 0. -1.
         -5    1    5    5    0  502 -0.38557210359E+02  0.38866486714E+01 -0.21437024889E+03  0.21789552111E+03  0.47000000000E+01 0.  1.
         11    1    6    6    0    0  0.72617922963E+02 -0.31846823542E+02 -0.35810629484E+03  0.36678018118E+03  0.00000000000E+00 0. -1.
        -12    1    6    6    0    0  0.64831109047E+02  0.46912134460E+02 -0.33471045631E+03  0.34414373542E+03  0.00000000000E+00 0.  1.
</event>
<event>
12    1  0.8052519E-002  0.3444504E+03  0.7818608E-02  0.1065024E+00
         21   -1    0    0  501  502  0.00000000000E+00  0.00000000000E+00  0.38251906563E+03  0.38251906563E+03  0.00000000000E+00 0. -1.
         21   -1    0    0  502  503 -0.00000000000E+00 -0.00000000000E+00 -0.32307978856E+03  0.32307978856E+03  0.00000000000E+00 0. -1.
         -6    2    1    2    0  503 -0.17044563620E+03  0.24387450942E+03 -0.43246936057E+02  0.34715464844E+03  0.17354988104E+03 0.  0.
        -24    2    3    3    0    0 -0.16863288209E+03  0.15365801516E+03 -0.71801735589E+02  0.25239300804E+03  0.80615797026E+02 0.  0.
          6    2    1    2  501    0  0.17044563620E+03 -0.24387450942E+03  0.10268621312E+03  0.35844420575E+03  0.17149722745E+03 0.  0.
         24    2    5    5    0    0  0.42244278960E+02 -0.13115363782E+03  0.99488982933E+02  0.18764053139E+03  0.79530217386E+02 0.  0.
          5    1    5    5  501    0  0.12820135724E+03 -0.11272087160E+03  0.31972301885E+01  0.17080367436E+03  0.47000000000E+01 0. -1.
        -13    1    6    6    0    0 -0.13205255224E+02 -0.65327971151E+01  0.32489049996E+02  0.35673443530E+02  0.00000000000E+00 0.  1.
         14    1    6    6    0    0  0.55449534184E+02 -0.12462084071E+03  0.66999932938E+02  0.15196708786E+03  0.00000000000E+00 0. -1.
         -5    1    3    3    0  503 -0.18127541129E+01  0.90216494260E+02  0.28554799532E+02  0.94761640395E+02  0.47000000000E+01 0.  1.
         13    1    4    4    0    0 -0.13723777265E+03  0.15141183502E+03 -0.80660207169E+02  0.21969483163E+03  0.00000000000E+00 0. -1.
        -14    1    4    4    0    0 -0.31395109438E+02  0.22461801462E+01  0.88584715802E+01  0.32698176411E+02  0.00000000000E+00 0.  1.
</event>
<event>
12    1  0.8052519E-002  0.2263031E+03  0.7818608E-02  0.1129353E+00
         21   -1    0    0  501  502  0.00000000000E+00  0.00000000000E+00  0.46971563465E+03  0.46971563465E+03  0.00000000000E+00 0.  1.
         21   -1    0    0  502  503 -0.00000000000E+00 -0.00000000000E+00 -0.31594460552E+03  0.31594460552E+03  0.00000000000E+00 0. -1.
         -6    2    1    2    0  503 -0.13868222502E+03  0.50199593429E+02 -0.24116337468E+03  0.33071569220E+03  0.17164013826E+03 0.  0.
        -24    2    3    3    0    0 -0.75310205087E+02  0.68670363794E+02 -0.82337197982E+02  0.15865457901E+03  0.89468516332E+02 0.  0.
          6    2    1    2  501    0  0.13868222502E+03 -0.50199593429E+02  0.39493440382E+03  0.45494454797E+03  0.17102221988E+03 0.  0.
         24    2    5    5    0    0 -0.11532378169E+01 -0.65720227246E+01  0.11223761818E+03  0.13651577383E+03  0.77425784649E+02 0.  0.
          5    1    5    5  501    0  0.13983546283E+03 -0.43627570704E+02  0.28269678564E+03  0.31842877414E+03  0.47000000000E+01 0. -1.
        -13    1    6    6    0    0 -0.95010539429E+01 -0.20437147852E+02  0.11738790273E+03  0.11953186498E+03  0.00000000000E+00 0.  1.
         14    1    6    6    0    0  0.83478161260E+01  0.13865125127E+02 -0.51502845472E+01  0.16983908849E+02  0.00000000000E+00 0. -1.
         -5    1    3    3    0  503 -0.63372019930E+02 -0.18470770366E+02 -0.15882617670E+03  0.17206111319E+03  0.47000000000E+01 0.  1.
         13    1    4    4    0    0 -0.83006347697E+02  0.42345986815E+02 -0.27199543997E+02  0.97072403653E+02  0.00000000000E+00 0. -1.
        -14    1    4    4    0    0  0.76961426102E+01  0.26324376979E+02 -0.55137653985E+02  0.61582175354E+02  0.00000000000E+00 0.  1.
</event>
<event>
12    1  0.8052519E-002  0.2636017E+03  0.7818608E-02  0.1105124E+00
         21   -1    0    0  503  502  0.00000000000E+00  0.00000000000E+00  0.10085717663E+03  0.10085717663E+03  0.00000000000E+00 0.  1.
         21   -1    0    0  501  503 -0.00000000000E+00 -0.00000000000E+00 -0.97212727836E+03  0.97212727836E+03  0.00000000000E+00 0.  1.
          6    2    1    2  501    0 -0.11746193582E+01 -0.19974594856E+03 -0.72681630932E+03  0.77314150184E+03  0.17200584490E+03 0.  0.
         24    2    3    3    0    0 -0.25264871339E+01 -0.18501647968E+03 -0.42071563221E+03  0.46664762045E+03  0.80751951057E+02 0.  0.
         -6    2    1    2    0  502  0.11746193582E+01  0.19974594856E+03 -0.14445379241E+03  0.29984295315E+03  0.17070171268E+03 0.  0.
        -24    2    5    5    0    0 -0.48686013826E+02  0.16410847877E+03 -0.14562285821E+03  0.23836475612E+03  0.79434371536E+02 0.  0.
          5    1    3    3  501    0  0.13518677758E+01 -0.14729468879E+02 -0.30610067711E+03  0.30649388139E+03  0.47000000000E+01 0. -1.
        -11    1    4    4    0    0  0.10670935015E+02 -0.84582622515E+02 -0.28383072277E+03  0.29635783788E+03  0.00000000000E+00 0.  1.
         12    1    4    4    0    0 -0.13197422149E+02 -0.10043385716E+03 -0.13688490944E+03  0.17028978257E+03  0.00000000000E+00 0. -1.
         -5    1    5    5    0  502  0.49860633184E+02  0.35637469787E+02  0.11690658000E+01  0.61478197023E+02  0.47000000000E+01 0.  1.
         13    1    6    6    0    0 -0.34336691534E+02  0.54229277759E+02 -0.12909479017E+02  0.65471196722E+02  0.00000000000E+00 0. -1.
        -14    1    6    6    0    0 -0.14349322292E+02  0.10987920101E+03 -0.13271337919E+03  0.17289355940E+03  0.00000000000E+00 0.  1.
</event>
<event>
12    1  0.8052519E-002  0.1974120E+03  0.7818608E-02  0.1153509E+00
         21   -1    0    0  501  502  0.00000000000E+00  0.00000000000E+00  0.19737893634E+03  0.19737893634E+03  0.00000000000E+00 0.  1.
         21   -1    0    0  502  503 -0.00000000000E+00 -0.00000000000E+00 -0.25465725329E+03  0.25465725329E+03  0.00000000000E+00 0. -1.
         -6    2    1    2    0  503 -0.19909730989E+02  0.94059741473E+02 -0.14181429106E+03  0.23728559742E+03  0.16416311778E+03 0.  0.
        -24    2    3    3    0    0  0.49508350784E+02  0.67965386266E+02 -0.81647958501E+02  0.14167250718E+03  0.79588564737E+02 0.  0.
          6    2    1    2  501    0  0.19909730989E+02 -0.94059741473E+02  0.84535974119E+02  0.21475059221E+03  0.17241767189E+03 0.  0.
         24    2    5    5    0    0 -0.19155778906E+02 -0.53627740726E+01  0.83325652682E+02  0.11771028632E+03  0.80726971322E+02 0.  0.
          5    1    5    5  501    0  0.39065509895E+02 -0.88696967400E+02  0.12103214377E+01  0.97040305890E+02  0.47000000000E+01 0. -1.
        -13    1    6    6    0    0  0.26444507198E+02 -0.10348430792E+02  0.59704495155E+02  0.66113755925E+02  0.00000000000E+00 0.  1.
         14    1    6    6    0    0 -0.45600286104E+02  0.49856567195E+01  0.23621157527E+02  0.51596530393E+02  0.00000000000E+00 0. -1.
         -5    1    3    3    0  503 -0.69418081773E+02  0.26094355207E+02 -0.60166332562E+02  0.95613090237E+02  0.47000000000E+01 0.  1.
         13    1    4    4    0    0  0.15326984029E+02  0.78518126442E+02 -0.55787118699E+02  0.97530586137E+02  0.00000000000E+00 0. -1.
        -14    1    4    4    0    0  0.34181366756E+02 -0.10552740177E+02 -0.25860839801E+02  0.44141921047E+02  0.00000000000E+00 0.  1.
</event>
<event>
12    1  0.8052519E-002  0.1780315E+03  0.7818608E-02  0.1169804E+00
         21   -1    0    0  503  502  0.00000000000E+00  0.00000000000E+00  0.18910285263E+03  0.18910285263E+03  0.00000000000E+00 0. -1.
         21   -1    0    0  501  503 -0.00000000000E+00 -0.00000000000E+00 -0.16997115953E+03  0.16997115953E+03  0.00000000000E+00 0. -1.
          6    2    1    2  501    0  0.45236536382E+02  0.17821889691E+02 -0.12962212443E+02  0.17850275212E+03  0.17126368438E+03 0.  0.
         24    2    3    3    0    0  0.82137050344E+02  0.12647663335E+02  0.32864771005E+02  0.11925224190E+03  0.78959138793E+02 0.  0.
         -6    2    1    2    0  502 -0.45236536382E+02 -0.17821889691E+02  0.32093905544E+02  0.18057126004E+03  0.17091517546E+03 0.  0.
        -24    2    5    5    0    0 -0.17117809954E+02  0.49904122261E+02 -0.36548660438E+01  0.98855042915E+02  0.83519582301E+02 0.  0.
          5    1    3    3  501    0 -0.36900513961E+02  0.51742263563E+01 -0.45826983449E+02  0.59250510217E+02  0.47000000000E+01 0. -1.
        -11    1    4    4    0    0 -0.71231951515E+01 -0.89878191762E+01  0.24470488563E+02  0.27024537243E+02  0.00000000000E+00 0.  1.
         12    1    4    4    0    0  0.89260245495E+02  0.21635482511E+02  0.83942824426E+01  0.92227704661E+02  0.00000000000E+00 0. -1.
         -5    1    5    5    0  502 -0.28118726428E+02 -0.67726011952E+02  0.35748771587E+02  0.81716217123E+02  0.47000000000E+01 0.  1.
         13    1    6    6    0    0 -0.20639795009E+02  0.21893778104E+02  0.38040304836E+02  0.48501581930E+02  0.00000000000E+00 0. -1.
        -14    1    6    6    0    0  0.35219850549E+01  0.28010344157E+02 -0.41695170880E+02  0.50353460985E+02  0.00000000000E+00 0.  1.
</event>
<event>
12    1  0.8052519E-002  0.3591895E+03  0.7818608E-02  0.1058928E+00
         21   -1    0    0  501  502  0.00000000000E+00  0.00000000000E+00  0.56264632171E+03  0.56264632171E+03  0.00000000000E+00 0.  1.
         21   -1    0    0  502  503 -0.00000000000E+00 -0.00000000000E+00 -0.87230144759E+03  0.87230144759E+03  0.00000000000E+00 0. -1.
         -6    2    1    2    0  503 -0.29047153599E+03 -0.12147164467E+03 -0.77088035669E+03  0.85035744689E+03  0.17240124557E+03 0.  0.
        -24    2    3    3    0    0 -0.30693806263E+03 -0.10086089346E+03 -0.71805447630E+03  0.79112389893E+03  0.76752188285E+02 0.  0.
          6    2    1    2  501    0  0.29047153599E+03  0.12147164467E+03  0.46122523081E+03  0.58459032240E+03  0.17288162952E+03 0.  0.
         24    2    5    5    0    0  0.22136463050E+03  0.26508413313E+02  0.26000769432E+03  0.35155734900E+03  0.79268990917E+02 0.  0.
          5    1    5    5  501    0  0.69106905489E+02  0.94963231354E+02  0.20121753650E+03  0.23303297340E+03  0.47000000000E+01 0. -1.
        -11    1    6    6    0    0  0.16783237497E+03  0.32477180363E+02  0.23877482297E+03  0.29365947868E+03  0.00000000000E+00 0.  1.
         12    1    6    6    0    0  0.53532255537E+02 -0.59687670497E+01  0.21232871344E+02  0.57897870328E+02  0.00000000000E+00 0. -1.
         -5    1    3    3    0  503  0.16466526639E+02 -0.20610751209E+02 -0.52825880391E+02  0.59233547961E+02  0.47000000000E+01 0.  1.
         11    1    4    4    0    0 -0.79816775891E+02 -0.63289439588E+02 -0.21835517750E+03  0.24094658001E+03  0.00000000000E+00 0. -1.
        -12    1    4    4    0    0 -0.22712128674E+03 -0.37571453870E+02 -0.49969929880E+03  0.55017731892E+03  0.00000000000E+00 0.  1.
</event>
<event>
12    1  0.8052519E-002  0.2174987E+03  0.7818608E-02  0.1135767E+00
         21   -1    0    0  503  502  0.00000000000E+00  0.00000000000E+00  0.25409718859E+03  0.25409718859E+03  0.00000000000E+00 0.  1.
         21   -1    0    0  501  503 -0.00000000000E+00 -0.00000000000E+00 -0.18615878726E+03  0.18615878726E+03  0.00000000000E+00 0. -1.
          6    2    1    2  501    0  0.12551089523E+03  0.44852876687E+02  0.35597487127E+02  0.22036599821E+03  0.17184070155E+03 0.  0.
         24    2    3    3    0    0  0.14070215118E+03  0.32031373560E+02 -0.14501191781E+02  0.16626301467E+03  0.81301914165E+02 0.  0.
         -6    2    1    2    0  502 -0.12551089523E+03 -0.44852876687E+02  0.32340914209E+02  0.21988997764E+03  0.17187466993E+03 0.  0.
        -24    2    5    5    0    0 -0.97445373626E+02 -0.93445844842E+01  0.83746386643E+02  0.15123777509E+03  0.79224271778E+02 0.  0.
          5    1    3    3  501    0 -0.15191255944E+02  0.12821503127E+02  0.50098678907E+02  0.54102983540E+02  0.47000000000E+01 0. -1.
        -13    1    4    4    0    0  0.32417159675E+02 -0.23747120684E+01 -0.38242320335E+02  0.50189506507E+02  0.00000000000E+00 0.  1.
         14    1    4    4    0    0  0.10828499150E+03  0.34406085628E+02  0.23741128554E+02  0.11607350817E+03  0.00000000000E+00 0. -1.
         -5    1    5    5    0  502 -0.28065521607E+02 -0.35508292202E+02 -0.51405472434E+02  0.68652202546E+02  0.47000000000E+01 0.  1.
         11    1    6    6    0    0 -0.26554182315E+01 -0.17236262829E+02  0.45483578726E+02  0.48712379699E+02  0.00000000000E+00 0. -1.
        -12    1    6    6    0    0 -0.94789955394E+02  0.78916783444E+01  0.38262807917E+02  0.10252539539E+03  0.00000000000E+00 0.  1.
</event>
<event>
12    1  0.8052519E-002  0.2315637E+03  0.7818608E-02  0.1125668E+00
         21   -1    0    0  503  502  0.00000000000E+00  0.00000000000E+00  0.74837300309E+03  0.74837300309E+03  0.00000000000E+00 0.  1.
         21   -1    0    0  501  503 -0.00000000000E+00 -0.00000000000E+00 -0.84791570385E+02  0.84791570385E+02  0.00000000000E+00 0.  1.
          6    2    1    2  501    0 -0.91362067356E+02  0.12369487141E+03  0.16686287156E+03  0.28542071937E+03  0.17313093478E+03 0.  0.
         24    2    3    3    0    0 -0.94546342594E+02  0.13482924791E+03  0.18696996241E+03  0.26174585821E+03  0.80219638855E+02 0.  0.
         -6    2    1    2    0  502  0.91362067356E+02 -0.12369487141E+03  0.49671856114E+03  0.54774385410E+03  0.17218174165E+03 0.  0.
        -24    2    5    5    0    0  0.10605076101E+03 -0.13897931388E+03  0.48837458694E+03  0.52448264587E+03  0.77526092738E+02 0.  0.
          5    1    3    3  501    0  0.31842752377E+01 -0.11134376499E+02 -0.20107090845E+02  0.23674861162E+02  0.47000000000E+01 0. -1.
        -11    1    4    4    0    0 -0.23235852023E+02  0.79919146568E+02  0.47708890960E+02  0.95932857166E+02  0.00000000000E+00 0.  1.
         12    1    4    4    0    0 -0.71310490571E+02  0.54910101342E+02  0.13926107145E+03  0.16581300104E+03  0.00000000000E+00 0. -1.
         -5    1    5    5    0  502 -0.14688693655E+02  0.15284442466E+02  0.83439741991E+01  0.23261208227E+02  0.47000000000E+01 0.  1.
         13    1    6    6    0    0  0.39890922393E+02 -0.80678798435E+02  0.15112695683E+03  0.17589687685E+03  0.00000000000E+00 0. -1.
        -14    1    6    6    0    0  0.66159838617E+02 -0.58300515440E+02  0.33724763011E+03  0.34858576902E+03  0.00000000000E+00 0.  1.
</event>
<event>
12    1  0.8052519E-002  0.1847895E+03  0.7818608E-02  0.1163668E+00
         21   -1    0    0  503  502  0.00000000000E+00  0.00000000000E+00  0.28097556955E+04  0.28097556955E+04  0.00000000000E+00 0. -1.
         21   -1    0    0  501  503 -0.00000000000E+00 -0.00000000000E+00 -0.17145631922E+02  0.17145631922E+02  0.00000000000E+00 0. -1.
          6    2    1    2  501    0  0.41670096231E+02 -0.47031970843E+02  0.61988550075E+03  0.64633278175E+03  0.17187096185E+03 0.  0.
         24    2    3    3    0    0  0.78467245190E+02 -0.72680655608E+02  0.50354874884E+03  0.52156012831E+03  0.83809538360E+02 0.  0.
         -6    2    1    2    0  502 -0.41670096231E+02  0.47031970843E+02  0.21727245628E+04  0.21805685456E+04  0.17377788478E+03 0.  0.
        -24    2    5    5    0    0  0.21948006160E+02  0.51413803969E+02  0.76483742064E+03  0.77123013402E+03  0.81820201623E+02 0.  0.
          5    1    3    3  501    0 -0.36797148959E+02  0.25648684765E+02  0.11633675191E+03  0.12477265344E+03  0.47000000000E+01 0. -1.
        -11    1    4    4    0    0  0.83023778258E+02 -0.24332232150E+02  0.34885406013E+03  0.35942198116E+03  0.00000000000E+00 0.  1.
         12    1    4    4    0    0 -0.45565330678E+01 -0.48348423458E+02  0.15469468872E+03  0.16213814715E+03  0.00000000000E+00 0. -1.
         -5    1    5    5    0  502 -0.63618102391E+02 -0.43818331256E+01  0.14078871422E+04  0.14093384116E+04  0.47000000000E+01 0.  1.
         13    1    6    6    0    0  0.13951454729E+02  0.47450369193E+02  0.75890164271E+03  0.76051159356E+03  0.00000000000E+00 0. -1.
        -14    1    6    6    0    0  0.79965514310E+01  0.39634347763E+01  0.59357779315E+01  0.10718540463E+02  0.00000000000E+00 0.  1.
</event>
<event>
12    1  0.8052519E-002  0.1973624E+03  0.7818608E-02  0.1152119E+00
         21   -1    0    0  503  502  0.00000000000E+00  0.00000000000E+00  0.38368088941E+03  0.38368088941E+03  0.00000000000E+00 0. -1.
         21   -1    0    0  501  503 -0.00000000000E+00 -0.00000000000E+00 -0.12889214754E+03  0.12889214754E+03  0.00000000000E+00 0. -1.
          6    2    1    2  501    0  0.75063768233E+02 -0.61864720435E+02  0.87562042333E+01  0.19755658221E+03  0.17172687362E+03 0.  0.
         24    2    3    3    0    0  0.74151143367E+02  0.93374420593E+01  0.43278438977E+02  0.11828202437E+03  0.80821000504E+02 0.  0.
         -6    2    1    2    0  502 -0.75063768233E+02  0.61864720435E+02  0.24603253763E+03  0.31501645474E+03  0.17100159137E+03 0.  0.
        -24    2    5    5    0    0 -0.10828773992E+03  0.36280034112E+02  0.23016255557E+03  0.26993480881E+03  0.82749764534E+02 0.  0.
          5    1    3    3  501    0  0.91262486658E+00 -0.71202162495E+02 -0.34522234743E+02  0.79274557834E+02  0.47000000000E+01 0. -1.
        -13    1    4    4    0    0  0.75069719767E+02 -0.10254798031E+02  0.58087210843E+01  0.75989242325E+02  0.00000000000E+00 0.  1.
         14    1    4    4    0    0 -0.91857639979E+00  0.19592240090E+02  0.37469717892E+02  0.42292782047E+02  0.00000000000E+00 0. -1.
         -5    1    5    5    0  502  0.33223971689E+02  0.25584686324E+02  0.15869982063E+02  0.45081645930E+02  0.47000000000E+01 0.  1.
         11    1    6    6    0    0 -0.51297990813E+01  0.28519453636E+02  0.97443867747E+02  0.10166111073E+03  0.00000000000E+00 0. -1.
        -12    1    6    6    0    0 -0.10315794084E+03  0.77605804762E+01  0.13271868782E+03  0.16827369808E+03  0.00000000000E+00 0.  1.
</event>
<event>
12    1  0.8052519E-002  0.1858940E+03  0.7818608E-02  0.1164488E+00
         21   -1    0    0  501  502  0.00000000000E+00  0.00000000000E+00  0.79898128507E+03  0.79898128507E+03  0.00000000000E+00 0. -1.
         21   -1    0    0  502  503 -0.00000000000E+00 -0.00000000000E+00 -0.52954803874E+02  0.52954803874E+02  0.00000000000E+00 0. -1.
         -6    2    1    2    0  503 -0.19426637003E+02  0.28971419962E+02  0.16363660202E+03  0.24059776118E+03  0.17289768004E+03 0.  0.
        -24    2    3    3    0    0 -0.40486787527E+02  0.72013321456E+02  0.15366038828E+03  0.19142713921E+03  0.78789188759E+02 0.  0.
          6    2    1    2  501    0  0.19426637003E+02 -0.28971419962E+02  0.58238987918E+03  0.61133832777E+03  0.18259201032E+03 0.  0.
         24    2    5    5    0    0 -0.26064034873E+02  0.30571002456E+02  0.16690085617E+03  0.18912046987E+03  0.79351976829E+02 0.  0.
          5    1    5    5  501    0  0.45490671876E+02 -0.59542422418E+02  0.41548902301E+03  0.42221785790E+03  0.47000000000E+01 0. -1.
        -13    1    6    6    0    0  0.17778178203E+02 -0.95707089448E+01  0.12684682466E+02  0.23844564563E+02  0.00000000000E+00 0.  1.
         14    1    6    6    0    0 -0.43842213076E+02  0.40141711401E+02  0.15421617371E+03  0.16527590530E+03  0.00000000000E+00 0. -1.
         -5    1    3    3    0  503  0.21060150524E+02 -0.43041901495E+02  0.99762137374E+01  0.49170621970E+02  0.47000000000E+01 0.  1.
         11    1    4    4    0    0  0.13025646145E+02  0.22161631740E+02  0.56295276121E+01  0.26315336973E+02  0.00000000000E+00 0. -1.
        -12    1    4    4    0    0 -0.53512433672E+02  0.49851689716E+02  0.14803086067E+03  0.16511180223E+03  0.00000000000E+00 0.  1.
</event>
<event>
12    1  0.8052519E-002  0.2044895E+03  0.7818608E-02  0.1146278E+00
         21   -1    0    0  503  502  0.00000000000E+00  0.00000000000E+00  0.16328904606E+03  0.16328904606E+03  0.00000000000E+00 0. -1.
         21   -1    0    0  501  503 -0.00000000000E+00 -0.00000000000E+00 -0.11464131280E+04  0.11464131280E+04  0.00000000000E+00 0. -1.
          6    2    1    2  501    0  0.10495932431E+03  0.26213107053E+02 -0.10695460298E+04  0.10889190408E+04  0.17352919318E+03 0.  0.
         24    2    3    3    0    0  0.10480817044E+03 -0.37799285584E+01 -0.45809694671E+03  0.47671672440E+03  0.80043627409E+02 0.  0.
         -6    2    1    2    0  502 -0.10495932431E+03 -0.26213107053E+02  0.86421947836E+02  0.22078313325E+03  0.17196759031E+03 0.  0.
        -24    2    5    5    0    0 -0.46476865914E+02  0.25173419332E+01  0.11645224863E+03  0.14888358106E+03  0.80241874496E+02 0.  0.
          5    1    3    3  501    0  0.15115387334E+00  0.29993035611E+02 -0.61144908307E+03  0.61220231641E+03  0.47000000000E+01 0. -1.
        -11    1    4    4    0    0  0.29391530509E+02 -0.26806499867E+02 -0.68439739076E+02  0.79160901874E+02  0.00000000000E+00 0.  1.
         12    1    4    4    0    0  0.75416639927E+02  0.23026571308E+02 -0.38965720763E+03  0.39755582252E+03  0.00000000000E+00 0. -1.
         -5    1    5    5    0  502 -0.58482458396E+02 -0.28730448986E+02 -0.30030300793E+02  0.71899552187E+02  0.47000000000E+01 0.  1.
         11    1    6    6    0    0 -0.42110431893E+02  0.17575390123E+02  0.17778479366E+02  0.48972003642E+02  0.00000000000E+00 0. -1.
        -12    1    6    6    0    0 -0.43664340207E+01 -0.15058048190E+02  0.98673769262E+02  0.99911577416E+02  0.00000000000E+00 0.  1.
</event>
<event>
12    1  0.8052519E-002  0.1823312E+03  0.7818608E-02  0.1165715E+00
         21   -1    0    0  503  502  0.00000000000E+00  0.00000000000E+00  0.94819630535E+02  0.94819630535E+02  0.00000000000E+00 0.  1.
         21   -1    0    0  501  503 -0.00000000000E+00 -0.00000000000E+00 -0.45153411785E+03  0.45153411785E+03  0.00000000000E+00 0.  1.
          6    2    1    2  501    0 -0.52018913155E+02  0.31001767001E+02 -0.30851193960E+03  0.35836332403E+03  0.17198133112E+03 0.  0.
         24    2    3    3    0    0  0.28088441820E+02  0.12505783052E+02 -0.22668209676E+03  0.24227067602E+03  0.79780651130E+02 0.  0.
         -6    2    1    2    0  502  0.52018913155E+02 -0.31001767001E+02 -0.48202547716E+02  0.18799042435E+03  0.17131794173E+03 0.  0.
        -24    2    5    5    0    0 -0.21945103868E+02 -0.42474937494E+02 -0.60909152272E+02  0.11192560164E+03  0.80818980275E+02 0.  0.
          5    1    3    3  501    0 -0.80107354975E+02  0.18495983949E+02 -0.81829842845E+02  0.11609264802E+03  0.47000000000E+01 0. -1.
        -13    1    4    4    0    0  0.16356388075E+02  0.20824061077E+02 -0.15669590898E+02  0.30768637109E+02  0.00000000000E+00 0.  1.
         14    1    4    4    0    0  0.11732053744E+02 -0.83182780248E+01 -0.21101250586E+03  0.21150203891E+03  0.00000000000E+00 0. -1.
         -5    1    5    5    0  502  0.73964017023E+02  0.11473170492E+02  0.12706604556E+02  0.76064822715E+02  0.47000000000E+01 0.  1.
         13    1    6    6    0    0 -0.33286850341E+02 -0.21092692132E+02 -0.74417362340E+02  0.84207243659E+02  0.00000000000E+00 0. -1.
        -14    1    6    6    0    0  0.11341746473E+02 -0.21382245362E+02  0.13508210068E+02  0.27718357979E+02  0.00000000000E+00 0.  1.
</event>
<event>
12    1  0.8052519E-002  0.2858589E+03  0.7818608E-02  0.1092666E+00
         21   -1    0    0  501  502  0.00000000000E+00  0.00000000000E+00  0.12691466548E+03  0.12691466548E+03  0.00000000000E+00 0. -1.
         21   -1    0    0  502  503 -0.00000000000E+00 -0.00000000000E+00 -0.12268934574E+04  0.12268934574E+04  0.00000000000E+00 0. -1.
         -6    2    1    2    0  503  0.17506702429E+03 -0.14706692265E+03 -0.10180337037E+04  0.10574062283E+04  0.17157554327E+03 0.  0.
        -24    2    3    3    0    0  0.17364220597E+03 -0.10956514932E+03 -0.62675889552E+03  0.66430766734E+03  0.79509912225E+02 0.  0.
          6    2    1    2  501    0 -0.17506702429E+03  0.14706692265E+03 -0.81945088268E+02  0.29640189463E+03  0.16988803053E+03 0.  0.
         24    2    5    5    0    0 -0.48225331540E+02  0.10794746239E+03 -0.64615307458E+01  0.14363080886E+03  0.81300188410E+02 0.  0.
          5    1    5    5  501    0 -0.12684169275E+03  0.39119460263E+02 -0.75483557522E+02  0.15277108577E+03  0.47000000000E+01 0. -1.
        -13    1    6    6    0    0  0.17184691661E+02  0.31233163641E+02 -0.21606206510E+02  0.41685156810E+02  0.00000000000E+00 0.  1.
         14    1    6    6    0    0 -0.65410023201E+02  0.76714298751E+02  0.15144675765E+02  0.10194565205E+03  0.00000000000E+00 0. -1.
         -5    1    3    3    0  503  0.14248183241E+01 -0.37501773338E+02 -0.39127480814E+03  0.39309856091E+03  0.47000000000E+01 0.  1.
         11    1    4    4    0    0  0.12659455330E+03 -0.68016930162E+02 -0.52867678944E+03  0.54786095992E+03  0.00000000000E+00 0. -1.
        -12    1    4    4    0    0  0.47047652673E+02 -0.41548219154E+02 -0.98082106078E+02  0.11644670742E+03  0.00000000000E+00 0.  1.
</event>
<event>
12    1  0.8052519E-002  0.6290140E+03  0.7818608E-02  0.9847212E-01
         21   -1    0    0  501  502  0.00000000000E+00  0.00000000000E+00  0.15566648491E+03  0.15566648491E+03  0.00000000000E+00 0. -1.
         21   -1    0    0  502  503 -0.00000000000E+00 -0.00000000000E+00 -0.27538784459E+04  0.27538784459E+04  0.00000000000E+00 0.  1.
         -6    2    1    2    0  503  0.59758435770E+03 -0.90730186351E+02 -0.17043048126E+04  0.18165085328E+04  0.17236392928E+03 0.  0.
        -24    2    3    3    0    0  0.24103561118E+03 -0.70473870529E+02 -0.86636799437E+03  0.90563119289E+03  0.80682238330E+02 0.  0.
          6    2    1    2  501    0 -0.59758435770E+03  0.90730186351E+02 -0.89390714840E+03  0.10930363980E+04  0.17412508781E+03 0.  0.
         24    2    5    5    0    0 -0.23095022401E+03  0.91240861172E+02 -0.34094916923E+03  0.42955658260E+03  0.81299575264E+02 0.  0.
          5    1    5    5  501    0 -0.36663413369E+03 -0.51067482112E+00 -0.55295797917E+03  0.66347981544E+03  0.47000000000E+01 0. -1.
        -13    1    6    6    0    0 -0.19457082795E+03  0.79681969968E+02 -0.22713300429E+03  0.30950997571E+03  0.00000000000E+00 0.  1.
         14    1    6    6    0    0 -0.36379396060E+02  0.11558891204E+02 -0.11381616494E+03  0.12004660689E+03  0.00000000000E+00 0. -1.
         -5    1    3    3    0  503  0.35654874651E+03 -0.20256315822E+02 -0.83793681824E+03  0.91087733990E+03  0.47000000000E+01 0.  1.
         11    1    4    4    0    0  0.27888412368E+01 -0.18099737989E+02 -0.39634609715E+02  0.43660971565E+02  0.00000000000E+00 0. -1.
        -12    1    4    4    0    0  0.23824676995E+03 -0.52374132539E+02 -0.82673338465E+03  0.86197022133E+03  0.00000000000E+00 0.  1.
</event>
<event>
12    1  0.8052519E-002  0.2003308E+03  0.7818608E-02  0.1149876E+00
         21   -1    0    0  501  502  0.00000000000E+00  0.00000000000E+00  0.49519297513E+03  0.49519297513E+03  0.00000000000E+00 0.  1.
         21   -1    0    0  502  503 -0.00000000000E+00 -0.00000000000E+00 -0.40776065432E+03  0.40776065432E+03  0.00000000000E+00 0. -1.
         -6    2    1    2    0  503 -0.79254477508E+02 -0.68871498033E+02 -0.36094343451E+03  0.41185968098E+03  0.16829640062E+03 0.  0.
        -24    2    3    3    0    0 -0.10323760736E+03 -0.26109813332E+02 -0.17766976129E+03  0.22208328232E+03  0.80091911481E+02 0.  0.
          6    2    1    2  501    0  0.79254477508E+02  0.68871498033E+02  0.44837575531E+03  0.49109394846E+03  0.17061035377E+03 0.  0.
         24    2    5    5    0    0  0.10095078868E+03  0.96440723918E+02  0.32656474674E+03  0.36424441577E+03  0.80855337732E+02 0.  0.
          5    1    5    5  501    0 -0.21696311173E+02 -0.27569225885E+02  0.12181100857E+03  0.12684953269E+03  0.47000000000E+01 0. -1.
        -11    1    6    6    0    0  0.32707319082E+02 -0.43879292943E+01  0.34120984443E+02  0.47468560379E+02  0.00000000000E+00 0.  1.
         12    1    6    6    0    0  0.68243469599E+02  0.10082865321E+03  0.29244376230E+03  0.31677585539E+03  0.00000000000E+00 0. -1.
         -5    1    3    3    0  503  0.23983129850E+02 -0.42761684701E+02 -0.18327367321E+03  0.18977639866E+03  0.47000000000E+01 0.  1.
         11    1    4    4    0    0 -0.55516573401E+02 -0.54306575087E+02 -0.10892890715E+03  0.13377892522E+03  0.00000000000E+00 0. -1.
        -12    1    4    4    0    0 -0.47721033957E+02  0.28196761755E+02 -0.68740854137E+02  0.88304357100E+02  0.00000000000E+00 0.  1.
</event>
<event>
12    1  0.8052519E-002  0.2286058E+03  0.7818608E-02  0.1128343E+00
         21   -1    0    0  503  502  0.00000000000E+00  0.00000000000E+00  0.13652859328E+03  0.13652859328E+03  0.00000000000E+00 0.  1.
         21   -1    0    0  501  503 -0.00000000000E+00 -0.00000000000E+00 -0.51582878124E+03  0.51582878124E+03  0.00000000000E+00 0.  1.
          6    2    1    2  501    0 -0.14875736527E+03  0.10364610559E+02 -0.21113190900E+02  0.22957871819E+03  0.17327562478E+03 0.  0.
         24    2    3    3    0    0 -0.83819941912E+02 -0.61985465375E+02 -0.92731017041E+01  0.13152934210E+03  0.79661765215E+02 0.  0.
         -6    2    1    2    0  502  0.14875736527E+03 -0.10364610559E+02 -0.35818699705E+03  0.42277865633E+03  0.16795144689E+03 0.  0.
        -24    2    5    5    0    0  0.17631894897E+03  0.26982005943E+01 -0.28872540061E+03  0.34677022711E+03  0.76102440163E+02 0.  0.
          5    1    3    3  501    0 -0.64937423358E+02  0.72350075934E+02 -0.11840089196E+02  0.98049376093E+02  0.47000000000E+01 0. -1.
        -13    1    4    4    0    0 -0.43050897595E+02  0.76224440493E+01 -0.23469231671E+02  0.49621429567E+02  0.00000000000E+00 0.  1.
         14    1    4    4    0    0 -0.40769044317E+02 -0.69607909424E+02  0.14196129967E+02  0.81907912530E+02  0.00000000000E+00 0. -1.
         -5    1    5    5    0  502 -0.27561583705E+02 -0.13062811153E+02 -0.69461596447E+02  0.76008429220E+02  0.47000000000E+01 0.  1.
         13    1    6    6    0    0  0.25085083937E+01 -0.16228879860E+02 -0.34728724158E+02  0.38415536408E+02  0.00000000000E+00 0. -1.
        -14    1    6    6    0    0  0.17381044058E+03  0.18927080454E+02 -0.25399667645E+03  0.30835469070E+03  0.00000000000E+00 0.  1.
</event>
<event>
12    1  0.8052519E-002  0.1951372E+03  0.7818608E-02  0.1154350E+00
         21   -1    0    0  503  502  0.00000000000E+00  0.00000000000E+00  0.26183983136E+03  0.26183983136E+03  0.00000000000E+00 0.  1.
         21   -1    0    0  501  503 -0.00000000000E+00 -0.00000000000E+00 -0.29607345834E+03  0.29607345834E+03  0.00000000000E+00 0.  1.
          6    2    1    2  501    0 -0.51941608374E+01 -0.90763439441E+02 -0.21713043814E+03  0.29193173772E+03  0.17266595228E+03 0.  0.
         24    2    3    3    0    0 -0.71082720490E+02 -0.59501930048E+02 -0.14633941169E+03  0.19018674429E+03  0.78501856399E+02 0.  0.
         -6    2    1    2    0  502  0.51941608374E+01  0.90763439441E+02  0.18289681115E+03  0.26598155198E+03  0.17038181012E+03 0.  0.
        -24    2    5    5    0    0  0.65689778603E+01  0.32242068130E+02  0.18686042536E+03  0.20712204757E+03  0.83066368630E+02 0.  0.
          5    1    3    3  501    0  0.65888559653E+02 -0.31261509393E+02 -0.70791026447E+02  0.10174499343E+03  0.47000000000E+01 0. -1.
        -13    1    4    4    0    0 -0.67640560368E+02 -0.75003149661E+01 -0.68898305625E+02  0.96842535332E+02  0.00000000000E+00 0.  1.
         14    1    4    4    0    0 -0.34421601220E+01 -0.52001615082E+02 -0.77441106064E+02  0.93344208957E+02  0.00000000000E+00 0. -1.
         -5    1    5    5    0  502 -0.13748170229E+01  0.58521371311E+02 -0.39636142068E+01  0.58859504411E+02  0.47000000000E+01 0.  1.
         13    1    6    6    0    0  0.37662932923E+02 -0.15144014406E+01  0.48985184925E+02  0.61808885043E+02  0.00000000000E+00 0. -1.
        -14    1    6    6    0    0 -0.31093955063E+02  0.33756469570E+02  0.13787524044E+03  0.14531316253E+03  0.00000000000E+00 0.  1.
</event>
<event>
12    1  0.8052519E-002  0.2154282E+03  0.7818608E-02  0.1137445E+00
         21   -1    0    0  501  502  0.00000000000E+00  0.00000000000E+00  0.16596775012E+03  0.16596775012E+03  0.00000000000E+00 0.  1.
         21   -1    0    0  502  503 -0.00000000000E+00 -0.00000000000E+00 -0.27901624842E+03  0.27901624842E+03  0.00000000000E+00 0.  1.
         -6    2    1    2    0  503 -0.76399445331E+02 -0.10487725629E+03 -0.61095323956E+02  0.22392401939E+03  0.17196864167E+03 0.  0.
        -24    2    3    3    0    0 -0.74340153137E+02 -0.29827860692E+02  0.25000668832E+02  0.10959439752E+03  0.70496374969E+02 0.  0.
          6    2    1    2  501    0  0.76399445331E+02  0.10487725629E+03 -0.51953174351E+02  0.22105997915E+03  0.17126665736E+03 0.  0.
         24    2    5    5    0    0  0.98603533799E+02  0.35214646237E+02 -0.64119875241E+00  0.13161217525E+03  0.79740989150E+02 0.  0.
          5    1    5    5  501    0 -0.22204088468E+02  0.69662610049E+02 -0.51311975599E+02  0.89447803904E+02  0.47000000000E+01 0. -1.
        -11    1    6    6    0    0  0.45005689349E+02  0.37527881043E+02  0.34003608992E+02  0.67750271984E+02  0.00000000000E+00 0.  1.
         12    1    6    6    0    0  0.53597844449E+02 -0.23132348060E+01 -0.34644807745E+02  0.63861903264E+02  0.00000000000E+00 0. -1.
         -5    1    3    3    0  503 -0.20592921941E+01 -0.75049395593E+02 -0.86095992787E+02  0.11432962187E+03  0.47000000000E+01 0.  1.
         13    1    4    4    0    0 -0.59135427530E+01 -0.36047281347E+02  0.17415785195E+02  0.40468333971E+02  0.00000000000E+00 0. -1.
        -14    1    4    4    0    0 -0.68426610384E+02  0.62194206551E+01  0.75848836363E+01  0.69126063548E+02  0.00000000000E+00 0.  1.
</event>
<event>
12    1  0.8052519E-002  0.2149369E+03  0.7818608E-02  0.1137798E+00
         21   -1    0    0  503  502  0.00000000000E+00  0.00000000000E+00  0.49972117954E+02  0.49972117954E+02  0.00000000000E+00 0.  1.
         21   -1    0    0  501  503 -0.00000000000E+00 -0.00000000000E+00 -0.10485526178E+04  0.10485526178E+04  0.00000000000E+00 0. -1.
          6    2    1    2  501    0  0.94470510136E+02 -0.84957178074E+02 -0.68920453736E+03  0.72181347037E+03  0.17282763753E+03 0.  0.
         24    2    3    3    0    0  0.12738685295E+03 -0.35638229715E+02 -0.50889478149E+03  0.53194630008E+03  0.80594502393E+02 0.  0.
         -6    2    1    2    0  502 -0.94470510136E+02  0.84957178074E+02 -0.30937596251E+03  0.37671126541E+03  0.17336519812E+03 0.  0.
        -24    2    5    5    0    0 -0.10219074906E+03  0.28439389980E+02 -0.28550848804E+03  0.31469829260E+03  0.79171778577E+02 0.  0.
          5    1    3    3  501    0 -0.32916342816E+02 -0.49318948359E+02 -0.18030975587E+03  0.18986717029E+03  0.47000000000E+01 0. -1.
        -13    1    4    4    0    0  0.12098453707E+03 -0.40744547919E+02 -0.34524396033E+03  0.36809070694E+03  0.00000000000E+00 0.  1.
         14    1    4    4    0    0  0.64023158823E+01  0.51063182042E+01 -0.16365082117E+03  0.16385559314E+03  0.00000000000E+00 0. -1.
         -5    1    5    5    0  502  0.77202389270E+01  0.56517788094E+02 -0.23867474470E+02  0.62012972818E+02  0.47000000000E+01 0.  1.
         13    1    6    6    0    0 -0.29579913000E+02  0.45429721638E+02 -0.15730242346E+03  0.16638173965E+03  0.00000000000E+00 0. -1.
        -14    1    6    6    0    0 -0.72610836064E+02 -0.16990331658E+02 -0.12820606458E+03  0.14831655295E+03  0.00000000000E+00 0.  1.
</event>
<event>
12    1  0.8052519E-002  0.2537349E+03  0.7818608E-02  0.1112119E+00
         21   -1    0    0  503  502  0.00000000000E+00  0.00000000000E+00  0.28424294632E+03  0.28424294632E+03  0.00000000000E+00 0.  1.
         21   -1    0    0  501  503 -0.00000000000E+00 -0.00000000000E+00 -0.71708853767E+03  0.71708853767E+03  0.00000000000E+00 0.  1.
          6    2    1    2  501    0  0.14895218556E+03  0.11447526305E+03 -0.63227954230E+03  0.67860047258E+03  0.15946737077E+03 0.  0.
         24    2    3    3    0    0  0.13302417146E+03  0.13804778648E+03 -0.47124378527E+03  0.51500349663E+03  0.80032961014E+02 0.  0.
         -6    2    1    2    0  502 -0.14895218556E+03 -0.11447526305E+03  0.19943395095E+03  0.32273101142E+03  0.17055810010E+03 0.  0.
        -24    2    5    5    0    0 -0.80427826511E+02 -0.14503255738E+02  0.37840182543E+02  0.12067996338E+03  0.80329287569E+02 0.  0.
          5    1    3    3  501    0  0.15928014097E+02 -0.23572523437E+02 -0.16103575703E+03  0.16359697594E+03  0.47000000000E+01 0. -1.
        -13    1    4    4    0    0  0.97250294226E+02  0.11325030122E+03 -0.42947027356E+03  0.45467347220E+03  0.00000000000E+00 0.  1.
         14    1    4    4    0    0  0.35773877234E+02  0.24797485266E+02 -0.41773511710E+02  0.60330024436E+02  0.00000000000E+00 0. -1.
         -5    1    5    5    0  502 -0.68524359047E+02 -0.99972007307E+02  0.16159376841E+03  0.20205104804E+03  0.47000000000E+01 0.  1.
         13    1    6    6    0    0  0.41159873246E+01  0.18032926646E+02 -0.67781159734E+01  0.19699508908E+02  0.00000000000E+00 0. -1.
        -14    1    6    6    0    0 -0.84543813836E+02 -0.32536182384E+02  0.44618298517E+02  0.10098045447E+03  0.00000000000E+00 0.  1.
</event>
<event>
12    1  0.8052519E-002  0.2542977E+03  0.7818608E-02  0.1110679E+00
         21   -1    0    0  503  502  0.00000000000E+00  0.00000000000E+00  0.52790521328E+03  0.52790521328E+03  0.00000000000E+00 0. -1.
         21   -1    0    0  501  503 -0.00000000000E+00 -0.00000000000E+00 -0.14286689308E+03  0.14286689308E+03  0.00000000000E+00 0. -1.
          6    2    1    2  501    0  0.17979828899E+03  0.49846268810E+02  0.31986362951E+03  0.40863195004E+03  0.17278672943E+03 0.  0.
         24    2    3    3    0    0  0.10665676868E+03  0.42386604718E+02  0.30199899311E+03  0.33282585651E+03  0.79983550538E+02 0.  0.
         -6    2    1    2    0  502 -0.17979828899E+03 -0.49846268810E+02  0.65174690688E+02  0.26214015633E+03  0.17221395419E+03 0.  0.
        -24    2    5    5    0    0 -0.77999841757E+02 -0.70356894048E+02  0.84111212010E+02  0.15647894563E+03  0.79855473110E+02 0.  0.
          5    1    3    3  501    0  0.73141520313E+02  0.74596640913E+01  0.17864636403E+02  0.75806093528E+02  0.47000000000E+01 0. -1.
        -11    1    4    4    0    0  0.17052576521E+02  0.41692054258E+01  0.15799808256E+03  0.15897033286E+03  0.00000000000E+00 0.  1.
         12    1    4    4    0    0  0.89604192159E+02  0.38217399293E+02  0.14400091055E+03  0.17385552364E+03  0.00000000000E+00 0. -1.
         -5    1    5    5    0  502 -0.10179844724E+03  0.20510625238E+02 -0.18936521322E+02  0.10566121070E+03  0.47000000000E+01 0.  1.
         11    1    6    6    0    0 -0.71693021909E+02 -0.11925003894E+02  0.39695433513E+02  0.82811971056E+02  0.00000000000E+00 0. -1.
        -12    1    6    6    0    0 -0.63068198481E+01 -0.58431890154E+02  0.44415778497E+02  0.73666974575E+02  0.00000000000E+00 0.  1.
</event>
<event>
12    1  0.8052519E-002  0.2323652E+03  0.7818608E-02  0.1125221E+00
         21   -1    0    0  503  502  0.00000000000E+00  0.00000000000E+00  0.10859635456E+03  0.10859635456E+03  0.00000000000E+00 0. -1.
         21   -1    0    0  501  503 -0.00000000000E+00 -0.00000000000E+00 -0.49685277447E+03  0.49685277447E+03  0.00000000000E+00 0. -1.
          6    2    1    2  501    0  0.14045515464E+03  0.65302826157E+02 -0.17307121207E+03  0.28973648628E+03  0.17320934578E+03 0.  0.
         24    2    3    3    0    0  0.12667413931E+03  0.88788741748E+01 -0.54126927116E+02  0.15728494169E+03  0.75390030298E+02 0.  0.
         -6    2    1    2    0  502 -0.14045515464E+03 -0.65302826157E+02 -0.21518520785E+03  0.31571264276E+03  0.17139921105E+03 0.  0.
        -24    2    5    5    0    0 -0.15708261830E+03 -0.41632360757E+02 -0.12418375348E+03  0.22010867747E+03  0.81351231321E+02 0.  0.
          5    1    3    3  501    0  0.13781015339E+02  0.56423951982E+02 -0.11894428495E+03  0.13245154459E+03  0.47000000000E+01 0. -1.
        -13    1    4    4    0    0 -0.71903789102E+01 -0.18361219515E+01 -0.16074999902E+02  0.17705324469E+02  0.00000000000E+00 0.  1.
         14    1    4    4    0    0  0.13386451822E+03  0.10714996126E+02 -0.38051927214E+02  0.13957961722E+03  0.00000000000E+00 0. -1.
         -5    1    5    5    0  502  0.16627463658E+02 -0.23670465400E+02 -0.91001454371E+02  0.95603965281E+02  0.47000000000E+01 0.  1.
         11    1    6    6    0    0 -0.30041454023E+02  0.17153049867E+02 -0.52411323345E+02  0.62798589907E+02  0.00000000000E+00 0. -1.
        -12    1    6    6    0    0 -0.12704116428E+03 -0.58785410624E+02 -0.71772430130E+02  0.15731008757E+03  0.00000000000E+00 0.  1.
</event>
<event>
12    1  0.8052519E-002  0.2405750E+03  0.7818608E-02  0.1120296E+00
         21   -1    0    0  501  502  0.00000000000E+00  0.00000000000E+00  0.85238187311E+03  0.85238187311E+03  0.00000000000E+00 0.  1.
         21   -1    0    0  502  503 -0.00000000000E+00 -0.00000000000E+00 -0.11637109170E+03  0.11637109170E+03  0.00000000000E+00 0. -1.
         -6    2    1    2    0  503 -0.16100927551E+03  0.15656190339E+02  0.48340125520E+02  0.24021520989E+03  0.17087269012E+03 0.  0.
        -24    2    3    3    0    0 -0.67310932337E+02  0.11504294177E+02 -0.40044455852E+02  0.11125575122E+03  0.78173994007E+02 0.  0.
          6    2    1    2  501    0  0.16100927551E+03 -0.15656190339E+02  0.68767065589E+03  0.72853775492E+03  0.17806523040E+03 0.  0.
         24    2    5    5    0    0  0.14731055766E+03 -0.58223472198E+02  0.41374796111E+03  0.45094928061E+03  0.84127910034E+02 0.  0.
          5    1    5    5  501    0  0.13698717858E+02  0.42567281860E+02  0.27392269478E+03  0.27758847431E+03  0.47000000000E+01 0. -1.
        -13    1    6    6    0    0  0.15386206039E+03 -0.48541177730E+02  0.40611173660E+03  0.43698572308E+03  0.00000000000E+00 0.  1.
         14    1    6    6    0    0 -0.65515027366E+01 -0.96822944685E+01  0.76362245060E+01  0.13963557533E+02  0.00000000000E+00 0. -1.
         -5    1    3    3    0  503 -0.93698343178E+02  0.41518961619E+01  0.88384581372E+02  0.12895945867E+03  0.47000000000E+01 0.  1.
         13    1    4    4    0    0 -0.26875948644E+02 -0.26148540319E+02 -0.41569940119E+02  0.55983235864E+02  0.00000000000E+00 0. -1.
        -14    1    4    4    0    0 -0.40434983693E+02  0.37652834495E+02  0.15254842670E+01  0.55272515359E+02  0.00000000000E+00 0.  1.
</event>
<event>
12    1  0.8052519E-002  0.2154936E+03  0.7818608E-02  0.1137621E+00
         21   -1    0    0  503  502  0.00000000000E+00  0.00000000000E+00  0.36168016899E+03  0.36168016899E+03  0.00000000000E+00 0.  1.
         21   -1    0    0  501  503 -0.00000000000E+00 -0.00000000000E+00 -0.51187325625E+03  0.51187325625E+03  0.00000000000E+00 0.  1.
          6    2    1    2  501    0 -0.11885359988E+03  0.52365880934E+02 -0.45372905003E+03  0.50230226049E+03  0.17195681540E+03 0.  0.
         24    2    3    3    0    0 -0.13831323895E+03  0.16181201965E+01 -0.31400136389E+03  0.35230249700E+03  0.79918849384E+02 0.  0.
         -6    2    1    2    0  502  0.11885359988E+03 -0.52365880934E+02  0.30353596277E+03  0.37125116475E+03  0.16977921822E+03 0.  0.
        -24    2    5    5    0    0  0.80670151684E+02 -0.89994554884E+02  0.15507163188E+03  0.21333460334E+03  0.82811525080E+02 0.  0.
          5    1    3    3  501    0  0.19459639071E+02  0.50747760738E+02 -0.13972768614E+03  0.14999976349E+03  0.47000000000E+01 0. -1.
        -13    1    4    4    0    0 -0.13973556396E+02  0.25160260892E+02 -0.96122896123E+02  0.10033897630E+03  0.00000000000E+00 0.  1.
         14    1    4    4    0    0 -0.12433968255E+03 -0.23542140696E+02 -0.21787846776E+03  0.25196352070E+03  0.00000000000E+00 0. -1.
         -5    1    5    5    0  502  0.38183448194E+02  0.37628673950E+02  0.14846433090E+03  0.15791656141E+03  0.47000000000E+01 0.  1.
         13    1    6    6    0    0  0.44835465959E+02 -0.65976330981E+02  0.37588547952E+02  0.88181597823E+02  0.00000000000E+00 0. -1.
        -14    1    6    6    0    0  0.35834685724E+02 -0.24018223903E+02  0.11748308393E+03  0.12515300551E+03  0.00000000000E+00 0.  1.
</event>
<event>
12    1  0.8052519E-002  0.2004185E+03  0.7818608E-02  0.1150899E+00
         21   -1    0    0  503  502  0.00000000000E+00  0.00000000000E+00  0.32435544529E+02  0.32435544529E+02  0.00000000000E+00 0. -1.
         21   -1    0    0  501  503 -0.00000000000E+00 -0.00000000000E+00 -0.12099612365E+04  0.12099612365E+04  0.00000000000E+00 0. -1.
          6    2    1    2  501    0 -0.83876813139E+02 -0.27521684564E+02 -0.50969078471E+03  0.54513712583E+03  0.17203786513E+03 0.  0.
         24    2    3    3    0    0  0.43334096455E+01 -0.44675587307E+02 -0.16257601536E+03  0.18654815098E+03  0.79715527499E+02 0.  0.
         -6    2    1    2    0  502  0.83876813139E+02  0.27521684564E+02 -0.66783490724E+03  0.69725965517E+03  0.17992998778E+03 0.  0.
        -24    2    5    5    0    0  0.21567837696E+02 -0.42576051034E+02 -0.43798694864E+03  0.44896894848E+03  0.86386675932E+02 0.  0.
          5    1    3    3  501    0 -0.88210222785E+02  0.17153902743E+02 -0.34711476935E+03  0.35858897485E+03  0.47000000000E+01 0. -1.
        -13    1    4    4    0    0 -0.44326640514E+01 -0.43961176989E+02 -0.16961979592E+03  0.17528008661E+03  0.00000000000E+00 0.  1.
         14    1    4    4    0    0  0.87660736969E+01 -0.71441031764E+00  0.70437805613E+01  0.11268064375E+02  0.00000000000E+00 0. -1.
         -5    1    5    5    0  502  0.62308975443E+02  0.70097735598E+02 -0.22984795859E+03  0.24829070669E+03  0.47000000000E+01 0.  1.
         13    1    6    6    0    0 -0.98884739402E+00  0.48345454552E+01 -0.31751509889E+03  0.31755344223E+03  0.00000000000E+00 0. -1.
        -14    1    6    6    0    0  0.22556685090E+02 -0.47410596490E+02 -0.12047184976E+03  0.13141550626E+03  0.00000000000E+00 0.  1.
</event>
<event>
12    1  0.8052519E-002  0.1835219E+03  0.7818608E-02  0.1165141E+00
         21   -1    0    0  503  502  0.00000000000E+00  0.00000000000E+00  0.21718086713E+03  0.21718086713E+03  0.00000000000E+00 0. -1.
         21   -1    0    0  501  503 -0.00000000000E+00 -0.00000000000E+00 -0.21003936120E+03  0.21003936120E+03  0.00000000000E+00 0. -1.
          6    2    1    2  501    0  0.24729026850E+02 -0.53090189219E+02 -0.10812126707E+03  0.21300351186E+03  0.17392583106E+03 0.  0.
         24    2    3    3    0    0  0.46036510630E+02  0.29978719083E+02 -0.61826849702E+02  0.11543448260E+03  0.80526247397E+02 0.  0.
         -6    2    1    2    0  502 -0.24729026850E+02  0.53090189219E+02  0.11526277299E+03  0.21421671648E+03  0.17080164466E+03 0.  0.
        -24    2    5    5    0    0 -0.62164714727E+02  0.11187012844E+02  0.16357234638E+02  0.10036724378E+03  0.76265480296E+02 0.  0.
          5    1    3    3  501    0 -0.21307483780E+02 -0.83068908302E+02 -0.46294417364E+02  0.97569029259E+02  0.47000000000E+01 0. -1.
        -11    1    4    4    0    0  0.34789099993E+02  0.36429164661E+02  0.18940147097E+01  0.50407864544E+02  0.00000000000E+00 0.  1.
         12    1    4    4    0    0  0.11247410637E+02 -0.64504455777E+01 -0.63720864411E+02  0.65026618054E+02  0.00000000000E+00 0. -1.
         -5    1    5    5    0  502  0.37435687877E+02  0.41903176374E+02  0.98905538353E+02  0.11384947270E+03  0.47000000000E+01 0.  1.
         13    1    6    6    0    0 -0.27197541296E+02  0.30477131355E+02  0.37263060866E+02  0.55291025432E+02  0.00000000000E+00 0. -1.
        -14    1    6    6    0    0 -0.34967173430E+02 -0.19290118511E+02 -0.20905826229E+02  0.45076218344E+02  0.00000000000E+00 0.  1.
</event>
<event>
12    1  0.8052519E-002  0.1793857E+03  0.7818608E-02  0.1169355E+00
         21   -1    0    0  501  502  0.00000000000E+00  0.00000000000E+00  0.59089843074E+03  0.59089843074E+03  0.00000000000E+00 0.  1.
         21   -1    0    0  502  503 -0.00000000000E+00 -0.00000000000E+00 -0.96906220114E+02  0.96906220114E+02  0.00000000000E+00 0.  1.
         -6    2    1    2    0  503  0.13867423532E+02  0.48708674913E+02  0.17757236886E+02  0.18026247931E+03  0.17208835387E+03 0.  0.
        -24    2    3    3    0    0 -0.57553741374E+02  0.11003349285E+02  0.96413425078E+01  0.98956685423E+02  0.79157837659E+02 0.  0.
          6    2    1    2  501    0 -0.13867423532E+02 -0.48708674913E+02  0.47623497374E+03  0.50754217154E+03  0.16803114366E+03 0.  0.
         24    2    5    5    0    0  0.47458342060E+02 -0.62482475712E+02  0.31895463598E+03  0.33810261962E+03  0.80155895443E+02 0.  0.
          5    1    5    5  501    0 -0.61325765592E+02  0.13773800800E+02  0.15728033775E+03  0.16943955193E+03  0.47000000000E+01 0. -1.
        -13    1    6    6    0    0  0.21990954070E+02 -0.77345469463E+02  0.20027744553E+03  0.21581700326E+03  0.00000000000E+00 0.  1.
         14    1    6    6    0    0  0.25467387990E+02  0.14862993751E+02  0.11867719045E+03  0.12228561636E+03  0.00000000000E+00 0. -1.
         -5    1    3    3    0  503  0.71421164906E+02  0.37705325628E+02  0.81158943778E+01  0.81305793882E+02  0.47000000000E+01 0.  1.
         11    1    4    4    0    0 -0.63091614041E+02  0.33793840025E+02  0.18435758956E+02  0.73908406790E+02  0.00000000000E+00 0. -1.
        -12    1    4    4    0    0  0.55378726667E+01 -0.22790490740E+02 -0.87944164479E+01  0.25048278633E+02  0.00000000000E+00 0.  1.
</event>
<event>
12    1  0.8052519E-002  0.2153163E+03  0.7818608E-02  0.1137483E+00
         21   -1    0    0  501  502  0.00000000000E+00  0.00000000000E+00  0.14695441967E+03  0.14695441967E+03  0.00000000000E+00 0. -1.
         21   -1    0    0  502  503 -0.00000000000E+00 -0.00000000000E+00 -0.87551662638E+03  0.87551662638E+03  0.00000000000E+00 0.  1.
         -6    2    1    2    0  503  0.72441285224E+02  0.10690127841E+03 -0.77342293591E+03  0.80283507924E+03  0.17229481572E+03 0.  0.
        -24    2    3    3    0    0  0.56330726868E+02  0.13705289768E+03 -0.50466020741E+03  0.53186614288E+03  0.79012792963E+02 0.  0.
          6    2    1    2  501    0 -0.72441285224E+02 -0.10690127841E+03  0.44860729211E+02  0.21963596681E+03  0.17190651460E+03 0.  0.
         24    2    5    5    0    0 -0.13558113951E+02 -0.95451309073E+02 -0.24707398534E+02  0.12765692542E+03  0.79944106781E+02 0.  0.
          5    1    5    5  501    0 -0.58883171273E+02 -0.11449969340E+02  0.69568127745E+02  0.91979041390E+02  0.47000000000E+01 0. -1.
        -11    1    6    6    0    0  0.22880500569E+02 -0.92242703150E+01  0.11588805685E+02  0.27256281594E+02  0.00000000000E+00 0.  1.
         12    1    6    6    0    0 -0.36438614519E+02 -0.86227038758E+02 -0.36296204219E+02  0.10040064383E+03  0.00000000000E+00 0. -1.
         -5    1    3    3    0  503  0.16110558356E+02 -0.30151619265E+02 -0.26876272851E+03  0.27096893635E+03  0.47000000000E+01 0.  1.
         13    1    4    4    0    0  0.52850187211E+01  0.10777156138E+03 -0.29543919579E+03  0.31452656371E+03  0.00000000000E+00 0. -1.
        -14    1    4    4    0    0  0.51045708147E+02  0.29281336296E+02 -0.20922101162E+03  0.21733957918E+03  0.00000000000E+00 0.  1.
</event>
<event>
12    1  0.8052519E-002  0.3364357E+03  0.7818608E-02  0.1068524E+00
         21   -1    0    0  503  502  0.00000000000E+00  0.00000000000E+00  0.18700643701E+03  0.18700643701E+03  0.00000000000E+00 0. -1.
         21   -1    0    0  501  503 -0.00000000000E+00 -0.00000000000E+00 -0.67143823252E+03  0.67143823252E+03  0.00000000000E+00 0. -1.
          6    2    1    2  501    0 -0.19116784661E+03  0.21397276142E+03 -0.37969489065E+03  0.50608295104E+03  0.17211117090E+03 0.  0.
         24    2    3    3    0    0 -0.12564344534E+03  0.15133253491E+03 -0.15109885451E+03  0.26012465605E+03  0.78397457683E+02 0.  0.
         -6    2    1    2    0  502  0.19116784661E+03 -0.21397276142E+03 -0.10473690486E+03  0.35236171848E+03  0.17566864606E+03 0.  0.
        -24    2    5    5    0    0  0.39829612785E+02 -0.96665834535E+02 -0.94126302037E+02  0.16053145235E+03  0.77329844426E+02 0.  0.
          5    1    3    3  501    0 -0.65524401266E+02  0.62640226506E+02 -0.22859603614E+03  0.24595829499E+03  0.47000000000E+01 0. -1.
        -13    1    4    4    0    0 -0.12605552434E+02  0.43068712088E+02 -0.71780671114E+02  0.84653875627E+02  0.00000000000E+00 0.  1.
         14    1    4    4    0    0 -0.11303789290E+03  0.10826382282E+03 -0.79318183396E+02  0.17547078042E+03  0.00000000000E+00 0. -1.
         -5    1    5    5    0  502  0.15133823382E+03 -0.11730692688E+03 -0.10610602824E+02  0.19183026613E+03  0.47000000000E+01 0.  1.
         13    1    6    6    0    0  0.18836677281E+02 -0.83113108875E+02 -0.27778072999E+02  0.89633869812E+02  0.00000000000E+00 0. -1.
        -14    1    6    6    0    0  0.20992935504E+02 -0.13552725660E+02 -0.66348229038E+02  0.70897582543E+02  0.00000000000E+00 0.  1.
</event>
<event>
12    1  0.8052519E-002  0.2017235E+03  0.7818608E-02  0.1148347E+00
         21   -1    0    0  501  502  0.00000000000E+00  0.00000000000E+00  0.13644735933E+03  0.13644735933E+03  0.00000000000E+00 0. -1.
         21   -1    0    0  502  503 -0.00000000000E+00 -0.00000000000E+00 -0.61403427743E+03  0.61403427743E+03  0.00000000000E+00 0. -1.
         -6    2    1    2    0  503  0.22065106408E+02 -0.10215213184E+03 -0.50813584059E+03  0.54671234554E+03  0.17254109456E+03 0.  0.
        -24    2    3    3    0    0  0.81434507173E+02 -0.70106495674E+02 -0.35818730392E+03  0.38221826603E+03  0.79032641998E+02 0.  0.
          6    2    1    2  501    0 -0.22065106408E+02  0.10215213184E+03  0.30548922490E+02  0.20376929122E+03  0.17224041459E+03 0.  0.
         24    2    5    5    0    0 -0.72962162466E+02  0.39675860444E+02 -0.63719621693E+01  0.11500535413E+03  0.79296774985E+02 0.  0.
          5    1    5    5  501    0  0.50897056057E+02  0.62476271398E+02  0.36920884659E+02  0.88763937087E+02  0.47000000000E+01 0. -1.
        -13    1    6    6    0    0 -0.12265018243E+01  0.99242443130E+01 -0.31762580690E+02  0.33299496452E+02  0.00000000000E+00 0.  1.
         14    1    6    6    0    0 -0.71735660641E+02  0.29751616131E+02  0.25390618520E+02  0.81705857678E+02  0.00000000000E+00 0. -1.
         -5    1    3    3    0  503 -0.59369400765E+02 -0.32045636168E+02 -0.14994853667E+03  0.16449407951E+03  0.47000000000E+01 0.  1.
         13    1    4    4    0    0  0.10637276115E+02 -0.59350506047E+02 -0.19239108308E+03  0.20161835993E+03  0.00000000000E+00 0. -1.
        -14    1    4    4    0    0  0.70797231058E+02 -0.10755989627E+02 -0.16579622084E+03  0.18059990610E+03  0.00000000000E+00 0.  1.
</event>
<event>
12    1  0.8052519E-002  0.2315976E+03  0.7818608E-02  0.1125638E+00
         21   -1    0    0  501  502  0.00000000000E+00  0.00000000000E+00  0.53006508269E+03  0.53006508269E+03  0.00000000000E+00 0.  1.
         21   -1    0    0  502  503 -0.00000000000E+00 -0.00000000000E+00 -0.40720320233E+03  0.40720320233E+03  0.00000000000E+00 0.  1.
         -6    2    1    2    0  503 -0.13793495507E+03 -0.69943673732E+02 -0.34499697065E+03  0.41552422145E+03  0.17239286391E+03 0.  0.
        -24    2    3    3    0    0 -0.11198407184E+03 -0.10778440755E+03 -0.21122472808E+03  0.27402343573E+03  0.79467268237E+02 0.  0.
          6    2    1    2  501    0  0.13793495507E+03  0.69943673732E+02  0.46785885102E+03  0.52174406356E+03  0.17148409273E+03 0.  0.
         24    2    5    5    0    0  0.11067113688E+03  0.46531072175E+02  0.17593269753E+03  0.22757670510E+03  0.80159849226E+02 0.  0.
          5    1    5    5  501    0  0.27263818191E+02  0.23412601557E+02  0.29192615349E+03  0.29416735846E+03  0.47000000000E+01 0. -1.
        -11    1    6    6    0    0 -0.11493262202E+02  0.71837936254E+01  0.65284942435E+01  0.15044042143E+02  0.00000000000E+00 0.  1.
         12    1    6    6    0    0  0.12216439909E+03  0.39347278549E+02  0.16940420329E+03  0.21253266296E+03  0.00000000000E+00 0. -1.
         -5    1    3    3    0  503 -0.25950883235E+02  0.37840733818E+02 -0.13377224258E+03  0.14150078572E+03  0.47000000000E+01 0.  1.
         13    1    4    4    0    0  0.86155247031E+01  0.44723515084E+01 -0.13965665244E+02  0.17007909914E+02  0.00000000000E+00 0. -1.
        -14    1    4    4    0    0 -0.12059959654E+03 -0.11225675906E+03 -0.19725906283E+03  0.25701552582E+03  0.00000000000E+00 0.  1.
</event>
<event>
12    1  0.8052519E-002  0.2129945E+03  0.7818608E-02  0.1139305E+00
         21   -1    0    0  501  502  0.00000000000E+00  0.00000000000E+00  0.18877325232E+03  0.18877325232E+03  0.00000000000E+00 0. -1.
         21   -1    0    0  502  503 -0.00000000000E+00 -0.00000000000E+00 -0.24384682993E+03  0.24384682993E+03  0.00000000000E+00 0.  1.
         -6    2    1    2    0  503  0.34805873015E+02 -0.12031055489E+03  0.31648321637E+00  0.21254122399E+03  0.17171951933E+03 0.  0.
        -24    2    3    3    0    0  0.73988977492E+02 -0.28321885600E+02  0.19569834432E+01  0.11243122352E+03  0.79752443495E+02 0.  0.
          6    2    1    2  501    0 -0.34805873015E+02  0.12031055489E+03 -0.55390060828E+02  0.22007885827E+03  0.17228048817E+03 0.  0.
         24    2    5    5    0    0  0.12638598341E+01  0.12809894679E+03  0.17011111712E+01  0.15193799977E+03  0.81678176305E+02 0.  0.
          5    1    5    5  501    0 -0.36069732849E+02 -0.77883919072E+01 -0.57091171999E+02  0.68140858495E+02  0.47000000000E+01 0. -1.
        -11    1    6    6    0    0  0.20699564129E+02  0.10043184341E+03 -0.28684484056E+02  0.10647923155E+03  0.00000000000E+00 0.  1.
         12    1    6    6    0    0 -0.19435704295E+02  0.27667103383E+02  0.30385595227E+02  0.45458768223E+02  0.00000000000E+00 0. -1.
         -5    1    3    3    0  503 -0.39183104477E+02 -0.91988669286E+02 -0.16405002269E+01  0.10011000047E+03  0.47000000000E+01 0.  1.
         11    1    4    4    0    0  0.12976111729E+02  0.89047320838E+01  0.31406394270E+02  0.35128839010E+02  0.00000000000E+00 0. -1.
        -12    1    4    4    0    0  0.61012865763E+02 -0.37226617684E+02 -0.29449410827E+02  0.77302384509E+02  0.00000000000E+00 0.  1.
</event>
<event>
12    1  0.8052519E-002  0.1869200E+03  0.7818608E-02  0.1161528E+00
         21   -1    0    0  503  502  0.00000000000E+00  0.00000000000E+00  0.24539167786E+03  0.24539167786E+03  0.00000000000E+00 0. -1.
         21   -1    0    0  501  503 -0.00000000000E+00 -0.00000000000E+00 -0.15173218143E+03  0.15173218143E+03  0.00000000000E+00 0. -1.
          6    2    1    2  501    0 -0.50506338658E+02 -0.52495006651E+02 -0.47975015638E+01  0.18585895773E+03  0.17092080090E+03 0.  0.
         24    2    3    3    0    0 -0.80143404488E+02 -0.20397029722E+02  0.37991543056E+02  0.12452684433E+03  0.84997491208E+02 0.  0.
         -6    2    1    2    0  502  0.50506338658E+02  0.52495006651E+02  0.98456997987E+02  0.21126490156E+03  0.17214082088E+03 0.  0.
        -24    2    5    5    0    0 -0.27191808718E+02  0.22136960862E+02 -0.76407246123E+01  0.76218873149E+02  0.67242073540E+02 0.  0.
          5    1    3    3  501    0  0.29637065830E+02 -0.32097976929E+02 -0.42789044620E+02  0.61332113395E+02  0.47000000000E+01 0. -1.
        -13    1    4    4    0    0 -0.46643377964E+01  0.11745575449E+02 -0.20283014654E+02  0.23898018185E+02  0.00000000000E+00 0.  1.
         14    1    4    4    0    0 -0.75479066692E+02 -0.32142605170E+02  0.58274557710E+02  0.10062882615E+03  0.00000000000E+00 0. -1.
         -5    1    5    5    0  502  0.77698147376E+02  0.30358045789E+02  0.10609772260E+03  0.13504602841E+03  0.47000000000E+01 0.  1.
         13    1    6    6    0    0  0.35698051964E+01  0.29663124796E+02 -0.26006025188E+02  0.39610072303E+02  0.00000000000E+00 0. -1.
        -14    1    6    6    0    0 -0.30761613914E+02 -0.75261639334E+01  0.18365300576E+02  0.36608800846E+02  0.00000000000E+00 0.  1.
</event>
<event>
12    1  0.8052519E-002  0.1988994E+03  0.7818608E-02  0.1151064E+00
         21   -1    0    0  503  502  0.00000000000E+00  0.00000000000E+00  0.16571841835E+03  0.16571841835E+03  0.00000000000E+00 0.  1.
         21   -1    0    0  501  503 -0.00000000000E+00 -0.00000000000E+00 -0.60040558245E+03  0.60040558245E+03  0.00000000000E+00 0.  1.
          6    2    1    2  501    0 -0.37587398149E+02  0.89745544318E+02 -0.51595606589E+03  0.55296621109E+03  0.17347591606E+03 0.  0.
         24    2    3    3    0    0  0.26340773892E+02  0.44679880824E+02 -0.14340032518E+03  0.17225950621E+03  0.80122132382E+02 0.  0.
         -6    2    1    2    0  502  0.37587398149E+02 -0.89745544318E+02  0.81268901795E+02  0.21315778971E+03  0.17136082893E+03 0.  0.
        -24    2    5    5    0    0  0.38884548973E+00  0.12814829769E+02  0.56161746247E+01  0.80312813214E+02  0.79083724534E+02 0.  0.
          5    1    3    3  501    0 -0.63928172041E+02  0.45065663494E+02 -0.37255574071E+03  0.38070670488E+03  0.47000000000E+01 0. -1.
        -13    1    4    4    0    0 -0.41168831043E+01 -0.17562061095E+02 -0.65779862690E+02  0.68208247682E+02  0.00000000000E+00 0.  1.
         14    1    4    4    0    0  0.30457656997E+02  0.62241941919E+02 -0.77620462491E+02  0.10405125853E+03  0.00000000000E+00 0. -1.
         -5    1    5    5    0  502  0.37198552659E+02 -0.10256037409E+03  0.75652727170E+02  0.13284497650E+03  0.47000000000E+01 0.  1.
         13    1    6    6    0    0  0.35610240277E+02  0.24171467651E+02  0.46959021211E+01  0.43294347873E+02  0.00000000000E+00 0. -1.
        -14    1    6    6    0    0 -0.35221394787E+02 -0.11356637882E+02  0.92027250356E+00  0.37018465342E+02  0.00000000000E+00 0.  1.
</event>
<event>
12    1  0.8052519E-002  0.1820467E+03  0.7818608E-02  0.1166007E+00
         21   -1    0    0  501  502  0.00000000000E+00  0.00000000000E+00  0.33348438680E+03  0.33348438680E+03  0.00000000000E+00 0.  1.
         21   -1    0    0  502  503 -0.00000000000E+00 -0.00000000000E+00 -0.21332285304E+03  0.21332285304E+03  0.00000000000E+00 0.  1.
         -6    2    1    2    0  503 -0.40328002766E+02  0.41080808735E+02 -0.14013076172E+03  0.22917054301E+03  0.17195501374E+03 0.  0.
        -24    2    3    3    0    0 -0.22333659432E+02 -0.14461516369E+02 -0.83133642734E+01  0.84925395642E+02  0.80220215657E+02 0.  0.
          6    2    1    2  501    0  0.40328002766E+02 -0.41080808735E+02  0.26029229548E+03  0.31763669683E+03  0.17270498381E+03 0.  0.
         24    2    5    5    0    0 -0.17396364201E+02 -0.78263466315E+02  0.16860113559E+03  0.20298936206E+03  0.79690241197E+02 0.  0.
          5    1    5    5  501    0  0.57724366967E+02  0.37182657580E+02  0.91691159889E+02  0.11464733476E+03  0.47000000000E+01 0. -1.
        -11    1    6    6    0    0 -0.58290814653E+01 -0.60657535603E+02  0.17123955875E+03  0.18175890981E+03  0.00000000000E+00 0.  1.
         12    1    6    6    0    0 -0.11567282736E+02 -0.17605930712E+02 -0.26384231564E+01  0.21230452253E+02  0.00000000000E+00 0. -1.
         -5    1    3    3    0  503 -0.17994343334E+02  0.55542325104E+02 -0.13181739745E+03  0.14424514737E+03  0.47000000000E+01 0.  1.
         13    1    4    4    0    0  0.28743210304E+02  0.13702653118E+01  0.63687532913E+01  0.29472203584E+02  0.00000000000E+00 0. -1.
        -14    1    4    4    0    0 -0.51076869736E+02 -0.15831781681E+02 -0.14682117565E+02  0.55453192058E+02  0.00000000000E+00 0.  1.
</event>
<event>
12    1  0.8052519E-002  0.1963535E+03  0.7818608E-02  0.1153769E+00
         21   -1    0    0  501  502  0.00000000000E+00  0.00000000000E+00  0.18708517302E+03  0.18708517302E+03  0.00000000000E+00 0. -1.
         21   -1    0    0  502  503 -0.00000000000E+00 -0.00000000000E+00 -0.86405456884E+03  0.86405456884E+03  0.00000000000E+00 0.  1.
         -6    2    1    2    0  503 -0.20320805532E+02  0.84167547004E+02 -0.79948731415E+03  0.82324640838E+03  0.17623158718E+03 0.  0.
        -24    2    3    3    0    0 -0.68015525955E+02  0.43286886729E+02 -0.66758436301E+03  0.67707358854E+03  0.79119505995E+02 0.  0.
          6    2    1    2  501    0  0.20320805532E+02 -0.84167547004E+02  0.12251791834E+03  0.22789333348E+03  0.17154480471E+03 0.  0.
         24    2    5    5    0    0  0.72064378150E+02 -0.39569369921E+02  0.41879612856E+02  0.12210571125E+03  0.79980579594E+02 0.  0.
          5    1    5    5  501    0 -0.51743572618E+02 -0.44598177083E+02  0.80638305479E+02  0.10578762223E+03  0.47000000000E+01 0. -1.
        -13    1    6    6    0    0 -0.12035823004E+02 -0.28382864589E+01  0.26244379761E+02  0.29011797159E+02  0.00000000000E+00 0.  1.
         14    1    6    6    0    0  0.84100201153E+02 -0.36731083462E+02  0.15635233095E+02  0.93093914088E+02  0.00000000000E+00 0. -1.
         -5    1    3    3    0  503  0.47694720423E+02  0.40880660275E+02 -0.13190295114E+03  0.14617281984E+03  0.47000000000E+01 0.  1.
         11    1    4    4    0    0 -0.58030066823E+02  0.25152224553E+02 -0.21738976885E+03  0.22640325673E+03  0.00000000000E+00 0. -1.
        -12    1    4    4    0    0 -0.99854591317E+01  0.18134662176E+02 -0.45019459416E+03  0.45067033181E+03  0.00000000000E+00 0.  1.
</event>
<event>
12    1  0.8052519E-002  0.2093785E+03  0.7818608E-02  0.1142610E+00
         21   -1    0    0  501  502  0.00000000000E+00  0.00000000000E+00  0.25292349184E+03  0.25292349184E+03  0.00000000000E+00 0. -1.
         21   -1    0    0  502  503 -0.00000000000E+00 -0.00000000000E+00 -0.20421448357E+03  0.20421448357E+03  0.00000000000E+00 0. -1.
         -6    2    1    2    0  503  0.11326305098E+03  0.13143581668E+02 -0.67873876684E+02  0.21749043306E+03  0.17231933403E+03 0.  0.
        -24    2    3    3    0    0  0.55902013848E+02  0.22961532049E+02  0.29853303597E+02  0.10365119336E+03  0.78740606062E+02 0.  0.
          6    2    1    2  501    0 -0.11326305098E+03 -0.13143581668E+02  0.11658288496E+03  0.23964754235E+03  0.17560781028E+03 0.  0.
         24    2    5    5    0    0  0.91809925061E+01  0.18823180584E+02  0.52104810052E+02  0.97542194746E+02  0.79755662962E+02 0.  0.
          5    1    5    5  501    0 -0.12244404349E+03 -0.31966762252E+02  0.64478074907E+02  0.14210534760E+03  0.47000000000E+01 0. -1.
        -13    1    6    6    0    0 -0.94404189730E+01 -0.28181827391E+02  0.88656263566E+01  0.31015096907E+02  0.00000000000E+00 0.  1.
         14    1    6    6    0    0  0.18621411479E+02  0.47005007975E+02  0.43239183695E+02  0.66527097838E+02  0.00000000000E+00 0. -1.
         -5    1    3    3    0  503  0.57361037133E+02 -0.98179503806E+01 -0.97727180281E+02  0.11383923970E+03  0.47000000000E+01 0.  1.
         13    1    4    4    0    0 -0.13349762823E+02  0.88177532734E+01 -0.13328005013E+02  0.20823175978E+02  0.00000000000E+00 0. -1.
        -14    1    4    4    0    0  0.69251776670E+02  0.14143778776E+02  0.43181308609E+02  0.82828017381E+02  0.00000000000E+00 0.  1.
</event>
<event>
12    1  0.8052519E-002  0.1820857E+03  0.7818608E-02  0.1166524E+00
         21   -1    0    0  501  502  0.00000000000E+00  0.00000000000E+00  0.15841116378E+03  0.15841116378E+03  0.00000000000E+00 0. -1.
         21   -1    0    0  502  503 -0.00000000000E+00 -0.00000000000E+00 -0.49383227417E+03  0.49383227417E+03  0.00000000000E+00 0. -1.
         -6    2    1    2    0  503 -0.36456333995E+02  0.39762224864E+02 -0.41616631228E+03  0.45305764229E+03  0.17075341564E+03 0.  0.
        -24    2    3    3    0    0 -0.31164448409E+02 -0.30890474137E+02 -0.14343472333E+03  0.17123426225E+03  0.82596661399E+02 0.  0.
          6    2    1    2  501    0  0.36456333995E+02 -0.39762224864E+02  0.80745201887E+02  0.19918579566E+03  0.17391116914E+03 0.  0.
         24    2    5    5    0    0  0.30945876979E+02 -0.79807765971E+02  0.75808916091E+01  0.11546532745E+03  0.77122273785E+02 0.  0.
          5    1    5    5  501    0  0.55104570155E+01  0.40045541107E+02  0.73164310278E+02  0.83720468211E+02  0.47000000000E+01 0. -1.
        -11    1    6    6    0    0 -0.70774563591E+00  0.21165870988E+01 -0.22514791326E+02  0.22625133663E+02  0.00000000000E+00 0.  1.
         12    1    6    6    0    0  0.31653622615E+02 -0.81924353070E+02  0.30095682935E+02  0.92840193784E+02  0.00000000000E+00 0. -1.
         -5    1    3    3    0  503 -0.52918855859E+01  0.70652699001E+02 -0.27273158895E+03  0.28182338005E+03  0.47000000000E+01 0.  1.
         13    1    4    4    0    0  0.22067998409E+02 -0.15847756908E+02 -0.14194789487E+02  0.30653547941E+02  0.00000000000E+00 0. -1.
        -14    1    4    4    0    0 -0.53232446818E+02 -0.15042717229E+02 -0.12923993384E+03  0.14058071430E+03  0.00000000000E+00 0.  1.
</event>
<event>
12    1  0.8052519E-002  0.2254173E+03  0.7818608E-02  0.1129992E+00
         21   -1    0    0  503  502  0.00000000000E+00  0.00000000000E+00  0.28287993356E+03  0.28287993356E+03  0.00000000000E+00 0.  1.
         21   -1    0    0  501  503 -0.00000000000E+00 -0.00000000000E+00 -0.28065936361E+03  0.28065936361E+03  0.00000000000E+00 0. -1.
          6    2    1    2  501    0 -0.64607706523E+02  0.13025338910E+03 -0.16826028707E+03  0.28091468910E+03  0.17164334310E+03 0.  0.
         24    2    3    3    0    0  0.10417302826E+01  0.27909286755E+02 -0.12793559712E+03  0.15272602166E+03  0.78598391801E+02 0.  0.
         -6    2    1    2    0  502  0.64607706523E+02 -0.13025338910E+03  0.17048085702E+03  0.28262460807E+03  0.17225807778E+03 0.  0.
        -24    2    5    5    0    0  0.39411673128E+02 -0.14195188623E+03  0.18618356178E+03  0.25036999800E+03  0.79480810497E+02 0.  0.
          5    1    3    3  501    0 -0.65649436805E+02  0.10234410235E+03 -0.40324689948E+02  0.12818866743E+03  0.47000000000E+01 0. -1.
        -11    1    4    4    0    0 -0.31575203936E+02 -0.10252431219E+02 -0.52278656616E+02  0.61928699220E+02  0.00000000000E+00 0.  1.
         12    1    4    4    0    0  0.32616934219E+02  0.38161717974E+02 -0.75656940504E+02  0.90797322444E+02  0.00000000000E+00 0. -1.
         -5    1    5    5    0  502  0.25196033394E+02  0.11698497131E+02 -0.15702704759E+02  0.32254610069E+02  0.47000000000E+01 0.  1.
         13    1    6    6    0    0  0.29800410429E+02 -0.38893633886E+02  0.16673070101E+02  0.51756839985E+02  0.00000000000E+00 0. -1.
        -14    1    6    6    0    0  0.96112626989E+01 -0.10305825235E+03  0.16951049168E+03  0.19861315801E+03  0.00000000000E+00 0.  1.
</event>
<event>
12    1  0.8052519E-002  0.1825672E+03  0.7818608E-02  0.1166170E+00
         21   -1    0    0  501  502  0.00000000000E+00  0.00000000000E+00  0.41134911581E+03  0.41134911581E+03  0.00000000000E+00 0.  1.
         21   -1    0    0  502  503 -0.00000000000E+00 -0.00000000000E+00 -0.80428076216E+02  0.80428076216E+02  0.00000000000E+00 0.  1.
         -6    2    1    2    0  503  0.48044366940E+02 -0.15948120417E+02  0.19338853863E+03  0.26595098427E+03  0.17540865265E+03 0.  0.
        -24    2    3    3    0    0  0.18839138414E+02  0.57131077460E+02  0.86030965480E+02  0.13275468910E+03  0.81262582468E+02 0.  0.
          6    2    1    2  501    0 -0.48044366940E+02  0.15948120417E+02  0.13753250097E+03  0.22582620775E+03  0.17181293184E+03 0.  0.
         24    2    5    5    0    0 -0.81852031353E+02  0.47731943748E+02  0.13040847736E+03  0.17864558344E+03  0.77005064923E+02 0.  0.
          5    1    5    5  501    0  0.33807664413E+02 -0.31783823331E+02  0.71240236114E+01  0.47180624318E+02  0.47000000000E+01 0. -1.
        -13    1    6    6    0    0 -0.19324963358E+02  0.38263192041E+02  0.99323203906E+02  0.10817867123E+03  0.00000000000E+00 0.  1.
         14    1    6    6    0    0 -0.62527067995E+02  0.94687517067E+01  0.31085273452E+02  0.70466912211E+02  0.00000000000E+00 0. -1.
         -5    1    3    3    0  503  0.29205228526E+02 -0.73079197877E+02  0.10735757315E+03  0.13319629517E+03  0.47000000000E+01 0.  1.
         11    1    4    4    0    0 -0.30536489981E+02  0.85200266805E+01  0.24113063424E+02  0.39830991736E+02  0.00000000000E+00 0. -1.
        -12    1    4    4    0    0  0.49375628394E+02  0.48611050780E+02  0.61917902056E+02  0.92923697367E+02  0.00000000000E+00 0.  1.
</event>
<event>
12    1  0.8052519E-002  0.1988953E+03  0.7818608E-02  0.1150689E+00
         21   -1    0    0  503  502  0.00000000000E+00  0.00000000000E+00  0.21558276882E+02  0.21558276882E+02  0.00000000000E+00 0.  1.
         21   -1    0    0  501  503 -0.00000000000E+00 -0.00000000000E+00 -0.18582559913E+04  0.18582559913E+04  0.00000000000E+00 0.  1.
          6    2    1    2  501    0 -0.35596635779E+02  0.93236876944E+02 -0.10250567758E+04  0.10441746665E+04  0.17204390428E+03 0.  0.
         24    2    3    3    0    0 -0.33274878699E+02  0.34095164333E+02 -0.24317675709E+03  0.26004356377E+03  0.78854436056E+02 0.  0.
         -6    2    1    2    0  502  0.35596635779E+02 -0.93236876944E+02 -0.81164093860E+03  0.83563960159E+03  0.17196596999E+03 0.  0.
        -24    2    5    5    0    0 -0.24570395740E+02 -0.58854177522E+02 -0.67135904114E+03  0.67910416644E+03  0.79949910597E+02 0.  0.
          5    1    3    3  501    0 -0.23217570808E+01  0.59141712611E+02 -0.78188001869E+03  0.78413110278E+03  0.47000000000E+01 0. -1.
        -13    1    4    4    0    0  0.20305073162E+02  0.32694719395E+02 -0.97705186720E+02  0.10501211446E+03  0.00000000000E+00 0.  1.
         14    1    4    4    0    0 -0.53579951861E+02  0.14004449380E+01 -0.14547157037E+03  0.15503144930E+03  0.00000000000E+00 0. -1.
         -5    1    5    5    0  502  0.60167031519E+02 -0.34382699422E+02 -0.14028189746E+03  0.15653543515E+03  0.47000000000E+01 0.  1.
         11    1    6    6    0    0  0.29103369415E+02 -0.27367111610E+02 -0.24839435855E+03  0.25158641114E+03  0.00000000000E+00 0. -1.
        -12    1    6    6    0    0 -0.53673765155E+02 -0.31487065912E+02 -0.42296468258E+03  0.42751775530E+03  0.00000000000E+00 0.  1.
</event>
<event>
12    1  0.8052519E-002  0.1890478E+03  0.7818608E-02  0.1159353E+00
         21   -1    0    0  501  502  0.00000000000E+00  0.00000000000E+00  0.17282182692E+03  0.17282182692E+03  0.00000000000E+00 0.  1.
         21   -1    0    0  502  503 -0.00000000000E+00 -0.00000000000E+00 -0.21567612377E+03  0.21567612377E+03  0.00000000000E+00 0.  1.
         -6    2    1    2    0  503 -0.76790708661E+02  0.91599692820E+01 -0.61164258531E+02  0.19869606525E+03  0.17250606322E+03 0.  0.
        -24    2    3    3    0    0 -0.68076833379E+02  0.59253810770E+01 -0.10819425006E+03  0.15052652834E+03  0.79263324454E+02 0.  0.
          6    2    1    2  501    0  0.76790708661E+02 -0.91599692820E+01  0.18309961683E+02  0.18980188544E+03  0.17236235972E+03 0.  0.
         24    2    5    5    0    0  0.12795018491E+02  0.37751000873E+02  0.51497413602E+02  0.10366487571E+03  0.80657127910E+02 0.  0.
          5    1    5    5  501    0  0.63995690170E+02 -0.46910970155E+02 -0.33187451920E+02  0.86137009735E+02  0.47000000000E+01 0. -1.
        -11    1    6    6    0    0  0.13588643924E+02  0.60685443063E+02  0.51456842504E+02  0.80716670421E+02  0.00000000000E+00 0.  1.
         12    1    6    6    0    0 -0.79362543286E+00 -0.22934442189E+02  0.40571098451E-01  0.22948205287E+02  0.00000000000E+00 0. -1.
         -5    1    3    3    0  503 -0.87138752823E+01  0.32345882050E+01  0.47029991526E+02  0.48169536911E+02  0.47000000000E+01 0.  1.
         13    1    4    4    0    0  0.16319865631E+02 -0.91380991000E+01 -0.23254567667E+02  0.29843220114E+02  0.00000000000E+00 0. -1.
        -14    1    4    4    0    0 -0.84396699010E+02  0.15063480177E+02 -0.84939682390E+02  0.12068330822E+03  0.00000000000E+00 0.  1.
</event>
<event>
12    1  0.8052519E-002  0.1994866E+03  0.7818608E-02  0.1150239E+00
         21   -1    0    0  503  502  0.00000000000E+00  0.00000000000E+00  0.50862019554E+03  0.50862019554E+03  0.00000000000E+00 0.  1.
         21   -1    0    0  501  503 -0.00000000000E+00 -0.00000000000E+00 -0.78125971962E+02  0.78125971962E+02  0.00000000000E+00 0.  1.
          6    2    1    2  501    0 -0.10002940730E+03 -0.13947370941E+02  0.21241069732E+03  0.29139867536E+03  0.17203043971E+03 0.  0.
         24    2    3    3    0    0 -0.10562482829E+03  0.18713987638E+02  0.84017851562E+02  0.15871527051E+03  0.81392383104E+02 0.  0.
         -6    2    1    2    0  502  0.10002940730E+03  0.13947370941E+02  0.21808352625E+03  0.29534749213E+03  0.17166626112E+03 0.  0.
        -24    2    5    5    0    0  0.13653212401E+03  0.14642518028E+02  0.18068735531E+03  0.24287373529E+03  0.86511887635E+02 0.  0.
          5    1    3    3  501    0  0.55954209944E+01 -0.32661358578E+02  0.12839284576E+03  0.13268340485E+03  0.47000000000E+01 0. -1.
        -13    1    4    4    0    0 -0.39399850562E+02 -0.10481882565E+02  0.75547017435E+02  0.85846199273E+02  0.00000000000E+00 0.  1.
         14    1    4    4    0    0 -0.66224977732E+02  0.29195870203E+02  0.84708341275E+01  0.72869071239E+02  0.00000000000E+00 0. -1.
         -5    1    5    5    0  502 -0.36502716710E+02 -0.69514708749E+00  0.37396170941E+02  0.52473756848E+02  0.47000000000E+01 0.  1.
         11    1    6    6    0    0  0.47680569273E+01  0.22405727960E+02  0.55543807586E+01  0.23571214603E+02  0.00000000000E+00 0. -1.
        -12    1    6    6    0    0  0.13176406708E+03 -0.77632099317E+01  0.17513297455E+03  0.21930252068E+03  0.00000000000E+00 0.  1.
</event>
<event>
12    1  0.8052519E-002  0.1895692E+03  0.7818608E-02  0.1159195E+00
         21   -1    0    0  503  502  0.00000000000E+00  0.00000000000E+00  0.24035563199E+04  0.24035563199E+04  0.00000000000E+00 0. -1.
         21   -1    0    0  501  503 -0.00000000000E+00 -0.00000000000E+00 -0.64113973527E+02  0.64113973527E+02  0.00000000000E+00 0. -1.
          6    2    1    2  501    0 -0.13763515240E+02 -0.77233595872E+02  0.89064847589E+02  0.20944930625E+03  0.17257462771E+03 0.  0.
         24    2    3    3    0    0  0.32384401222E+02  0.44117378396E+01  0.74298766121E+02  0.11439291313E+03  0.80605328942E+02 0.  0.
         -6    2    1    2    0  502  0.13763515240E+02  0.77233595872E+02  0.22503774988E+04  0.22582209872E+04  0.17090546284E+03 0.  0.
        -24    2    5    5    0    0  0.15580589444E+02 -0.20395213196E+02  0.80097846730E+03  0.80552889022E+03  0.81557148094E+02 0.  0.
          5    1    3    3  501    0 -0.46147916462E+02 -0.81645333711E+02  0.14766081468E+02  0.95056393117E+02  0.47000000000E+01 0. -1.
        -11    1    4    4    0    0 -0.49996050884E+01 -0.17484670519E+02  0.68270416316E+02  0.70650969549E+02  0.00000000000E+00 0.  1.
         12    1    4    4    0    0  0.37384006310E+02  0.21896408359E+02  0.60283498046E+01  0.43741943580E+02  0.00000000000E+00 0. -1.
         -5    1    5    5    0  502 -0.18170742046E+01  0.97628809067E+02  0.14493990315E+04  0.14526920970E+04  0.47000000000E+01 0.  1.
         11    1    6    6    0    0  0.49282850732E+02 -0.11252427607E+02  0.46341870013E+03  0.46616768243E+03  0.00000000000E+00 0. -1.
        -12    1    6    6    0    0 -0.33702261288E+02 -0.91427855888E+01  0.33755976717E+03  0.33936120779E+03  0.00000000000E+00 0.  1.
</event>
<event>
12    1  0.8052519E-002  0.1800204E+03  0.7818608E-02  0.1168172E+00
         21   -1    0    0  501  502  0.00000000000E+00  0.00000000000E+00  0.16286570320E+02  0.16286570320E+02  0.00000000000E+00 0.  1.
         21   -1    0    0  502  503 -0.00000000000E+00 -0.00000000000E+00 -0.20107434232E+04  0.20107434232E+04  0.00000000000E+00 0.  1.
         -6    2    1    2    0  503 -0.53998722308E+02  0.15084894577E+02 -0.85248727578E+03  0.87095826496E+03  0.16938219471E+03 0.  0.
        -24    2    3    3    0    0 -0.95596472597E+01  0.71759146548E+02 -0.52215040251E+03  0.53282908541E+03  0.77621063136E+02 0.  0.
          6    2    1    2  501    0  0.53998722308E+02 -0.15084894577E+02 -0.11419695771E+04  0.11560717285E+04  0.17106697662E+03 0.  0.
         24    2    5    5    0    0 -0.13309920598E+02 -0.44062092558E+02 -0.39359434514E+03  0.40410250762E+03  0.79143579383E+02 0.  0.
          5    1    5    5  501    0  0.67308642906E+02  0.28977197981E+02 -0.74837523194E+03  0.75196922091E+03  0.47000000000E+01 0. -1.
        -13    1    6    6    0    0 -0.11233574896E+02 -0.50477992329E+02 -0.39396913386E+03  0.39734858669E+03  0.00000000000E+00 0.  1.
         14    1    6    6    0    0 -0.20763457028E+01  0.64158997717E+01  0.37478872061E+00  0.67539209311E+01  0.00000000000E+00 0. -1.
         -5    1    3    3    0  503 -0.44439075048E+02 -0.56674251971E+02 -0.33033687327E+03  0.33812917956E+03  0.47000000000E+01 0.  1.
         11    1    4    4    0    0 -0.34845627642E+02  0.12193433171E+02 -0.26979193279E+03  0.27230604947E+03  0.00000000000E+00 0. -1.
        -12    1    4    4    0    0  0.25285980383E+02  0.59565713377E+02 -0.25235846972E+03  0.26052303593E+03  0.00000000000E+00 0.  1.
</event>
<event>
12    1  0.8052519E-002  0.1984974E+03  0.7818608E-02  0.1151191E+00
         21   -1    0    0  503  502  0.00000000000E+00  0.00000000000E+00  0.78279580623E+03  0.78279580623E+03  0.00000000000E+00 0. -1.
         21   -1    0    0  501  503 -0.00000000000E+00 -0.00000000000E+00 -0.65115487496E+02  0.65115487496E+02  0.00000000000E+00 0. -1.
          6    2    1    2  501    0 -0.95799683561E+02  0.17083091891E+02  0.15483186765E+03  0.25108669727E+03  0.17205293054E+03 0.  0.
         24    2    3    3    0    0 -0.72964203359E+02 -0.64127042896E+01  0.17908109814E+03  0.21005467595E+03  0.81780373153E+02 0.  0.
         -6    2    1    2    0  502  0.95799683561E+02 -0.17083091891E+02  0.56284845108E+03  0.59682459645E+03  0.17300811729E+03 0.  0.
        -24    2    5    5    0    0  0.12587933661E+03 -0.16514311774E+02  0.53070563655E+03  0.55254864853E+03  0.86851634684E+02 0.  0.
          5    1    3    3  501    0 -0.22835480202E+02  0.23495796181E+02 -0.24249230484E+02  0.41032021316E+02  0.47000000000E+01 0. -1.
        -11    1    4    4    0    0  0.10375839443E+02 -0.94328570767E+01  0.17994810288E+01  0.14137714410E+02  0.00000000000E+00 0.  1.
         12    1    4    4    0    0 -0.83340042802E+02  0.30201527871E+01  0.17728161711E+03  0.19591696154E+03  0.00000000000E+00 0. -1.
         -5    1    5    5    0  502 -0.30079653050E+02 -0.56878011721E+00  0.32142814525E+02  0.44275947918E+02  0.47000000000E+01 0.  1.
         11    1    6    6    0    0  0.35544262999E+02 -0.11241503123E+01  0.33002961474E+03  0.33194006229E+03  0.00000000000E+00 0. -1.
        -12    1    6    6    0    0  0.90335073612E+02 -0.15390161462E+02  0.20067602181E+03  0.22060858624E+03  0.00000000000E+00 0.  1.
</event>
<event>
12    1  0.8052519E-002  0.2094496E+03  0.7818608E-02  0.1142102E+00
         21   -1    0    0  501  502  0.00000000000E+00  0.00000000000E+00  0.41086441551E+02  0.41086441551E+02  0.00000000000E+00 0. -1.
         21   -1    0    0  502  503 -0.00000000000E+00 -0.00000000000E+00 -0.10741078009E+04  0.10741078009E+04  0.00000000000E+00 0. -1.
         -6    2    1    2    0  503 -0.10819029172E+03  0.49736058089E+02 -0.46506295737E+03  0.50984650973E+03  0.17170059542E+03 0.  0.
        -24    2    3    3    0    0 -0.11845747955E+03  0.47891907560E+02 -0.23195981786E+03  0.27646274919E+03  0.79375596459E+02 0.  0.
          6    2    1    2  501    0  0.10819029172E+03 -0.49736058089E+02 -0.56795840193E+03  0.60534773268E+03  0.17230878223E+03 0.  0.
         24    2    5    5    0    0  0.94923918890E+02  0.22460617172E+02 -0.44432403873E+03  0.46148702806E+03  0.77662062663E+02 0.  0.
          5    1    5    5  501    0  0.13266372832E+02 -0.72196675261E+02 -0.12363436320E+03  0.14386070461E+03  0.47000000000E+01 0. -1.
        -13    1    6    6    0    0  0.16751860006E+02 -0.34147471040E+00 -0.98251208536E+01  0.19423553188E+02  0.00000000000E+00 0.  1.
         14    1    6    6    0    0  0.78172058884E+02  0.22802091882E+02 -0.43449891787E+03  0.44206347487E+03  0.00000000000E+00 0. -1.
         -5    1    3    3    0  503  0.10267187829E+02  0.18441505288E+01 -0.23310313951E+03  0.23338376055E+03  0.47000000000E+01 0.  1.
         11    1    4    4    0    0 -0.91312583125E+02 -0.43874178237E+01 -0.13621070695E+03  0.16404448774E+03  0.00000000000E+00 0. -1.
        -12    1    4    4    0    0 -0.27144896427E+02  0.52279325384E+02 -0.95749110918E+02  0.11241826144E+03  0.00000000000E+00 0.  1.
</event>
<event>
12    1  0.8052519E-002  0.2141904E+03  0.7818608E-02  0.1138570E+00
         21   -1    0    0  503  502  0.00000000000E+00  0.00000000000E+00  0.54802345984E+02  0.54802345984E+02  0.00000000000E+00 0.  1.
         21   -1    0    0  501  503 -0.00000000000E+00 -0.00000000000E+00 -0.97694858258E+03  0.97694858258E+03  0.00000000000E+00 0.  1.
          6    2    1    2  501    0 -0.80812304340E+02 -0.99159693721E+02 -0.66145164706E+03  0.69526670905E+03  0.17179709522E+03 0.  0.
         24    2    3    3    0    0 -0.50082603764E+02  0.63626466104E+01 -0.24004125212E+03  0.25973474723E+03  0.85402492506E+02 0.  0.
         -6    2    1    2    0  502  0.80812304340E+02  0.99159693721E+02 -0.26069458955E+03  0.33648421952E+03  0.16999025730E+03 0.  0.
        -24    2    5    5    0    0  0.78756847878E+02  0.18125805068E+02 -0.79485100043E+02  0.13791512551E+03  0.78558989417E+02 0.  0.
          5    1    3    3  501    0 -0.30729700577E+02 -0.10552234033E+03 -0.42141039494E+03  0.43553196182E+03  0.47000000000E+01 0. -1.
        -11    1    4    4    0    0 -0.41527475286E+02 -0.10767361616E+02 -0.39607659021E+02  0.58388645582E+02  0.00000000000E+00 0.  1.
         12    1    4    4    0    0 -0.85551284776E+01  0.17130008227E+02 -0.20043359310E+03  0.20134610165E+03  0.00000000000E+00 0. -1.
         -5    1    5    5    0  502  0.20554564626E+01  0.81033888653E+02 -0.18120948950E+03  0.19856909401E+03  0.47000000000E+01 0.  1.
         13    1    6    6    0    0  0.72416922660E+02  0.36821363293E+02 -0.33508932784E+02  0.87879872887E+02  0.00000000000E+00 0. -1.
        -14    1    6    6    0    0  0.63399252177E+01 -0.18695558225E+02 -0.45976167260E+02  0.50035252622E+02  0.00000000000E+00 0.  1.
</event>
<event>
12    1  0.8052519E-002  0.1753990E+03  0.7818608E-02  0.1172491E+00
         21   -1    0    0  503  502  0.00000000000E+00  0.00000000000E+00  0.17420547571E+04  0.17420547571E+04  0.00000000000E+00 0.  1.
         21   -1    0    0  501  503 -0.00000000000E+00 -0.00000000000E+00 -0.37840651297E+02  0.37840651297E+02  0.00000000000E+00 0.  1.
          6    2    1    2  501    0 -0.14172573357E+02  0.25244422618E+02  0.20189097510E+03  0.26744119403E+03  0.17299330545E+03 0.  0.
         24    2    3    3    0    0  0.91136773290E+01  0.36019077597E+02  0.28411067487E+02  0.92011119625E+02  0.79236508716E+02 0.  0.
         -6    2    1    2    0  502  0.14172573357E+02 -0.25244422618E+02  0.15023231307E+04  0.15124542144E+04  0.17235085958E+03 0.  0.
        -24    2    5    5    0    0  0.30304485537E+02  0.37988212191E+01  0.30792414581E+03  0.31758402321E+03  0.71481041804E+02 0.  0.
          5    1    3    3  501    0 -0.23286250686E+02 -0.10774654979E+02  0.17347990761E+03  0.17543007440E+03  0.47000000000E+01 0. -1.
        -11    1    4    4    0    0 -0.34730868486E+02  0.10979396498E+02  0.66343185454E+01  0.37024242812E+02  0.00000000000E+00 0.  1.
         12    1    4    4    0    0  0.43844545815E+02  0.25039681099E+02  0.21776748941E+02  0.54986876813E+02  0.00000000000E+00 0. -1.
         -5    1    5    5    0  502 -0.16131912180E+02 -0.29043243837E+02  0.11943989849E+04  0.11948701912E+04  0.47000000000E+01 0.  1.
         13    1    6    6    0    0  0.53040628901E+02 -0.78535490834E+00  0.24054619960E+03  0.24632579897E+03  0.00000000000E+00 0. -1.
        -14    1    6    6    0    0 -0.22736143364E+02  0.45841761274E+01  0.67377946206E+02  0.71258224232E+02  0.00000000000E+00 0.  1.
</event>
<event>
12    1  0.8052519E-002  0.1898904E+03  0.7818608E-02  0.1160257E+00
         21   -1    0    0  501  502  0.00000000000E+00  0.00000000000E+00  0.22022233119E+03  0.22022233119E+03  0.00000000000E+00 0.  1.
         21   -1    0    0  502  503 -0.00000000000E+00 -0.00000000000E+00 -0.32375272726E+03  0.32375272726E+03  0.00000000000E+00 0.  1.
         -6    2    1    2    0  503  0.57027578085E+02  0.15644763319E+02 -0.24717962428E+03  0.31169879676E+03  0.18044797024E+03 0.  0.
        -24    2    3    3    0    0 -0.37037188817E+02 -0.18146304924E+02 -0.12012989080E+03  0.14997761249E+03  0.79756202560E+02 0.  0.
          6    2    1    2  501    0 -0.57027578085E+02 -0.15644763319E+02  0.14364922821E+03  0.23227626169E+03  0.17268542989E+03 0.  0.
         24    2    5    5    0    0 -0.10315263989E+03 -0.30216039101E+02  0.98455528806E+02  0.16591057876E+03  0.79242367821E+02 0.  0.
          5    1    5    5  501    0  0.46125061804E+02  0.14571275782E+02  0.45193699400E+02  0.66365682923E+02  0.47000000000E+01 0. -1.
        -13    1    6    6    0    0 -0.82501218100E+02 -0.92351448098E+01  0.10683893611E+03  0.13530076554E+03  0.00000000000E+00 0.  1.
         14    1    6    6    0    0 -0.20651421790E+02 -0.20980894291E+02 -0.83834073057E+01  0.30609813218E+02  0.00000000000E+00 0. -1.
         -5    1    3    3    0  503  0.94064766902E+02  0.33791068242E+02 -0.12704973348E+03  0.16172118427E+03  0.47000000000E+01 0.  1.
         13    1    4    4    0    0 -0.38162802174E+02 -0.12860233428E+02 -0.13142471660E+03  0.13745632473E+03  0.00000000000E+00 0. -1.
        -14    1    4    4    0    0  0.11256133575E+01 -0.52860714962E+01  0.11294825803E+02  0.12521287762E+02  0.00000000000E+00 0.  1.
</event>
<event>
12    1  0.8052519E-002  0.1989852E+03  0.7818608E-02  0.1151300E+00
         21   -1    0    0  503  502  0.00000000000E+00  0.00000000000E+00  0.17760377645E+03  0.17760377645E+03  0.00000000000E+00 0. -1.
         21   -1    0    0  501  503 -0.00000000000E+00 -0.00000000000E+00 -0.31966193392E+03  0.31966193392E+03  0.00000000000E+00 0.  1.
          6    2    1    2  501    0  0.47044701847E+02 -0.87422474052E+02 -0.20994819171E+03  0.28701787550E+03  0.16865682528E+03 0.  0.
         24    2    3    3    0    0  0.94184830894E+00 -0.11707816505E+03 -0.12111591743E+03  0.18252770340E+03  0.70278824993E+02 0.  0.
         -6    2    1    2    0  502 -0.47044701847E+02  0.87422474052E+02  0.67890034234E+02  0.21024783487E+03  0.17245057952E+03 0.  0.
        -24    2    5    5    0    0  0.10290329539E+02 -0.73680013996E+01  0.31361973997E+01  0.81843436790E+02  0.80798106938E+02 0.  0.
          5    1    3    3  501    0  0.46102853538E+02  0.29655690999E+02 -0.88832274282E+02  0.10449017211E+03  0.47000000000E+01 0. -1.
        -11    1    4    4    0    0  0.28638395003E+02 -0.63140753060E+02 -0.92182437127E+02  0.11534519530E+03  0.00000000000E+00 0.  1.
         12    1    4    4    0    0 -0.27696546694E+02 -0.53937411992E+02 -0.28933480303E+02  0.67182508092E+02  0.00000000000E+00 0. -1.
         -5    1    5    5    0  502 -0.57335031386E+02  0.94790475452E+02  0.64753836834E+02  0.12840439808E+03  0.47000000000E+01 0.  1.
         11    1    6    6    0    0 -0.21487315690E+02 -0.14719463743E+02  0.29898728740E+02  0.39652255026E+02  0.00000000000E+00 0. -1.
        -12    1    6    6    0    0  0.31777645229E+02  0.73514623436E+01 -0.26762531340E+02  0.42191181763E+02  0.00000000000E+00 0.  1.
</event>
<event>
12    1  0.8052519E-002  0.2863125E+03  0.7818608E-02  0.1092865E+00
         21   -1    0    0  503  502  0.00000000000E+00  0.00000000000E+00  0.70628660069E+03  0.70628660069E+03  0.00000000000E+00 0.  1.
         21   -1    0    0  501  503 -0.00000000000E+00 -0.00000000000E+00 -0.19130142458E+03  0.19130142458E+03  0.00000000000E+00 0. -1.
          6    2    1    2  501    0 -0.13038276071E+03 -0.18288682145E+03 -0.28347733592E+02  0.28343371865E+03  0.17053980508E+03 0.  0.
         24    2    3    3    0    0 -0.14577770611E+03 -0.93052287341E+02 -0.28695720584E+02  0.19216784903E+03  0.78709402492E+02 0.  0.
         -6    2    1    2    0  502  0.13038276071E+03  0.18288682145E+03  0.54333290970E+03  0.61415430662E+03  0.17756015271E+03 0.  0.
        -24    2    5    5    0    0  0.87619673397E+02  0.17663158027E+03  0.52489320209E+03  0.56693225144E+03  0.83805619202E+02 0.  0.
          5    1    3    3  501    0  0.15394945405E+02 -0.89834534114E+02  0.34798699142E+00  0.91265869625E+02  0.47000000000E+01 0. -1.
        -13    1    4    4    0    0 -0.20103530076E+02 -0.14357833122E+02  0.24348166552E+02  0.34686200540E+02  0.00000000000E+00 0.  1.
         14    1    4    4    0    0 -0.12567417604E+03 -0.78694454219E+02 -0.53043887136E+02  0.15748164849E+03  0.00000000000E+00 0. -1.
         -5    1    5    5    0  502  0.42763087311E+02  0.62552411842E+01  0.18439707607E+02  0.47222055178E+02  0.47000000000E+01 0. -1.
         13    1    6    6    0    0 -0.27903508339E+01  0.86574924885E+02  0.20930559646E+03  0.22652116101E+03  0.00000000000E+00 0. -1.
        -14    1    6    6    0    0  0.90410024231E+02  0.90056655385E+02  0.31558760563E+03  0.34041109043E+03  0.00000000000E+00 0.  1.
</event>
<event>
12    1  0.8052519E-002  0.1950302E+03  0.7818608E-02  0.1154462E+00
         21   -1    0    0  503  502  0.00000000000E+00  0.00000000000E+00  0.14919352447E+03  0.14919352447E+03  0.00000000000E+00 0. -1.
         21   -1    0    0  501  503 -0.00000000000E+00 -0.00000000000E+00 -0.50197021967E+03  0.50197021967E+03  0.00000000000E+00 0.  1.
          6    2    1    2  501    0  0.62438783062E+02  0.66223847812E+02 -0.40556588822E+03  0.44911552637E+03  0.17010839688E+03 0.  0.
         24    2    3    3    0    0  0.10285454821E+03  0.64917523586E+02 -0.25944058327E+03  0.29742559493E+03  0.79744751010E+02 0.  0.
         -6    2    1    2    0  502 -0.62438783062E+02 -0.66223847812E+02  0.52789193021E+02  0.20204821777E+03  0.17248937287E+03 0.  0.
        -24    2    5    5    0    0  0.25034841931E+02 -0.44473985540E+02 -0.41875306344E+01  0.95309618297E+02  0.80384757428E+02 0.  0.
          5    1    3    3  501    0 -0.40415765143E+02  0.13063242257E+01 -0.14612530495E+03  0.15168993145E+03  0.47000000000E+01 0. -1.
        -11    1    4    4    0    0  0.42515964366E+02  0.95746802246E+01 -0.17283418809E+03  0.17824404141E+03  0.00000000000E+00 0.  1.
         12    1    4    4    0    0  0.60338583840E+02  0.55342843361E+02 -0.86606395186E+02  0.11918155352E+03  0.00000000000E+00 0. -1.
         -5    1    5    5    0  502 -0.87473624993E+02 -0.21749862271E+02  0.56976723656E+02  0.10673859947E+03  0.47000000000E+01 0.  1.
         13    1    6    6    0    0  0.10246294491E+02 -0.42819600866E+02  0.33152032857E+02  0.55114082154E+02  0.00000000000E+00 0. -1.
        -14    1    6    6    0    0  0.14788547440E+02 -0.16543846748E+01 -0.37339563492E+02  0.40195536143E+02  0.00000000000E+00 0.  1.
</event>
<event>
12    1  0.8052519E-002  0.1857752E+03  0.7818608E-02  0.1164401E+00
         21   -1    0    0  501  502  0.00000000000E+00  0.00000000000E+00  0.17137643471E+03  0.17137643471E+03  0.00000000000E+00 0.  1.
         21   -1    0    0  502  503 -0.00000000000E+00 -0.00000000000E+00 -0.19541344352E+03  0.19541344352E+03  0.00000000000E+00 0.  1.
         -6    2    1    2    0  503 -0.46233950715E+01  0.44032016571E+02 -0.36318508093E+02  0.18929199637E+03  0.18042237000E+03 0.  0.
        -24    2    3    3    0    0  0.46345235926E+02  0.56478372560E+02 -0.68526780748E+02  0.12754917533E+03  0.78963187545E+02 0.  0.
          6    2    1    2  501    0  0.46233950715E+01 -0.44032016571E+02  0.12281499276E+02  0.17749788186E+03  0.17144815127E+03 0.  0.
         24    2    5    5    0    0  0.66590260496E+02 -0.50457118163E+02  0.53225295899E+01  0.11463540020E+03  0.78311953693E+02 0.  0.
          5    1    5    5  501    0 -0.61966865425E+02  0.64251015915E+01  0.69589696859E+01  0.62862481657E+02  0.47000000000E+01 0. -1.
        -13    1    6    6    0    0  0.61498274710E+02 -0.26701267513E+02  0.35524047009E+02  0.75874589916E+02  0.00000000000E+00 0.  1.
         14    1    6    6    0    0  0.50919857865E+01 -0.23755850650E+02 -0.30201517419E+02  0.38760810282E+02  0.00000000000E+00 0. -1.
         -5    1    3    3    0  503 -0.50968630997E+02 -0.12446355988E+02  0.32208272655E+02  0.61742821044E+02  0.47000000000E+01 0.  1.
         13    1    4    4    0    0  0.30515555709E+02 -0.13383402885E+01  0.67887896108E+01  0.31290221465E+02  0.00000000000E+00 0. -1.
        -14    1    4    4    0    0  0.15829680216E+02  0.57816712848E+02 -0.75315570359E+02  0.96258953863E+02  0.00000000000E+00 0.  1.
</event>
<event>
12    1  0.8052519E-002  0.1860289E+03  0.7818608E-02  0.1167757E+00
         21   -1    0    0  501  502  0.00000000000E+00  0.00000000000E+00  0.11465160682E+03  0.11465160682E+03  0.00000000000E+00 0. -1.
         21   -1    0    0  502  503 -0.00000000000E+00 -0.00000000000E+00 -0.26600730687E+03  0.26600730687E+03  0.00000000000E+00 0. -1.
         -6    2    1    2    0  503  0.46129542027E+02  0.43098940425E+02 -0.69108623880E+02  0.17725950558E+03  0.15053065173E+03 0.  0.
        -24    2    3    3    0    0  0.72660101612E+02  0.22201762180E+02 -0.12153833409E+02  0.11087802618E+03  0.79836159804E+02 0.  0.
          6    2    1    2  501    0 -0.46129542027E+02 -0.43098940425E+02 -0.82247076169E+02  0.20339940810E+03  0.17498938357E+03 0.  0.
         24    2    5    5    0    0 -0.93945812584E+02 -0.51060312195E+02 -0.44167135369E+02  0.14157747783E+03  0.81611734447E+02 0.  0.
          5    1    5    5  501    0  0.47816270558E+02  0.79613717708E+01 -0.38079940800E+02  0.61821930266E+02  0.47000000000E+01 0. -1.
        -13    1    6    6    0    0 -0.11107529443E+02 -0.16449389801E+02 -0.47767668930E+02  0.51727263896E+02  0.00000000000E+00 0.  1.
         14    1    6    6    0    0 -0.82838283141E+02 -0.34610922395E+02  0.36005335608E+01  0.89850213938E+02  0.00000000000E+00 0. -1.
         -5    1    3    3    0  503 -0.26530559585E+02  0.20897178244E+02 -0.56954790471E+02  0.66381479405E+02  0.47000000000E+01 0.  1.
         13    1    4    4    0    0  0.40901935499E+02  0.44297340537E+02  0.16759986965E+02  0.62578909141E+02  0.00000000000E+00 0. -1.
        -14    1    4    4    0    0  0.31758166112E+02 -0.22095578357E+02 -0.28913820375E+02  0.48299117036E+02  0.00000000000E+00 0.  1.
</event>
<event>
12    1  0.8052519E-002  0.1889624E+03  0.7818608E-02  0.1159955E+00
         21   -1    0    0  501  502  0.00000000000E+00  0.00000000000E+00  0.61056342259E+02  0.61056342259E+02  0.00000000000E+00 0. -1.
         21   -1    0    0  502  503 -0.00000000000E+00 -0.00000000000E+00 -0.62856439974E+03  0.62856439974E+03  0.00000000000E+00 0. -1.
         -6    2    1    2    0  503  0.50370783056E+02  0.52338642959E+02 -0.38386815258E+03  0.42785690359E+03  0.17444260389E+03 0.  0.
        -24    2    3    3    0    0  0.64517097759E+02  0.84699164554E+02 -0.36311236925E+03  0.38662325084E+03  0.79312930891E+02 0.  0.
          6    2    1    2  501    0 -0.50370783056E+02 -0.52338642959E+02 -0.18363990490E+03  0.26176383841E+03  0.17181426918E+03 0.  0.
         24    2    5    5    0    0 -0.58161222778E+02 -0.61594511101E+01 -0.35473453775E+02  0.10630131575E+03  0.81369141171E+02 0.  0.
          5    1    5    5  501    0  0.77904397223E+01 -0.46179191849E+02 -0.14816645113E+03  0.15546252266E+03  0.47000000000E+01 0. -1.
        -13    1    6    6    0    0 -0.11046217697E+02 -0.34458796722E+02  0.69807902500E+01  0.36853209215E+02  0.00000000000E+00 0.  1.
         14    1    6    6    0    0 -0.47115005081E+02  0.28299345612E+02 -0.42454244025E+02  0.69448106537E+02  0.00000000000E+00 0. -1.
         -5    1    3    3    0  503 -0.14146314703E+02 -0.32360521595E+02 -0.20755783324E+02  0.41233652748E+02  0.47000000000E+01 0.  1.
         13    1    4    4    0    0  0.39696807168E+02  0.82192846679E+02 -0.18001090844E+03  0.20183019522E+03  0.00000000000E+00 0. -1.
        -14    1    4    4    0    0  0.24820290590E+02  0.25063178745E+01 -0.18310146081E+03  0.18479305562E+03  0.00000000000E+00 0.  1.
</event>
<event>
12    1  0.8052519E-002  0.1772710E+03  0.7818608E-02  0.1170687E+00
         21   -1    0    0  503  502  0.00000000000E+00  0.00000000000E+00  0.19192532987E+03  0.19192532987E+03  0.00000000000E+00 0. -1.
         21   -1    0    0  501  503 -0.00000000000E+00 -0.00000000000E+00 -0.17456960087E+03  0.17456960087E+03  0.00000000000E+00 0. -1.
          6    2    1    2  501    0 -0.32844794388E+02 -0.26066293634E+02 -0.38625047365E+02  0.18143012674E+03  0.17224042621E+03 0.  0.
         24    2    3    3    0    0  0.40663943335E+02  0.13362318435E+02 -0.36309672203E+01  0.90849634264E+02  0.80052259690E+02 0.  0.
         -6    2    1    2    0  502  0.32844794388E+02  0.26066293634E+02  0.55980776362E+02  0.18506480400E+03  0.17133856010E+03 0.  0.
        -24    2    5    5    0    0  0.47994980945E+02  0.65388082400E+02  0.77210861825E+02  0.13764605504E+03  0.80036240341E+02 0.  0.
          5    1    3    3  501    0 -0.73508737723E+02 -0.39428612069E+02 -0.34994080145E+02  0.90580492472E+02  0.47000000000E+01 0. -1.
        -11    1    4    4    0    0  0.24017437276E+02  0.33825042093E+02 -0.31790528000E+02  0.52264791557E+02  0.00000000000E+00 0.  1.
         12    1    4    4    0    0  0.16646506059E+02 -0.20462723658E+02  0.28159560780E+02  0.38584842708E+02  0.00000000000E+00 0. -1.
         -5    1    5    5    0  502 -0.15150186557E+02 -0.39321788767E+02 -0.21230085464E+02  0.47418748964E+02  0.47000000000E+01 0.  1.
         11    1    6    6    0    0  0.11277125874E+02  0.46391310306E+02 -0.25475177931E+01  0.47810219480E+02  0.00000000000E+00 0. -1.
        -12    1    6    6    0    0  0.36717855071E+02  0.18996772095E+02  0.79758379618E+02  0.89835835558E+02  0.00000000000E+00 0.  1.
</event>
<event>
12    1  0.8052519E-002  0.2009047E+03  0.7818608E-02  0.1149007E+00
         21   -1    0    0  501  502  0.00000000000E+00  0.00000000000E+00  0.45832123266E+03  0.45832123266E+03  0.00000000000E+00 0.  1.
         21   -1    0    0  502  503 -0.00000000000E+00 -0.00000000000E+00 -0.92475696023E+02  0.92475696023E+02  0.00000000000E+00 0.  1.
         -6    2    1    2    0  503  0.89223864391E+02  0.52901876608E+02  0.12242969441E+03  0.23526945686E+03  0.17205574891E+03 0.  0.
        -24    2    3    3    0    0  0.31853566443E+02 -0.25704802101E+02 -0.11659088579E+02  0.69521899569E+02  0.54972480633E+02 0.  0.
          6    2    1    2  501    0 -0.89223864391E+02 -0.52901876608E+02  0.24341584222E+03  0.31552747182E+03  0.17189184594E+03 0.  0.
         24    2    5    5    0    0 -0.42467284992E+00 -0.40275748096E+02  0.54233846875E+02  0.10610771892E+03  0.81824334010E+02 0.  0.
          5    1    5    5  501    0 -0.88799191541E+02 -0.12626128512E+02  0.18918199535E+03  0.20941975290E+03  0.47000000000E+01 0. -1.
        -13    1    6    6    0    0 -0.12372339799E+02 -0.35432703273E+01  0.64797014091E+02  0.66062717109E+02  0.00000000000E+00 0.  1.
         14    1    6    6    0    0  0.11947666949E+02 -0.36732477768E+02 -0.10563167216E+02  0.40045001812E+02  0.00000000000E+00 0. -1.
         -5    1    3    3    0  503  0.57370297948E+02  0.78606678709E+02  0.13408878299E+03  0.16574755729E+03  0.47000000000E+01 0.  1.
         13    1    4    4    0    0  0.42471464338E+02 -0.17361507042E+02  0.70781298493E+01  0.46425716278E+02  0.00000000000E+00 0. -1.
        -14    1    4    4    0    0 -0.10617897895E+02 -0.83432950592E+01 -0.18737218429E+02  0.23096183291E+02  0.00000000000E+00 0.  1.
</event>
<event>
12    1  0.8052519E-002  0.2253377E+03  0.7818608E-02  0.1131548E+00
         21   -1    0    0  503  502  0.00000000000E+00  0.00000000000E+00  0.58483345869E+03  0.58483345869E+03  0.00000000000E+00 0.  1.
         21   -1    0    0  501  503 -0.00000000000E+00 -0.00000000000E+00 -0.97083390552E+02  0.97083390552E+02  0.00000000000E+00 0.  1.
          6    2    1    2  501    0 -0.13888052925E+03  0.18090801457E+02  0.37523976727E+03  0.43770074877E+03  0.17652757300E+03 0.  0.
         24    2    3    3    0    0 -0.15723875795E+03  0.15653382069E+02  0.37934489338E+03  0.41815829154E+03  0.77361187175E+02 0.  0.
         -6    2    1    2    0  502  0.13888052925E+03 -0.18090801457E+02  0.11251030088E+03  0.24421610048E+03  0.16543233489E+03 0.  0.
        -24    2    5    5    0    0  0.57918731394E+02 -0.15016941328E+02 -0.76706575167E+01  0.99199501124E+02  0.78750327386E+02 0.  0.
          5    1    3    3  501    0  0.18358228694E+02  0.24374193877E+01 -0.41051261110E+01  0.19542457226E+02  0.47000000000E+01 0. -1.
        -13    1    4    4    0    0 -0.97178698128E+01  0.17917248326E+01  0.11252189593E+03  0.11295496597E+03  0.00000000000E+00 0.  1.
         14    1    4    4    0    0 -0.14752088813E+03  0.13861657236E+02  0.26682299744E+03  0.30520332557E+03  0.00000000000E+00 0. -1.
         -5    1    5    5    0  502  0.80961797858E+02 -0.30738601282E+01  0.12018095839E+03  0.14501659935E+03  0.47000000000E+01 0.  1.
         13    1    6    6    0    0 -0.11927371580E+01 -0.34584265358E+02  0.68180501600E+01  0.35270098388E+02  0.00000000000E+00 0. -1.
        -14    1    6    6    0    0  0.59111468552E+02  0.19567324030E+02 -0.14488707677E+02  0.63929402737E+02  0.00000000000E+00 0.  1.
</event>
<event>
12    1  0.8052519E-002  0.2112361E+03  0.7818608E-02  0.1140667E+00
         21   -1    0    0  501  502  0.00000000000E+00  0.00000000000E+00  0.41302694351E+03  0.41302694351E+03  0.00000000000E+00 0.  1.
         21   -1    0    0  502  503 -0.00000000000E+00 -0.00000000000E+00 -0.17033295974E+03  0.17033295974E+03  0.00000000000E+00 0. -1.
         -6    2    1    2    0  503 -0.53513570307E+00 -0.12166124457E+03 -0.55263568663E+02  0.21834553036E+03  0.17268168347E+03 0.  0.
        -24    2    3    3    0    0 -0.43318252724E+02 -0.44800092147E+02  0.19294953030E+02  0.10293714674E+03  0.79625634629E+02 0.  0.
          6    2    1    2  501    0  0.53513570307E+00  0.12166124457E+03  0.29795755243E+03  0.36501437290E+03  0.17220640107E+03 0.  0.
         24    2    5    5    0    0 -0.23219752529E+02  0.13008110459E+03  0.30186048593E+03  0.33908154336E+03  0.79976805426E+02 0.  0.
          5    1    5    5  501    0  0.23754888232E+02 -0.84198600286E+01 -0.39029334936E+01  0.25932829535E+02  0.47000000000E+01 0. -1.
        -13    1    6    6    0    0 -0.31645645874E+02  0.12765241083E+03  0.21681341753E+03  0.25358360143E+03  0.00000000000E+00 0.  1.
         14    1    6    6    0    0  0.84258933453E+01  0.24286937657E+01  0.85047068396E+02  0.85497941933E+02  0.00000000000E+00 0. -1.
         -5    1    3    3    0  503  0.42783117021E+02 -0.76861152419E+02 -0.74558521693E+02  0.11540838362E+03  0.47000000000E+01 0.  1.
         11    1    4    4    0    0 -0.53229314866E+02  0.14480635156E+01  0.47862286625E+01  0.53463677706E+02  0.00000000000E+00 0. -1.
        -12    1    4    4    0    0  0.99110621419E+01 -0.46248155663E+02  0.14508724368E+02  0.49473469029E+02  0.00000000000E+00 0.  1.
</event>
<event>
12    1  0.8052519E-002  0.1994170E+03  0.7818608E-02  0.1151063E+00
         21   -1    0    0  503  502  0.00000000000E+00  0.00000000000E+00  0.54925050315E+02  0.54925050315E+02  0.00000000000E+00 0. -1.
         21   -1    0    0  501  503 -0.00000000000E+00 -0.00000000000E+00 -0.78666404274E+03  0.78666404274E+03  0.00000000000E+00 0.  1.
          6    2    1    2  501    0 -0.87592351259E+02 -0.42368659749E+02 -0.49398477875E+03  0.53127603704E+03  0.16960466554E+03 0.  0.
         24    2    3    3    0    0 -0.59624165705E+02 -0.44223024601E+02 -0.49051120844E+03  0.50264364694E+03  0.80862062572E+02 0.  0.
         -6    2    1    2    0  502  0.87592351259E+02  0.42368659749E+02 -0.23775421368E+03  0.31031305602E+03  0.17406781231E+03 0.  0.
        -24    2    5    5    0    0  0.48278103668E+02 -0.39642549387E+02 -0.16045297427E+03  0.19086005228E+03  0.82341335836E+02 0.  0.
          5    1    3    3  501    0 -0.27968185554E+02  0.18543648516E+01 -0.34735703042E+01  0.28632390100E+02  0.47000000000E+01 0. -1.
        -11    1    4    4    0    0  0.15591071373E+02  0.36144141969E+01 -0.34904035368E+02  0.38398400768E+02  0.00000000000E+00 0.  1.
         12    1    4    4    0    0 -0.75215237078E+02 -0.47837438798E+02 -0.45560717308E+03  0.46424524618E+03  0.00000000000E+00 0. -1.
         -5    1    5    5    0  502  0.39314247591E+02  0.82011209137E+02 -0.77301239413E+02  0.11945300374E+03  0.47000000000E+01 0.  1.
         11    1    6    6    0    0  0.25613170741E+02  0.51238990872E+01 -0.38351504435E+01  0.26400705222E+02  0.00000000000E+00 0. -1.
        -12    1    6    6    0    0  0.22664932927E+02 -0.44766448475E+02 -0.15661782383E+03  0.16445934705E+03  0.00000000000E+00 0.  1.
</event>
<event>
12    1  0.8052519E-002  0.1828475E+03  0.7818608E-02  0.1165105E+00
         21   -1    0    0  503  502  0.00000000000E+00  0.00000000000E+00  0.61405331421E+03  0.61405331421E+03  0.00000000000E+00 0.  1.
         21   -1    0    0  501  503 -0.00000000000E+00 -0.00000000000E+00 -0.73059769159E+02  0.73059769159E+02  0.00000000000E+00 0.  1.
          6    2    1    2  501    0 -0.73257227610E+01 -0.62181871097E+02  0.96985739056E+02  0.20697694289E+03  0.17179339335E+03 0.  0.
         24    2    3    3    0    0 -0.12868246409E+02  0.23438549767E+01  0.11424492138E+03  0.13978871275E+03  0.79485198179E+02 0.  0.
         -6    2    1    2    0  502  0.73257227610E+01  0.62181871097E+02  0.44400780599E+03  0.48013614048E+03  0.17166109141E+03 0.  0.
        -24    2    5    5    0    0  0.25043200995E+02 -0.52588891512E+00  0.10001420938E+03  0.12999351709E+03  0.79170915956E+02 0.  0.
          5    1    3    3  501    0  0.55425236475E+01 -0.64525726074E+02 -0.17259182329E+02  0.67188230133E+02  0.47000000000E+01 0. -1.
        -13    1    4    4    0    0  0.27499736569E+02 -0.88021141226E+01  0.16046838178E+02  0.33033524485E+02  0.00000000000E+00 0.  1.
         14    1    4    4    0    0 -0.40367982978E+02  0.11145969099E+02  0.98198083206E+02  0.10675518827E+03  0.00000000000E+00 0. -1.
         -5    1    5    5    0  502 -0.17717478234E+02  0.62707760012E+02  0.34399359662E+03  0.35014262339E+03  0.47000000000E+01 0.  1.
         13    1    6    6    0    0  0.37207343929E+02 -0.58841249948E+01  0.10807261382E+03  0.11444954883E+03  0.00000000000E+00 0. -1.
        -14    1    6    6    0    0 -0.12164142934E+02  0.53582360796E+01 -0.80584044428E+01  0.15543968263E+02  0.00000000000E+00 0.  1.
</event>
<event>
12    1  0.8052519E-002  0.2097181E+03  0.7818608E-02  0.1141879E+00
         21   -1    0    0  503  502  0.00000000000E+00  0.00000000000E+00  0.35892038124E+03  0.35892038124E+03  0.00000000000E+00 0. -1.
         21   -1    0    0  501  503 -0.00000000000E+00 -0.00000000000E+00 -0.41519368641E+03  0.41519368641E+03  0.00000000000E+00 0. -1.
          6    2    1    2  501    0  0.11954410025E+03 -0.43544797312E+01 -0.35324928942E+03  0.41081229451E+03  0.17225541342E+03 0.  0.
         24    2    3    3    0    0  0.11859634027E+03 -0.18166521928E+02 -0.36460596818E+03  0.39229919345E+03  0.81031047775E+02 0.  0.
         -6    2    1    2    0  502 -0.11954410025E+03  0.43544797312E+01  0.29697598425E+03  0.36330177313E+03  0.17170815281E+03 0.  0.
        -24    2    5    5    0    0 -0.75279620656E+02 -0.56372236295E+02  0.10048661641E+03  0.15288019661E+03  0.66557825430E+02 0.  0.
          5    1    3    3  501    0  0.94775997727E+00  0.13812042196E+02  0.11356678760E+02  0.18513101066E+02  0.47000000000E+01 0. -1.
        -11    1    4    4    0    0  0.22294940653E+02  0.24584739193E+02 -0.14466099413E+03  0.14841926089E+03  0.00000000000E+00 0.  1.
         12    1    4    4    0    0  0.96301399621E+02 -0.42751261121E+02 -0.21994497405E+03  0.24387993256E+03  0.00000000000E+00 0. -1.
         -5    1    5    5    0  502 -0.44264479595E+02  0.60726716026E+02  0.19648936784E+03  0.21042157652E+03  0.47000000000E+01 0.  1.
         11    1    6    6    0    0 -0.40901378504E+01 -0.11952381248E+01  0.48897641257E+02  0.49082961833E+02  0.00000000000E+00 0. -1.
        -12    1    6    6    0    0 -0.71189482806E+02 -0.55176998170E+02  0.51588975150E+02  0.10379723477E+03  0.00000000000E+00 0.  1.
</event>
<event>
12    1  0.8052519E-002  0.2234791E+03  0.7818608E-02  0.1134307E+00
         21   -1    0    0  503  502  0.00000000000E+00  0.00000000000E+00  0.78595396195E+03  0.78595396195E+03  0.00000000000E+00 0.  1.
         21   -1    0    0  501  503 -0.00000000000E+00 -0.00000000000E+00 -0.63623057092E+02  0.63623057092E+02  0.00000000000E+00 0.  1.
          6    2    1    2  501    0  0.65097073937E+02  0.89200934419E+02  0.26078999398E+03  0.34344481292E+03  0.19428968790E+03 0.  0.
         24    2    3    3    0    0  0.13323102707E+01  0.10525876624E+03  0.24022757460E+03  0.27438902287E+03  0.80615540397E+02 0.  0.
         -6    2    1    2    0  502 -0.65097073937E+02 -0.89200934419E+02  0.46154091088E+03  0.50613220613E+03  0.17594135934E+03 0.  0.
        -24    2    5    5    0    0 -0.58501154013E+02  0.43841244269E+01  0.32822589513E+03  0.34304740357E+03  0.80670176014E+02 0.  0.
          5    1    3    3  501    0  0.63764763666E+02 -0.16057831821E+02  0.20562419384E+02  0.69055790048E+02  0.47000000000E+01 0. -1.
        -13    1    4    4    0    0  0.36274822164E+02  0.82222133183E+02  0.14871415677E+03  0.17375915036E+03  0.00000000000E+00 0.  1.
         14    1    4    4    0    0 -0.34942511893E+02  0.23036633057E+02  0.91513417824E+02  0.10062987251E+03  0.00000000000E+00 0. -1.
         -5    1    5    5    0  502 -0.65959199243E+01 -0.93585058846E+02  0.13331501575E+03  0.16308480256E+03  0.47000000000E+01 0.  1.
         13    1    6    6    0    0 -0.20607561599E+02  0.37414752073E+02  0.21443023752E+03  0.21864323001E+03  0.00000000000E+00 0. -1.
        -14    1    6    6    0    0 -0.37893592414E+02 -0.33030627647E+02  0.11379565761E+03  0.12440417356E+03  0.00000000000E+00 0.  1.
</event>
<event>
12    1  0.8052519E-002  0.1847548E+03  0.7818608E-02  0.1163525E+00
         21   -1    0    0  501  502  0.00000000000E+00  0.00000000000E+00  0.18057966385E+03  0.18057966385E+03  0.00000000000E+00 0.  1.
         21   -1    0    0  502  503 -0.00000000000E+00 -0.00000000000E+00 -0.42719087615E+03  0.42719087615E+03  0.00000000000E+00 0.  1.
         -6    2    1    2    0  503  0.10833626081E+02 -0.63936987604E+02 -0.35056192394E+03  0.39577976725E+03  0.17187977139E+03 0.  0.
        -24    2    3    3    0    0 -0.37098927377E+02  0.16806014811E+02 -0.18719195242E+03  0.20728891942E+03  0.79177626382E+02 0.  0.
          6    2    1    2  501    0 -0.10833626081E+02  0.63936987604E+02  0.10395071164E+03  0.21199077276E+03  0.17300009089E+03 0.  0.
         24    2    5    5    0    0  0.41090050364E+01  0.56188219829E+02  0.14041217343E+03  0.17155744712E+03  0.80884975395E+02 0.  0.
          5    1    5    5  501    0 -0.14942631117E+02  0.77487677750E+01 -0.36461461788E+02  0.40433325642E+02  0.47000000000E+01 0. -1.
        -13    1    6    6    0    0 -0.38359199605E+02  0.25741199126E+02  0.61651432061E+02  0.77038539718E+02  0.00000000000E+00 0.  1.
         14    1    6    6    0    0  0.42468204641E+02  0.30447020703E+02  0.78760741366E+02  0.94518907398E+02  0.00000000000E+00 0. -1.
         -5    1    3    3    0  503  0.47932553458E+02 -0.80743002415E+02 -0.16336997152E+03  0.18849084783E+03  0.47000000000E+01 0.  1.
         11    1    4    4    0    0  0.87942273177E+01  0.20912060305E+02 -0.13813871300E+03  0.13998913076E+03  0.00000000000E+00 0. -1.
        -12    1    4    4    0    0 -0.45893154695E+02 -0.41060454942E+01 -0.49053239418E+02  0.67299788669E+02  0.00000000000E+00 0.  1.
</event>
<event>
12    1  0.8052519E-002  0.2041439E+03  0.7818608E-02  0.1146513E+00
         21   -1    0    0  503  502  0.00000000000E+00  0.00000000000E+00  0.14920699332E+03  0.14920699332E+03  0.00000000000E+00 0.  1.
         21   -1    0    0  501  503 -0.00000000000E+00 -0.00000000000E+00 -0.40705684406E+03  0.40705684406E+03  0.00000000000E+00 0. -1.
          6    2    1    2  501    0  0.29091870222E+02 -0.10262714449E+03 -0.28587682581E+03  0.35128375542E+03  0.17405760423E+03 0.  0.
         24    2    3    3    0    0  0.13869053422E+02 -0.97182930031E+02 -0.30261611466E+03  0.32754207449E+03  0.77912933292E+02 0.  0.
         -6    2    1    2    0  502 -0.29091870222E+02  0.10262714449E+03  0.28026975065E+02  0.20498008196E+03  0.17277920873E+03 0.  0.
        -24    2    5    5    0    0  0.47959057073E+02  0.33440830380E+02  0.10544175183E+02  0.99854776969E+02  0.80258560674E+02 0.  0.
          5    1    3    3  501    0  0.15222816800E+02 -0.54442144574E+01  0.16739288852E+02  0.23741680935E+02  0.47000000000E+01 0. -1.
        -11    1    4    4    0    0  0.28057095906E+02 -0.44292490474E+02 -0.64057758926E+02  0.82779356253E+02  0.00000000000E+00 0.  1.
         12    1    4    4    0    0 -0.14188042483E+02 -0.52890439557E+02 -0.23855835574E+03  0.24476271823E+03  0.00000000000E+00 0. -1.
         -5    1    5    5    0  502 -0.77050927294E+02  0.69186314108E+02  0.17482799882E+02  0.10512530499E+03  0.47000000000E+01 0.  1.
         13    1    6    6    0    0  0.62738106183E+02  0.41325636431E+02  0.23459093156E+02  0.78703286116E+02  0.00000000000E+00 0. -1.
        -14    1    6    6    0    0 -0.14779049110E+02 -0.78848060503E+01 -0.12914917973E+02  0.21151490853E+02  0.00000000000E+00 0.  1.
</event>
<event>
12    1  0.8052519E-002  0.1730282E+03  0.7818608E-02  0.1176760E+00
         21   -1    0    0  501  502  0.00000000000E+00  0.00000000000E+00  0.18541733925E+03  0.18541733925E+03  0.00000000000E+00 0. -1.
         21   -1    0    0  502  503 -0.00000000000E+00 -0.00000000000E+00 -0.50676263638E+03  0.50676263638E+03  0.00000000000E+00 0. -1.
         -6    2    1    2    0  503 -0.19376070789E+02 -0.16673159169E+02 -0.45041502271E+03  0.48250641511E+03  0.17112954620E+03 0.  0.
        -24    2    3    3    0    0  0.11616469663E+02 -0.53994491472E+01 -0.43998953937E+03  0.44760061610E+03  0.81187562862E+02 0.  0.
          6    2    1    2  501    0  0.19376070789E+02  0.16673159169E+02  0.12906972557E+03  0.20967356052E+03  0.16325005840E+03 0.  0.
         24    2    5    5    0    0  0.41855785392E+02  0.11918765210E+02  0.10274728872E+02  0.88585645883E+02  0.76471451328E+02 0.  0.
          5    1    5    5  501    0 -0.22479714604E+02  0.47543939587E+01  0.11879499670E+03  0.12108791464E+03  0.47000000000E+01 0. -1.
        -11    1    6    6    0    0 -0.65918842569E+01 -0.13149430076E+02 -0.21051744427E+02  0.25681440629E+02  0.00000000000E+00 0.  1.
         12    1    6    6    0    0  0.48447669649E+02  0.25068195286E+02  0.31326473298E+02  0.62904205254E+02  0.00000000000E+00 0. -1.
         -5    1    3    3    0  503 -0.30992540452E+02 -0.11273710022E+02 -0.10425483342E+02  0.34905799006E+02  0.47000000000E+01 0.  1.
         13    1    4    4    0    0  0.42355097097E+02 -0.20451586334E+02 -0.22069988066E+03  0.22565606342E+03  0.00000000000E+00 0. -1.
        -14    1    4    4    0    0 -0.30738627433E+02  0.15052137187E+02 -0.21928965871E+03  0.22194455268E+03  0.00000000000E+00 0.  1.
</event>
<event>
12    1  0.8052519E-002  0.2263871E+03  0.7818608E-02  0.1129224E+00
         21   -1    0    0  501  502  0.00000000000E+00  0.00000000000E+00  0.27915408403E+03  0.27915408403E+03  0.00000000000E+00 0.  1.
         21   -1    0    0  502  503 -0.00000000000E+00 -0.00000000000E+00 -0.59811643560E+03  0.59811643560E+03  0.00000000000E+00 0. -1.
         -6    2    1    2    0  503  0.79435089146E+02  0.12271904271E+03 -0.52466280774E+03  0.57138853814E+03  0.17275387941E+03 0.  0.
        -24    2    3    3    0    0  0.82438162768E+02  0.41231954908E+02 -0.42676424611E+03  0.44389194093E+03  0.80101240175E+02 0.  0.
          6    2    1    2  501    0 -0.79435089146E+02 -0.12271904271E+03  0.20570045617E+03  0.30588198150E+03  0.17286182951E+03 0.  0.
         24    2    5    5    0    0  0.41050712976E+01 -0.32225949602E+01  0.89577720904E+02  0.11942839725E+03  0.78814575166E+02 0.  0.
          5    1    5    5  501    0 -0.83540160443E+02 -0.11949644775E+03  0.11612273527E+03  0.18645358425E+03  0.47000000000E+01 0. -1.
        -13    1    6    6    0    0  0.12406857808E+02 -0.28917735859E+02  0.86746505379E+02  0.92277417407E+02  0.00000000000E+00 0.  1.
         14    1    6    6    0    0 -0.83017865104E+01  0.25695140899E+02  0.28312155251E+01  0.27150979843E+02  0.00000000000E+00 0. -1.
         -5    1    3    3    0  503 -0.30030736221E+01  0.81487087801E+02 -0.97898561634E+02  0.12749659721E+03  0.47000000000E+01 0.  1.
         13    1    4    4    0    0 -0.10043107052E+02 -0.40736246914E+01 -0.10543413889E+02  0.15120251116E+02  0.00000000000E+00 0. -1.
        -14    1    4    4    0    0  0.92481269820E+02  0.45305579600E+02 -0.41622083222E+03  0.42877168981E+03  0.00000000000E+00 0.  1.
</event>
<event>
12    1  0.8052519E-002  0.1738864E+03  0.7818608E-02  0.1173925E+00
         21   -1    0    0  503  502  0.00000000000E+00  0.00000000000E+00  0.11481108987E+03  0.11481108987E+03  0.00000000000E+00 0.  1.
         21   -1    0    0  501  503 -0.00000000000E+00 -0.00000000000E+00 -0.69037972279E+03  0.69037972279E+03  0.00000000000E+00 0.  1.
          6    2    1    2  501    0 -0.15592528302E+02  0.11694208519E+02 -0.60448070336E+03  0.62891721569E+03  0.17251104893E+03 0.  0.
         24    2    3    3    0    0  0.34854414237E+02 -0.43779925022E+02 -0.34032511163E+03  0.35428557121E+03  0.81028219402E+02 0.  0.
         -6    2    1    2    0  502  0.15592528302E+02 -0.11694208519E+02  0.28912070451E+02  0.17627359697E+03  0.17279060078E+03 0.  0.
        -24    2    5    5    0    0  0.32015385345E+02  0.46875320532E+02  0.14718537245E+02  0.11363458076E+03  0.97333971622E+02 0.  0.
          5    1    3    3  501    0 -0.50446942539E+02  0.55474133541E+02 -0.26415559174E+03  0.27463164448E+03  0.47000000000E+01 0. -1.
        -11    1    4    4    0    0  0.20314704822E+02 -0.61819749011E+01 -0.13896904881E+02  0.25377706969E+02  0.00000000000E+00 0.  1.
         12    1    4    4    0    0  0.14539709415E+02 -0.37597950121E+02 -0.32642820675E+03  0.32890786425E+03  0.00000000000E+00 0. -1.
         -5    1    5    5    0  502 -0.16422857044E+02 -0.58569529050E+02  0.14193533205E+02  0.62639016208E+02  0.47000000000E+01 0.  1.
         13    1    6    6    0    0 -0.26710688383E+02  0.25651242673E+02 -0.20103470802E+02  0.42137829357E+02  0.00000000000E+00 0. -1.
        -14    1    6    6    0    0  0.58726073729E+02  0.21224077859E+02  0.34822008047E+02  0.71496751402E+02  0.00000000000E+00 0.  1.
</event>
<event>
12    1  0.8052519E-002  0.1791099E+03  0.7818608E-02  0.1168828E+00
         21   -1    0    0  501  502  0.00000000000E+00  0.00000000000E+00  0.81701404743E+02  0.81701404743E+02  0.00000000000E+00 0. -1.
         21   -1    0    0  502  503 -0.00000000000E+00 -0.00000000000E+00 -0.39469200190E+03  0.39469200190E+03  0.00000000000E+00 0. -1.
         -6    2    1    2    0  503  0.43894832898E+02  0.25279830352E+02 -0.17857057013E+03  0.25245348871E+03  0.17111250471E+03 0.  0.
        -24    2    3    3    0    0 -0.19828511151E+02 -0.30782043167E+02 -0.57073645563E+02  0.10417270466E+03  0.79081270489E+02 0.  0.
          6    2    1    2  501    0 -0.43894832898E+02 -0.25279830352E+02 -0.13442002703E+03  0.22393991794E+03  0.17179789580E+03 0.  0.
         24    2    5    5    0    0 -0.43586292064E+02  0.36368173810E+02 -0.12911512391E+03  0.16188507436E+03  0.79458499581E+02 0.  0.
          5    1    5    5  501    0 -0.30854083357E+00 -0.61648004163E+02 -0.53049031236E+01  0.62054843581E+02  0.47000000000E+01 0. -1.
        -13    1    6    6    0    0 -0.35307804185E+01 -0.85912817173E+01  0.79182941720E+01  0.12205568996E+02  0.00000000000E+00 0.  1.
         14    1    6    6    0    0 -0.40055511645E+02  0.44959455528E+02 -0.13703341808E+03  0.14967950536E+03  0.00000000000E+00 0. -1.
         -5    1    3    3    0  503  0.63723344048E+02  0.56061873520E+02 -0.12149692456E+03  0.14828078405E+03  0.47000000000E+01 0.  1.
         13    1    4    4    0    0 -0.21887062040E+02 -0.17603855787E+02  0.14331151695E+02  0.31532857978E+02  0.00000000000E+00 0. -1.
        -14    1    4    4    0    0  0.20585508890E+01 -0.13178187380E+02 -0.71404797259E+02  0.72639846681E+02  0.00000000000E+00 0.  1.
</event>
<event>
12    1  0.8052519E-002  0.1959751E+03  0.7818608E-02  0.1153815E+00
         21   -1    0    0  501  502  0.00000000000E+00  0.00000000000E+00  0.16350108910E+03  0.16350108910E+03  0.00000000000E+00 0. -1.
         21   -1    0    0  502  503 -0.00000000000E+00 -0.00000000000E+00 -0.27639773070E+03  0.27639773070E+03  0.00000000000E+00 0.  1.
         -6    2    1    2    0  503  0.72704494180E+02  0.59012357007E+02  0.32621889632E+02  0.19580478299E+03  0.16883993486E+03 0.  0.
        -24    2    3    3    0    0  0.10478773377E+03  0.81497715582E+02  0.31424501451E+02  0.15632758258E+03  0.76344397244E+02 0.  0.
          6    2    1    2  501    0 -0.72704494180E+02 -0.59012357007E+02 -0.14551853123E+03  0.24409403682E+03  0.17215648150E+03 0.  0.
         24    2    5    5    0    0 -0.68968163476E+02  0.13397843370E+02 -0.36133496658E+02  0.11277620454E+03  0.80478151994E+02 0.  0.
          5    1    5    5  501    0 -0.37363307039E+01 -0.72410200377E+02 -0.10938503458E+03  0.13131783228E+03  0.47000000000E+01 0. -1.
        -11    1    6    6    0    0 -0.50191486501E+02 -0.18336013958E+02 -0.50194314878E+02  0.73313463778E+02  0.00000000000E+00 0.  1.
         12    1    6    6    0    0 -0.18776676975E+02  0.31733857327E+02  0.14060818220E+02  0.39462740758E+02  0.00000000000E+00 0. -1.
         -5    1    3    3    0  503 -0.32083239594E+02 -0.22485358575E+02  0.11973881810E+01  0.39477200402E+02  0.47000000000E+01 0.  1.
         11    1    4    4    0    0  0.51541863612E+02  0.57342699196E+02  0.53483371499E+02  0.93836133140E+02  0.00000000000E+00 0. -1.
        -12    1    4    4    0    0  0.53245870162E+02  0.24155016386E+02 -0.22058870048E+02  0.62491449445E+02  0.00000000000E+00 0.  1.
</event>
<event>
12    1  0.8052519E-002  0.1849704E+03  0.7818608E-02  0.1163451E+00
         21   -1    0    0  501  502  0.00000000000E+00  0.00000000000E+00  0.94712454679E+03  0.94712454679E+03  0.00000000000E+00 0. -1.
         21   -1    0    0  502  503 -0.00000000000E+00 -0.00000000000E+00 -0.36307167256E+02  0.36307167256E+02  0.00000000000E+00 0.  1.
         -6    2    1    2    0  503 -0.46820324992E+02 -0.44889242248E+02  0.39616632083E+03  0.43654985554E+03  0.17152502941E+03 0.  0.
        -24    2    3    3    0    0  0.24369161897E+02  0.11126012040E+02  0.25869590349E+03  0.27185056168E+03  0.79129723906E+02 0.  0.
          6    2    1    2  501    0  0.46820324992E+02  0.44889242248E+02  0.51465105871E+03  0.54688185851E+03  0.17322490592E+03 0.  0.
         24    2    5    5    0    0  0.69364816347E+02 -0.15619085315E+02  0.38803013235E+03  0.40466912776E+03  0.90190275399E+02 0.  0.
          5    1    5    5  501    0 -0.22544491355E+02  0.60508327563E+02  0.12662092636E+03  0.14221273075E+03  0.47000000000E+01 0. -1.
        -11    1    6    6    0    0  0.39930272665E+02  0.16463054607E+02  0.60938269108E+02  0.74692245140E+02  0.00000000000E+00 0.  1.
         12    1    6    6    0    0  0.29434543682E+02 -0.32082139923E+02  0.32709186325E+03  0.32997688262E+03  0.00000000000E+00 0. -1.
         -5    1    3    3    0  503 -0.71189486889E+02 -0.56015254288E+02  0.13747041734E+03  0.16469929386E+03  0.47000000000E+01 0.  1.
         13    1    4    4    0    0 -0.15210623804E+02  0.16069523035E+02  0.19792988060E+03  0.19916282354E+03  0.00000000000E+00 0. -1.
        -14    1    4    4    0    0  0.39579785702E+02 -0.49435109949E+01  0.60766022894E+02  0.72687738137E+02  0.00000000000E+00 0.  1.
</event>
<event>
12    1  0.8052519E-002  0.2252301E+03  0.7818608E-02  0.1130238E+00
         21   -1    0    0  503  502  0.00000000000E+00  0.00000000000E+00  0.10751446564E+03  0.10751446564E+03  0.00000000000E+00 0.  1.
         21   -1    0    0  501  503 -0.00000000000E+00 -0.00000000000E+00 -0.97782433551E+03  0.97782433551E+03  0.00000000000E+00 0.  1.
          6    2    1    2  501    0  0.14237563895E+03  0.25102858969E+02 -0.82689332469E+03  0.85701876885E+03  0.17270675622E+03 0.  0.
         24    2    3    3    0    0  0.37074407579E+02  0.59933148152E+02 -0.29111069337E+03  0.30985643791E+03  0.79366758625E+02 0.  0.
         -6    2    1    2    0  502 -0.14237563895E+03 -0.25102858969E+02 -0.43416545182E+02  0.22832003230E+03  0.17130109356E+03 0.  0.
        -24    2    5    5    0    0 -0.73544476981E+02 -0.23866653283E+02  0.41986953993E+02  0.11852429133E+03  0.79414709572E+02 0.  0.
          5    1    3    3  501    0  0.10530123137E+03 -0.34830289182E+02 -0.53578263133E+03  0.54716233094E+03  0.47000000000E+01 0. -1.
        -11    1    4    4    0    0 -0.57463170179E+01  0.17383047821E+02 -0.19828376203E+03  0.19912719753E+03  0.00000000000E+00 0.  1.
         12    1    4    4    0    0  0.42820724597E+02  0.42550100331E+02 -0.92826931335E+02  0.11072924038E+03  0.00000000000E+00 0. -1.
         -5    1    5    5    0  502 -0.68831161972E+02 -0.12362056861E+01 -0.85403499175E+02  0.10979574097E+03  0.47000000000E+01 0.  1.
         11    1    6    6    0    0  0.26378371500E+01 -0.72617631945E+01  0.39778741947E+02  0.40522089043E+02  0.00000000000E+00 0. -1.
        -12    1    6    6    0    0 -0.76182314131E+02 -0.16604890089E+02  0.22082120464E+01  0.78002202287E+02  0.00000000000E+00 0.  1.
</event>
<event>
12    1  0.8052519E-002  0.2134274E+03  0.7818608E-02  0.1139734E+00
         21   -1    0    0  501  502  0.00000000000E+00  0.00000000000E+00  0.29171807141E+03  0.29171807141E+03  0.00000000000E+00 0.  1.
         21   -1    0    0  502  503 -0.00000000000E+00 -0.00000000000E+00 -0.30634038245E+03  0.30634038245E+03  0.00000000000E+00 0.  1.
         -6    2    1    2    0  503  0.43968314689E+02  0.11215716583E+03 -0.21892151807E+03  0.30574154484E+03  0.17617837162E+03 0.  0.
        -24    2    3    3    0    0  0.53637360162E+02  0.18756841079E+02 -0.68204738825E+02  0.12810498146E+03  0.92359159721E+02 0.  0.
          6    2    1    2  501    0 -0.43968314689E+02 -0.11215716583E+03  0.20429920703E+03  0.29231690901E+03  0.17087588115E+03 0.  0.
         24    2    5    5    0    0  0.27756928507E+02 -0.15565210476E+02  0.11201654619E+03  0.14061754896E+03  0.78821733016E+02 0.  0.
          5    1    5    5  501    0 -0.71725243195E+02 -0.96591955355E+02  0.92282660832E+02  0.15169936005E+03  0.47000000000E+01 0. -1.
        -11    1    6    6    0    0 -0.27903995048E+02 -0.49767061957E+01  0.37407010770E+02  0.46932771056E+02  0.00000000000E+00 0.  1.
         12    1    6    6    0    0  0.55660923555E+02 -0.10588504281E+02  0.74609535424E+02  0.93684777900E+02  0.00000000000E+00 0. -1.
         -5    1    3    3    0  503 -0.96690454736E+01  0.93400324753E+02 -0.15071677924E+03  0.17763656338E+03  0.47000000000E+01 0.  1.
         11    1    4    4    0    0  0.25503078211E+02  0.20974185148E+02  0.17853410602E+02  0.37537550679E+02  0.00000000000E+00 0. -1.
        -12    1    4    4    0    0  0.28134281951E+02 -0.22173440699E+01 -0.86058149427E+02  0.90567430782E+02  0.00000000000E+00 0.  1.
</event>
<event>
12    1  0.8052519E-002  0.3344667E+03  0.7818608E-02  0.1069676E+00
         21   -1    0    0  503  502  0.00000000000E+00  0.00000000000E+00  0.12303765009E+04  0.12303765009E+04  0.00000000000E+00 0.  1.
         21   -1    0    0  501  503 -0.00000000000E+00 -0.00000000000E+00 -0.96760052972E+02  0.96760052972E+02  0.00000000000E+00 0. -1.
          6    2    1    2  501    0 -0.18522482598E+03  0.22137454939E+03  0.38384168701E+03  0.50614313496E+03  0.15978581009E+03 0.  0.
         24    2    3    3    0    0 -0.14549934332E+03  0.20611366628E+03  0.38075233940E+03  0.46321712193E+03  0.77102890725E+02 0.  0.
         -6    2    1    2    0  502  0.18522482598E+03 -0.22137454939E+03  0.74977476095E+03  0.82099341894E+03  0.16897655017E+03 0.  0.
        -24    2    5    5    0    0  0.36154820294E+02 -0.57823911703E+02  0.14000258834E+03  0.17229096775E+03  0.73706695984E+02 0.  0.
          5    1    3    3  501    0 -0.39725482666E+02  0.15260883103E+02  0.30893476122E+01  0.42926013032E+02  0.47000000000E+01 0. -1.
        -13    1    4    4    0    0 -0.44263660644E+02  0.12701619269E+03  0.21311350924E+03  0.25201141379E+03  0.00000000000E+00 0.  1.
         14    1    4    4    0    0 -0.10123568268E+03  0.79097473599E+02  0.16763883016E+03  0.21120570814E+03  0.00000000000E+00 0. -1.
         -5    1    5    5    0  502  0.14907000569E+03 -0.16355063768E+03  0.60977217261E+03  0.64870245119E+03  0.47000000000E+01 0.  1.
         11    1    6    6    0    0 -0.12351797828E+02  0.40173565617E+01  0.55034144918E+02  0.56546115430E+02  0.00000000000E+00 0. -1.
        -12    1    6    6    0    0  0.48506618122E+02 -0.61841268264E+02  0.84968443420E+02  0.11574485232E+03  0.00000000000E+00 0.  1.
</event>
<event>
12    1  0.8052519E-002  0.2136806E+03  0.7818608E-02  0.1138998E+00
         21   -1    0    0  503  502  0.00000000000E+00  0.00000000000E+00  0.67521164071E+03  0.67521164071E+03  0.00000000000E+00 0.  1.
         21   -1    0    0  501  503 -0.00000000000E+00 -0.00000000000E+00 -0.67427229202E+02  0.67427229202E+02  0.00000000000E+00 0.  1.
          6    2    1    2  501    0 -0.93300745878E+01 -0.12390178899E+03  0.27964367661E+03  0.35193748459E+03  0.17384102964E+03 0.  0.
         24    2    3    3    0    0  0.48458043741E+02 -0.10602860851E+03  0.13460137411E+03  0.19471701292E+03  0.78784118835E+02 0.  0.
         -6    2    1    2    0  502  0.93300745878E+01  0.12390178899E+03  0.32814073491E+03  0.39070138532E+03  0.17185030399E+03 0.  0.
        -24    2    5    5    0    0 -0.57714863163E+02  0.43409065144E+02  0.16215300731E+03  0.19436463894E+03  0.79174886938E+02 0.  0.
          5    1    3    3  501    0 -0.57788118328E+02 -0.17873180477E+02  0.14504230249E+03  0.15722047167E+03  0.47000000000E+01 0. -1.
        -13    1    4    4    0    0 -0.44588195068E+01 -0.42125099277E+02  0.76315092401E+01  0.43042362781E+02  0.00000000000E+00 0.  1.
         14    1    4    4    0    0  0.52916863247E+02 -0.63903509237E+02  0.12696986487E+03  0.15167465014E+03  0.00000000000E+00 0. -1.
         -5    1    5    5    0  502  0.67044937751E+02  0.80492723847E+02  0.16598772759E+03  0.19633674639E+03  0.47000000000E+01 0.  1.
         13    1    6    6    0    0  0.30480409589E+01 -0.59093454432E+01  0.82260639112E+02  0.82528926228E+02  0.00000000000E+00 0. -1.
        -14    1    6    6    0    0 -0.60762904122E+02  0.49318410587E+02  0.79892368201E+02  0.11183571271E+03  0.00000000000E+00 0.  1.
</event>
<event>
12    1  0.8052519E-002  0.2182866E+03  0.7818608E-02  0.1136608E+00
         21   -1    0    0  501  502  0.00000000000E+00  0.00000000000E+00  0.20564845211E+03  0.20564845211E+03  0.00000000000E+00 0. -1.
         21   -1    0    0  502  503 -0.00000000000E+00 -0.00000000000E+00 -0.23596069408E+03  0.23596069408E+03  0.00000000000E+00 0. -1.
         -6    2    1    2    0  503 -0.47690681669E+02  0.11304904722E+03  0.34719470475E+02  0.22103045633E+03  0.18053956021E+03 0.  0.
        -24    2    3    3    0    0  0.11921729285E+02  0.12222615151E+03  0.58105737505E+02  0.15617009657E+03  0.77015989173E+02 0.  0.
          6    2    1    2  501    0  0.47690681669E+02 -0.11304904722E+03 -0.65031712450E+02  0.22057868986E+03  0.17138070662E+03 0.  0.
         24    2    5    5    0    0  0.73749004166E+02 -0.46184419186E+02 -0.88731438373E+02  0.14485761180E+03  0.74421390412E+02 0.  0.
          5    1    5    5  501    0 -0.26058322497E+02 -0.66864628034E+02  0.23699725923E+02  0.75721078058E+02  0.47000000000E+01 0. -1.
        -13    1    6    6    0    0  0.32345799059E+02 -0.16355136915E+02 -0.86491331945E+02  0.93778951380E+02  0.00000000000E+00 0.  1.
         14    1    6    6    0    0  0.41403205107E+02 -0.29829282272E+02 -0.22401064280E+01  0.51078660425E+02  0.00000000000E+00 0. -1.
         -5    1    3    3    0  503 -0.59612410954E+02 -0.91771042932E+01 -0.23386267030E+02  0.64860359763E+02  0.47000000000E+01 0.  1.
         13    1    4    4    0    0 -0.55430203269E+01  0.57983965857E+02 -0.12020739947E+02  0.59475739253E+02  0.00000000000E+00 0. -1.
        -14    1    4    4    0    0  0.17464749612E+02  0.64242185657E+02  0.70126477451E+02  0.96694357316E+02  0.00000000000E+00 0.  1.
</event>
<event>
12    1  0.8052519E-002  0.2268158E+03  0.7818608E-02  0.1128914E+00
         21   -1    0    0  503  502  0.00000000000E+00  0.00000000000E+00  0.10247976810E+04  0.10247976810E+04  0.00000000000E+00 0.  1.
         21   -1    0    0  501  503 -0.00000000000E+00 -0.00000000000E+00 -0.16798682060E+03  0.16798682060E+03  0.00000000000E+00 0. -1.
          6    2    1    2  501    0 -0.75449136020E+02 -0.12667101599E+03 -0.71038776477E+02  0.23761417581E+03  0.17226685799E+03 0.  0.
         24    2    3    3    0    0  0.24026188176E+02 -0.53890407108E+02 -0.49288282791E+02  0.11236430104E+03  0.81944906072E+02 0.  0.
         -6    2    1    2    0  502  0.75449136020E+02  0.12667101599E+03  0.92784963683E+03  0.95517032576E+03  0.17235801177E+03 0.  0.
        -24    2    5    5    0    0  0.37305933011E+02  0.81335859988E+02  0.27686544224E+03  0.30147873800E+03  0.78915788011E+02 0.  0.
          5    1    3    3  501    0 -0.99475324196E+02 -0.72780608885E+02 -0.21750493686E+02  0.12524987477E+03  0.47000000000E+01 0. -1.
        -11    1    4    4    0    0  0.12882174300E+02 -0.40671119048E+01  0.21315302253E+02  0.25235568630E+02  0.00000000000E+00 0.  1.
         12    1    4    4    0    0  0.11144013877E+02 -0.49823295203E+02 -0.70603585045E+02  0.87128732409E+02  0.00000000000E+00 0. -1.
         -5    1    5    5    0  502  0.38143203009E+02  0.45335156004E+02  0.65098419459E+03  0.65369158776E+03  0.47000000000E+01 0.  1.
         13    1    6    6    0    0  0.55901191759E+01  0.17995466822E+02  0.36042706281E+01  0.19185333599E+02  0.00000000000E+00 0. -1.
        -14    1    6    6    0    0  0.31715813835E+02  0.63340393166E+02  0.27326117162E+03  0.28229340440E+03  0.00000000000E+00 0.  1.
</event>
<event>
12    1  0.8052519E-002  0.1862280E+03  0.7818608E-02  0.1162107E+00
         21   -1    0    0  503  502  0.00000000000E+00  0.00000000000E+00  0.15646654266E+03  0.15646654266E+03  0.00000000000E+00 0. -1.
         21   -1    0    0  501  503 -0.00000000000E+00 -0.00000000000E+00 -0.64790084949E+03  0.64790084949E+03  0.00000000000E+00 0. -1.
          6    2    1    2  501    0  0.29601280552E+02  0.62572298171E+02 -0.57212731336E+03  0.60140870163E+03  0.17196288958E+03 0.  0.
         24    2    3    3    0    0  0.43510660538E+02 -0.24555075788E+02 -0.25498579524E+03  0.27218919634E+03  0.81074493552E+02 0.  0.
         -6    2    1    2    0  502 -0.29601280552E+02 -0.62572298171E+02  0.80693006535E+02  0.20295869051E+03  0.17288533900E+03 0.  0.
        -24    2    5    5    0    0  0.31983381803E+02 -0.38099628777E+02  0.96146625293E+02  0.13474955243E+03  0.80241821396E+02 0.  0.
          5    1    3    3  501    0 -0.13909379986E+02  0.87127373959E+02 -0.31714151812E+03  0.32921950529E+03  0.47000000000E+01 0. -1.
        -13    1    4    4    0    0  0.51924294039E+02 -0.13290094779E+02 -0.77967372201E+02  0.94613265765E+02  0.00000000000E+00 0.  1.
         14    1    4    4    0    0 -0.84136335015E+01 -0.11264981009E+02 -0.17701842304E+03  0.17757593058E+03  0.00000000000E+00 0. -1.
         -5    1    5    5    0  502 -0.61584662354E+02 -0.24472669394E+02 -0.15453618758E+02  0.68209138078E+02  0.47000000000E+01 0.  1.
         13    1    6    6    0    0  0.55662835858E+02 -0.31295284425E+02  0.45440409361E+02  0.78374593625E+02  0.00000000000E+00 0. -1.
        -14    1    6    6    0    0 -0.23679454055E+02 -0.68043443524E+01  0.50706215932E+02  0.56374958808E+02  0.00000000000E+00 0.  1.
</event>
<event>
12    1  0.8052519E-002  0.1762317E+03  0.7818608E-02  0.1171674E+00
         21   -1    0    0  503  502  0.00000000000E+00  0.00000000000E+00  0.42260408075E+02  0.42260408075E+02  0.00000000000E+00 0.  1.
         21   -1    0    0  501  503 -0.00000000000E+00 -0.00000000000E+00 -0.11995062196E+04  0.11995062196E+04  0.00000000000E+00 0.  1.
          6    2    1    2  501    0  0.22822735932E+02 -0.28964522145E+02 -0.96692647264E+03  0.98285523987E+03  0.17233049128E+03 0.  0.
         24    2    3    3    0    0  0.20994617888E+02 -0.74684671223E+02 -0.41430534727E+03  0.42832311974E+03  0.76113073993E+02 0.  0.
         -6    2    1    2    0  502 -0.22822735932E+02  0.28964522145E+02 -0.19031933886E+03  0.25891138778E+03  0.17162119671E+03 0.  0.
        -24    2    5    5    0    0 -0.26533198300E+02 -0.43701686970E+02 -0.14158527829E+03  0.17121164926E+03  0.81567087454E+02 0.  0.
          5    1    3    3  501    0  0.18281180440E+01  0.45720149078E+02 -0.55262112537E+03  0.55453212012E+03  0.47000000000E+01 0. -1.
        -11    1    4    4    0    0  0.28667562077E+02  0.32635967532E+01 -0.14577760716E+03  0.14860548755E+03  0.00000000000E+00 0.  1.
         12    1    4    4    0    0 -0.76729441890E+01 -0.77948267976E+02 -0.26852774011E+03  0.27971763219E+03  0.00000000000E+00 0. -1.
         -5    1    5    5    0  502  0.37104623683E+01  0.72666209115E+02 -0.48734060570E+02  0.87699738528E+02  0.47000000000E+01 0.  1.
         11    1    6    6    0    0 -0.15046774047E+02 -0.36244957960E+02 -0.12190099374E+02  0.41093806218E+02  0.00000000000E+00 0. -1.
        -12    1    6    6    0    0 -0.11486424253E+02 -0.74567290107E+01 -0.12939517892E+03  0.13011784304E+03  0.00000000000E+00 0.  1.
</event>
<event>
12    1  0.8052519E-002  0.2159888E+03  0.7818608E-02  0.1137070E+00
         21   -1    0    0  501  502  0.00000000000E+00  0.00000000000E+00  0.72196820047E+03  0.72196820047E+03  0.00000000000E+00 0.  1.
         21   -1    0    0  502  503 -0.00000000000E+00 -0.00000000000E+00 -0.70398877566E+02  0.70398877566E+02  0.00000000000E+00 0.  1.
         -6    2    1    2    0  503 -0.79261259647E+02  0.10314787551E+03  0.21038814019E+03  0.30152002187E+03  0.17242193176E+03 0.  0.
        -24    2    3    3    0    0 -0.23481135059E+02  0.58056258096E+02  0.27546932722E+02  0.10505711593E+03  0.79726227166E+02 0.  0.
          6    2    1    2  501    0  0.79261259647E+02 -0.10314787551E+03  0.44118118271E+03  0.49084705616E+03  0.17137142430E+03 0.  0.
         24    2    5    5    0    0  0.11844562190E+03 -0.87096628848E+02  0.33548664637E+03  0.37688881041E+03  0.88762026866E+02 0.  0.
          5    1    5    5  501    0 -0.39184362250E+02 -0.16051246658E+02  0.10569453634E+03  0.11395824576E+03  0.47000000000E+01 0. -1.
        -13    1    6    6    0    0  0.16314018784E+02 -0.56547053813E+02  0.17132005964E+03  0.18114712071E+03  0.00000000000E+00 0.  1.
         14    1    6    6    0    0  0.10213160311E+03 -0.30549575036E+02  0.16416658673E+03  0.19574168970E+03  0.00000000000E+00 0. -1.
         -5    1    3    3    0  503 -0.55780124589E+02  0.45091617410E+02  0.18284120747E+03  0.19646290594E+03  0.47000000000E+01 0.  1.
         13    1    4    4    0    0  0.80962646099E+01  0.28663775985E+01  0.39444369153E+02  0.40368600162E+02  0.00000000000E+00 0. -1.
        -14    1    4    4    0    0 -0.31577399668E+02  0.55189880497E+02 -0.11897436430E+02  0.64688515771E+02  0.00000000000E+00 0.  1.
</event>
<event>
12    1  0.8052519E-002  0.2065493E+03  0.7818608E-02  0.1144663E+00
         21   -1    0    0  503  502  0.00000000000E+00  0.00000000000E+00  0.39779702407E+02  0.39779702407E+02  0.00000000000E+00 0. -1.
         21   -1    0    0  501  503 -0.00000000000E+00 -0.00000000000E+00 -0.20560328884E+04  0.20560328884E+04  0.00000000000E+00 0. -1.
          6    2    1    2  501    0  0.23081368582E+02 -0.10265048837E+03 -0.17381306114E+04  0.17503601432E+04  0.17774345722E+03 0.  0.
         24    2    3    3    0    0 -0.41993211840E+02 -0.32827693870E+02 -0.54541316581E+03  0.55382058328E+03  0.80003935527E+02 0.  0.
         -6    2    1    2    0  502 -0.23081368582E+02  0.10265048837E+03 -0.27812257464E+03  0.34545244757E+03  0.17582762771E+03 0.  0.
        -24    2    5    5    0    0  0.19223387538E+02  0.48465154787E+02 -0.48758289960E+02  0.10596172154E+03  0.78307762928E+02 0.  0.
          5    1    3    3  501    0  0.65074580422E+02 -0.69822794501E+02 -0.11927174455E+04  0.11965395600E+04  0.47000000000E+01 0. -1.
        -13    1    4    4    0    0 -0.13384893279E+02 -0.52665619266E+02 -0.22264277725E+03  0.22917816014E+03  0.00000000000E+00 0.  1.
         14    1    4    4    0    0 -0.28608318561E+02  0.19837925396E+02 -0.32277038855E+03  0.32464242314E+03  0.00000000000E+00 0. -1.
         -5    1    5    5    0  502 -0.42304756120E+02  0.54185333584E+02 -0.22936428468E+03  0.23949072603E+03  0.47000000000E+01 0.  1.
         13    1    6    6    0    0  0.57203242725E+01 -0.21727209879E+02 -0.93174989071E+01  0.24323024993E+02  0.00000000000E+00 0. -1.
        -14    1    6    6    0    0  0.13503063266E+02  0.70192364666E+02 -0.39440791053E+02  0.81638696547E+02  0.00000000000E+00 0.  1.
</event>
<event>
12    1  0.8052519E-002  0.4581317E+03  0.7818608E-02  0.1025552E+00
         21   -1    0    0  501  502  0.00000000000E+00  0.00000000000E+00  0.60482938590E+03  0.60482938590E+03  0.00000000000E+00 0.  1.
         21   -1    0    0  502  503 -0.00000000000E+00 -0.00000000000E+00 -0.37456365918E+03  0.37456365918E+03  0.00000000000E+00 0.  1.
         -6    2    1    2    0  503 -0.23152352197E+03 -0.35558156899E+03 -0.22867937979E+02  0.45870207888E+03  0.17275202214E+03 0.  0.
        -24    2    3    3    0    0 -0.48874840515E+02 -0.11217464469E+03  0.35117205162E+02  0.14887658210E+03  0.77195321436E+02 0.  0.
          6    2    1    2  501    0  0.23152352197E+03  0.35558156899E+03  0.25313366470E+03  0.52069096619E+03  0.16431992162E+03 0.  0.
         24    2    5    5    0    0  0.19131458471E+03  0.26060249221E+03  0.25077218348E+03  0.41741729939E+03  0.82677594024E+02 0.  0.
          5    1    5    5  501    0  0.40208937264E+02  0.94979076778E+02  0.23614812151E+01  0.10327366680E+03  0.47000000000E+01 0. -1.
        -11    1    6    6    0    0  0.63085572227E+02  0.30094417859E+02  0.50577358211E+02  0.86275909576E+02  0.00000000000E+00 0.  1.
         12    1    6    6    0    0  0.12822901248E+03  0.23050807435E+03  0.20019482527E+03  0.33114138981E+03  0.00000000000E+00 0. -1.
         -5    1    3    3    0  503 -0.18264868146E+03 -0.24340692430E+03 -0.57985143140E+02  0.30982549679E+03  0.47000000000E+01 0.  1.
         11    1    4    4    0    0  0.14225419110E+02 -0.15985097930E+02  0.25714865311E+02  0.33453552915E+02  0.00000000000E+00 0. -1.
        -12    1    4    4    0    0 -0.63100259625E+02 -0.96189546761E+02  0.94023398506E+01  0.11542302918E+03  0.00000000000E+00 0.  1.
</event>
<event>
12    1  0.8052519E-002  0.3685905E+03  0.7818608E-02  0.1055260E+00
         21   -1    0    0  503  502  0.00000000000E+00  0.00000000000E+00  0.23630209221E+03  0.23630209221E+03  0.00000000000E+00 0.  1.
         21   -1    0    0  501  503 -0.00000000000E+00 -0.00000000000E+00 -0.69853939876E+03  0.69853939876E+03  0.00000000000E+00 0. -1.
          6    2    1    2  501    0  0.15853921932E+03 -0.28478675312E+03 -0.42815390507E+03  0.56495552534E+03  0.17210694459E+03 0.  0.
         24    2    3    3    0    0  0.29031893235E+02 -0.18197537784E+03 -0.19885614774E+03  0.28221557784E+03  0.78383518151E+02 0.  0.
         -6    2    1    2    0  502 -0.15853921932E+03  0.28478675312E+03 -0.34083401478E+02  0.36988596562E+03  0.17151026352E+03 0.  0.
        -24    2    5    5    0    0 -0.16033066143E+03  0.29431827297E+03 -0.11675004238E+02  0.34502062021E+03  0.81078701602E+02 0.  0.
          5    1    3    3  501    0  0.12950732609E+03 -0.10281137528E+03 -0.22929775733E+03  0.28273994750E+03  0.47000000000E+01 0. -1.
        -11    1    4    4    0    0  0.23132974550E+02 -0.18865395638E+03 -0.18201973949E+03  0.26316655436E+03  0.00000000000E+00 0.  1.
         12    1    4    4    0    0  0.58989186845E+01  0.66785785380E+01 -0.16836408249E+02  0.19049023483E+02  0.00000000000E+00 0. -1.
         -5    1    5    5    0  502  0.17914421035E+01 -0.95315198478E+01 -0.22408397240E+02  0.24865345409E+02  0.47000000000E+01 0.  1.
         13    1    6    6    0    0 -0.81349243709E+02  0.74077965589E+02  0.73857640587E+01  0.11027145573E+03  0.00000000000E+00 0. -1.
        -14    1    6    6    0    0 -0.78981417717E+02  0.22024030738E+03 -0.19060768297E+02  0.23474916449E+03  0.00000000000E+00 0.  1.
</event>
<event>
12    1  0.8052519E-002  0.1809913E+03  0.7818608E-02  0.1168815E+00
         21   -1    0    0  501  502  0.00000000000E+00  0.00000000000E+00  0.90914997535E+02  0.90914997535E+02  0.00000000000E+00 0.  1.
         21   -1    0    0  502  503 -0.00000000000E+00 -0.00000000000E+00 -0.11022626890E+04  0.11022626890E+04  0.00000000000E+00 0. -1.
         -6    2    1    2    0  503 -0.82436420628E+01 -0.39465777419E+02 -0.10038339938E+04  0.10200198751E+04  0.17644362646E+03 0.  0.
        -24    2    3    3    0    0  0.60351495155E+01 -0.87781729362E+02 -0.51375362090E+03  0.52733419743E+03  0.79978233000E+02 0.  0.
          6    2    1    2  501    0  0.82436420628E+01  0.39465777419E+02 -0.75136976167E+01  0.17315781136E+03  0.16823099228E+03 0.  0.
         24    2    5    5    0    0 -0.19254413068E+02 -0.15390326412E+02  0.42110094803E+02  0.94101211780E+02  0.80462310459E+02 0.  0.
          5    1    5    5  501    0  0.27498055131E+02  0.54856103831E+02 -0.49623792419E+02  0.79056599583E+02  0.47000000000E+01 0. -1.
        -13    1    6    6    0    0  0.21420278232E+02 -0.32463126398E+02  0.27495880133E+02  0.47630938678E+02  0.00000000000E+00 0.  1.
         14    1    6    6    0    0 -0.40674691300E+02  0.17072799986E+02  0.14614214670E+02  0.46470273102E+02  0.00000000000E+00 0. -1.
         -5    1    3    3    0  503 -0.14278791578E+02  0.48315951943E+02 -0.49008037291E+03  0.49268567770E+03  0.47000000000E+01 0.  1.
         11    1    4    4    0    0  0.31832590301E+02 -0.65987373060E+02 -0.22536042145E+03  0.23697039217E+03  0.00000000000E+00 0. -1.
        -12    1    4    4    0    0 -0.25797440786E+02 -0.21794356302E+02 -0.28839319945E+03  0.29036380526E+03  0.00000000000E+00 0.  1.
</event>
<event>
12    1  0.8052519E-002  0.2906580E+03  0.7818608E-02  0.1090116E+00
         21   -1    0    0  503  502  0.00000000000E+00  0.00000000000E+00  0.20623295385E+04  0.20623295385E+04  0.00000000000E+00 0.  1.
         21   -1    0    0  501  503 -0.00000000000E+00 -0.00000000000E+00 -0.41713255808E+02  0.41713255808E+02  0.00000000000E+00 0. -1.
          6    2    1    2  501    0 -0.23090321678E+03 -0.35891471594E+02  0.85715314468E+03  0.90482282152E+03  0.17143025304E+03 0.  0.
         24    2    3    3    0    0 -0.23026143070E+03 -0.68371190592E+02  0.79857926349E+03  0.83767869599E+03  0.79257879548E+02 0.  0.
         -6    2    1    2    0  502  0.23090321678E+03  0.35891471594E+02  0.11634631380E+04  0.11992199728E+04  0.17285131289E+03 0.  0.
        -24    2    5    5    0    0  0.14766518579E+03  0.62918455691E+02  0.97485320868E+03  0.99124203377E+03  0.80363249614E+02 0.  0.
          5    1    3    3  501    0 -0.64178607912E+00  0.32479718998E+02  0.58573881192E+02  0.67144125532E+02  0.47000000000E+01 0. -1.
        -11    1    4    4    0    0 -0.21186489737E+03 -0.35095661865E+02  0.68882070814E+03  0.72152089934E+03  0.00000000000E+00 0.  1.
         12    1    4    4    0    0 -0.18396533324E+02 -0.33275528727E+02  0.10975855535E+03  0.11615779665E+03  0.00000000000E+00 0. -1.
         -5    1    5    5    0  502  0.83238030985E+02 -0.27026984098E+02  0.18860992930E+03  0.20797793898E+03  0.47000000000E+01 0.  1.
         13    1    6    6    0    0  0.29080751776E+02  0.48491917480E+02  0.22866933746E+03  0.23555640955E+03  0.00000000000E+00 0. -1.
        -14    1    6    6    0    0  0.11858443401E+03  0.14426538212E+02  0.74618387121E+03  0.75568562422E+03  0.00000000000E+00 0.  1.
</event>
<event>
12    1  0.8052519E-002  0.2044541E+03  0.7818608E-02  0.1146246E+00
         21   -1    0    0  501  502  0.00000000000E+00  0.00000000000E+00  0.39232714174E+03  0.39232714174E+03  0.00000000000E+00 0. -1.
         21   -1    0    0  502  503 -0.00000000000E+00 -0.00000000000E+00 -0.10658479532E+03  0.10658479532E+03  0.00000000000E+00 0. -1.
         -6    2    1    2    0  503 -0.10793863730E+03 -0.18188349017E+02  0.12494964055E+03  0.23961199443E+03  0.17268448030E+03 0.  0.
        -24    2    3    3    0    0 -0.94402343426E+02 -0.32493811254E+01  0.15862947816E+03  0.20007940693E+03  0.77110938352E+02 0.  0.
          6    2    1    2  501    0  0.10793863730E+03  0.18188349017E+02  0.16079270587E+03  0.25929994263E+03  0.17146603316E+03 0.  0.
         24    2    5    5    0    0  0.93771907741E+02  0.66634773644E+02  0.15317643266E+03  0.20803738414E+03  0.81136736053E+02 0.  0.
          5    1    5    5  501    0  0.14166729555E+02 -0.48446424627E+02  0.76162732018E+01  0.51262558490E+02  0.47000000000E+01 0. -1.
        -13    1    6    6    0    0  0.63280787941E+02 -0.38066566256E+01  0.79047126109E+02  0.10132816441E+03  0.00000000000E+00 0.  1.
         14    1    6    6    0    0  0.30491119800E+02  0.70441430270E+02  0.74129306555E+02  0.10670921973E+03  0.00000000000E+00 0. -1.
         -5    1    3    3    0  503 -0.13536293869E+02 -0.14938967892E+02 -0.33679837604E+02  0.39532587500E+02  0.47000000000E+01 0.  1.
         11    1    4    4    0    0 -0.50398616352E+02  0.19297664158E+02  0.28837083464E+02  0.61188215817E+02  0.00000000000E+00 0. -1.
        -12    1    4    4    0    0 -0.44003727074E+02 -0.22547045284E+02  0.12979239470E+03  0.13889119111E+03  0.00000000000E+00 0.  1.
</event>
<event>
12    1  0.8052519E-002  0.3537758E+03  0.7818608E-02  0.1061084E+00
         21   -1    0    0  503  502  0.00000000000E+00  0.00000000000E+00  0.84943494795E+03  0.84943494795E+03  0.00000000000E+00 0.  1.
         21   -1    0    0  501  503 -0.00000000000E+00 -0.00000000000E+00 -0.16357297005E+03  0.16357297005E+03  0.00000000000E+00 0.  1.
          6    2    1    2  501    0  0.29794900251E+03 -0.82244111785E+02  0.18325707531E+03  0.39842247589E+03  0.17210349101E+03 0.  0.
         24    2    3    3    0    0  0.25816652626E+03 -0.12223896884E+03  0.14348987343E+03  0.32924332907E+03  0.78863839502E+02 0.  0.
         -6    2    1    2    0  502 -0.29794900251E+03  0.82244111785E+02  0.50260490259E+03  0.61458544211E+03  0.17194730450E+03 0.  0.
        -24    2    5    5    0    0 -0.64063674559E+02  0.73297966230E+01  0.20327728727E+03  0.22737282282E+03  0.78859778843E+02 0.  0.
          5    1    3    3  501    0  0.39782476256E+02  0.39994857055E+02  0.39767201882E+02  0.69179146811E+02  0.47000000000E+01 0. -1.
        -13    1    4    4    0    0  0.22964492890E+03 -0.79093296423E+02  0.13131501184E+03  0.27610899160E+03  0.00000000000E+00 0.  1.
         14    1    4    4    0    0  0.28521597355E+02 -0.43145672417E+02  0.12174861593E+02  0.53134337474E+02  0.00000000000E+00 0. -1.
         -5    1    5    5    0  502 -0.23388532795E+03  0.74914315162E+02  0.29932761532E+03  0.38721261929E+03  0.47000000000E+01 0.  1.
         13    1    6    6    0    0 -0.71298336119E+01 -0.31905651119E+02  0.62711865880E+02  0.70721872308E+02  0.00000000000E+00 0. -1.
        -14    1    6    6    0    0 -0.56933840947E+02  0.39235447742E+02  0.14056542139E+03  0.15665095051E+03  0.00000000000E+00 0.  1.
</event>
<event>
12    1  0.8052519E-002  0.2314968E+03  0.7818608E-02  0.1125747E+00
         21   -1    0    0  503  502  0.00000000000E+00  0.00000000000E+00  0.20386510200E+03  0.20386510200E+03  0.00000000000E+00 0. -1.
         21   -1    0    0  501  503 -0.00000000000E+00 -0.00000000000E+00 -0.26567681407E+03  0.26567681407E+03  0.00000000000E+00 0.  1.
          6    2    1    2  501    0  0.88433035400E+02  0.12810421172E+03 -0.58994640964E+02  0.23802797117E+03  0.17013481885E+03 0.  0.
         24    2    3    3    0    0  0.11163334710E+03  0.14264354370E+03 -0.67438119836E+02  0.20899300995E+03  0.79504675698E+02 0.  0.
         -6    2    1    2    0  502 -0.88433035400E+02 -0.12810421172E+03 -0.28170711058E+01  0.23151394491E+03  0.17134666611E+03 0.  0.
        -24    2    5    5    0    0 -0.23572262846E+02 -0.14242340285E+03 -0.53993587510E+01  0.16487523798E+03  0.79464544107E+02 0.  0.
          5    1    3    3  501    0 -0.23200311698E+02 -0.14539331982E+02  0.84434788714E+01  0.29034961216E+02  0.47000000000E+01 0. -1.
        -11    1    4    4    0    0  0.23160010213E+02  0.84103386459E+02 -0.52621106870E+02  0.10187613349E+03  0.00000000000E+00 0.  1.
         12    1    4    4    0    0  0.88473336885E+02  0.58540157246E+02 -0.14817012965E+02  0.10711687646E+03  0.00000000000E+00 0. -1.
         -5    1    5    5    0  502 -0.64860772554E+02  0.14319191129E+02  0.25822876452E+01  0.66638706923E+02  0.47000000000E+01 0.  1.
         11    1    6    6    0    0 -0.18019547841E+02 -0.10079826161E+03  0.33395239105E+02  0.10770439008E+03  0.00000000000E+00 0. -1.
        -12    1    6    6    0    0 -0.55527150046E+01 -0.41625141247E+02 -0.38794597856E+02  0.57170847908E+02  0.00000000000E+00 0.  1.
</event>
<event>
12    1  0.8052519E-002  0.4645524E+03  0.7818608E-02  0.1023520E+00
         21   -1    0    0  501  502  0.00000000000E+00  0.00000000000E+00  0.10012053085E+04  0.10012053085E+04  0.00000000000E+00 0. -1.
         21   -1    0    0  502  503 -0.00000000000E+00 -0.00000000000E+00 -0.32603455098E+03  0.32603455098E+03  0.00000000000E+00 0.  1.
         -6    2    1    2    0  503 -0.17223050953E+03 -0.39458851947E+03 -0.49466915728E+02  0.46647932781E+03  0.17260515467E+03 0.  0.
        -24    2    3    3    0    0 -0.88427237507E+02 -0.29606387894E+03 -0.89336767901E+02  0.33104746928E+03  0.78346487316E+02 0.  0.
          6    2    1    2  501    0  0.17223050953E+03  0.39458851947E+03  0.72463767328E+03  0.86076053169E+03  0.17448635269E+03 0.  0.
         24    2    5    5    0    0  0.81548957126E+02  0.19339346351E+03  0.24201168332E+03  0.33005107194E+03  0.79453074753E+02 0.  0.
          5    1    5    5  501    0  0.90681552399E+02  0.20119505596E+03  0.48262598996E+03  0.53070945976E+03  0.47000000000E+01 0. -1.
        -13    1    6    6    0    0  0.20797156101E+02  0.36826400398E+02  0.96966046608E+01  0.43390432242E+02  0.00000000000E+00 0.  1.
         14    1    6    6    0    0  0.60751801025E+02  0.15656706311E+03  0.23231507865E+03  0.28666063969E+03  0.00000000000E+00 0. -1.
         -5    1    3    3    0  503 -0.83803272019E+02 -0.98524640535E+02  0.39869852172E+02  0.13543185853E+03  0.47000000000E+01 0.  1.
         13    1    4    4    0    0 -0.39947929809E+02 -0.23646152638E+03 -0.50959731925E+02  0.24516685101E+03  0.00000000000E+00 0. -1.
        -14    1    4    4    0    0 -0.48479307697E+02 -0.59602352553E+02 -0.38377035975E+02  0.85880618273E+02  0.00000000000E+00 0.  1.
</event>
<event>
12    1  0.8052519E-002  0.2283000E+03  0.7818608E-02  0.1128043E+00
         21   -1    0    0  503  502  0.00000000000E+00  0.00000000000E+00  0.19512053036E+03  0.19512053036E+03  0.00000000000E+00 0.  1.
         21   -1    0    0  501  503 -0.00000000000E+00 -0.00000000000E+00 -0.61153334064E+03  0.61153334064E+03  0.00000000000E+00 0.  1.
          6    2    1    2  501    0  0.11110469992E+03  0.96947056856E+02 -0.51124305470E+03  0.55944211059E+03  0.17280922414E+03 0.  0.
         24    2    3    3    0    0  0.68711269153E+02  0.38828758176E+01 -0.37061548562E+03  0.38549859117E+03  0.80728002438E+02 0.  0.
         -6    2    1    2    0  502 -0.11110469992E+03 -0.96947056856E+02  0.94830244424E+02  0.24721176041E+03  0.17429255018E+03 0.  0.
        -24    2    5    5    0    0 -0.10842056065E+03 -0.10204622313E+03  0.12911729193E+03  0.21212760833E+03  0.78475458023E+02 0.  0.
          5    1    3    3  501    0  0.42393430769E+02  0.93064181038E+02 -0.14062756908E+03  0.17394351942E+03  0.47000000000E+01 0. -1.
        -11    1    4    4    0    0 -0.11410910941E+02  0.20506345492E+02 -0.64560567485E+02  0.68693420121E+02  0.00000000000E+00 0.  1.
         12    1    4    4    0    0  0.80122180094E+02 -0.16623469675E+02 -0.30605491814E+03  0.31680517105E+03  0.00000000000E+00 0. -1.
         -5    1    5    5    0  502 -0.26841392709E+01  0.50991662775E+01 -0.34287047509E+02  0.35084152081E+02  0.47000000000E+01 0.  1.
         13    1    6    6    0    0 -0.27042145420E+02  0.10666807881E+02  0.26500445454E+02  0.39336141505E+02  0.00000000000E+00 0. -1.
        -14    1    6    6    0    0 -0.81378415232E+02 -0.11271303101E+03  0.10261684648E+03  0.17279146682E+03  0.00000000000E+00 0.  1.
</event>
<event>
12    1  0.8052519E-002  0.1947994E+03  0.7818608E-02  0.1154594E+00
         21   -1    0    0  501  502  0.00000000000E+00  0.00000000000E+00  0.62567267935E+03  0.62567267935E+03  0.00000000000E+00 0. -1.
         21   -1    0    0  502  503 -0.00000000000E+00 -0.00000000000E+00 -0.60172916155E+02  0.60172916155E+02  0.00000000000E+00 0. -1.
         -6    2    1    2    0  503  0.59068164268E+02 -0.69207859345E+02  0.26914572913E+03  0.33120135649E+03  0.17022379153E+03 0.  0.
        -24    2    3    3    0    0  0.75963485867E+02 -0.52182156661E+02  0.27875206707E+03  0.30493925123E+03  0.82412398275E+02 0.  0.
          6    2    1    2  501    0 -0.59068164268E+02  0.69207859345E+02  0.29635403406E+03  0.35464423902E+03  0.17224414921E+03 0.  0.
         24    2    5    5    0    0 -0.86214211865E+02  0.22058519609E+02  0.11639820820E+03  0.16658531900E+03  0.79263213524E+02 0.  0.
          5    1    5    5  501    0  0.27146047597E+02  0.47149339736E+02  0.17995582586E+03  0.18805892002E+03  0.47000000000E+01 0. -1.
        -11    1    6    6    0    0 -0.55865977582E+01  0.36395067742E+02  0.29511942921E+02  0.47188619448E+02  0.00000000000E+00 0.  1.
         12    1    6    6    0    0 -0.80627614106E+02 -0.14336548133E+02  0.86886265281E+02  0.11939669955E+03  0.00000000000E+00 0. -1.
         -5    1    3    3    0  503 -0.16895321599E+02 -0.17025702683E+02 -0.96063379367E+01  0.26262105254E+02  0.47000000000E+01 0.  1.
         11    1    4    4    0    0  0.57572479202E+02 -0.22776618286E+02  0.70537301391E+02  0.93855610326E+02  0.00000000000E+00 0. -1.
        -12    1    4    4    0    0  0.18391006665E+02 -0.29405538375E+02  0.20821476567E+03  0.21108364091E+03  0.00000000000E+00 0.  1.
</event>
<event>
12    1  0.8052519E-002  0.2115799E+03  0.7818608E-02  0.1140485E+00
         21   -1    0    0  501  502  0.00000000000E+00  0.00000000000E+00  0.46226787864E+03  0.46226787864E+03  0.00000000000E+00 0.  1.
         21   -1    0    0  502  503 -0.00000000000E+00 -0.00000000000E+00 -0.10843455893E+03  0.10843455893E+03  0.00000000000E+00 0.  1.
         -6    2    1    2    0  503 -0.63835645792E+01 -0.12220309677E+03  0.82393147367E+02  0.22705653221E+03  0.17260269792E+03 0.  0.
        -24    2    3    3    0    0 -0.29825686334E+02 -0.52186211899E+02 -0.20454588378E+02  0.10036144948E+03  0.77724243833E+02 0.  0.
          6    2    1    2  501    0  0.63835645792E+01  0.12220309677E+03  0.27144017234E+03  0.34364590536E+03  0.17157620567E+03 0.  0.
         24    2    5    5    0    0  0.22468307106E+02  0.10573020112E+03  0.28438262685E+03  0.31681919550E+03  0.88415066211E+02 0.  0.
          5    1    5    5  501    0 -0.16084742527E+02  0.16472895650E+02 -0.12942454503E+02  0.26826709859E+02  0.47000000000E+01 0. -1.
        -13    1    6    6    0    0  0.65512810273E+01  0.10656195384E+03  0.28089935690E+03  0.30050427284E+03  0.00000000000E+00 0.  1.
         14    1    6    6    0    0  0.15917026079E+02 -0.83175272549E+00  0.34832699456E+01  0.16314922657E+02  0.00000000000E+00 0. -1.
         -5    1    3    3    0  503  0.23442121755E+02 -0.70016884870E+02  0.10284773575E+03  0.12669508273E+03  0.47000000000E+01 0.  1.
         11    1    4    4    0    0 -0.66980339801E+01  0.18181030696E+02  0.80691130547E+01  0.20988666510E+02  0.00000000000E+00 0. -1.
        -12    1    4    4    0    0 -0.23127652354E+02 -0.70367242595E+02 -0.28523701433E+02  0.79372782975E+02  0.00000000000E+00 0.  1.
</event>
<event>
12    1  0.8052519E-002  0.2029931E+03  0.7818608E-02  0.1149083E+00
         21   -1    0    0  503  502  0.00000000000E+00  0.00000000000E+00  0.16323225167E+04  0.16323225167E+04  0.00000000000E+00 0.  1.
         21   -1    0    0  501  503 -0.00000000000E+00 -0.00000000000E+00 -0.36493693569E+02  0.36493693569E+02  0.00000000000E+00 0.  1.
          6    2    1    2  501    0  0.10265358016E+03  0.15218887948E+02  0.30155360344E+03  0.35871905678E+03  0.16424193701E+03 0.  0.
         24    2    3    3    0    0  0.12100383736E+03  0.16249343179E+02  0.16402170229E+03  0.21988495573E+03  0.80872152971E+02 0.  0.
         -6    2    1    2    0  502 -0.10265358016E+03 -0.15218887948E+02  0.12942752197E+04  0.13100971535E+04  0.17446155801E+03 0.  0.
        -24    2    5    5    0    0 -0.11357823854E+03 -0.32764727380E+02  0.12694041390E+04  0.12774189452E+04  0.80241821080E+02 0.  0.
          5    1    3    3  501    0 -0.18350257196E+02 -0.10304552314E+01  0.13753190116E+03  0.13883410105E+03  0.47000000000E+01 0. -1.
        -13    1    4    4    0    0  0.36812513816E+02 -0.29944379263E+02  0.76106418171E+02  0.89688426844E+02  0.00000000000E+00 0.  1.
         14    1    4    4    0    0  0.84191323544E+02  0.46193722442E+02  0.87915284115E+02  0.13019652889E+03  0.00000000000E+00 0. -1.
         -5    1    5    5    0  502  0.10924658377E+02  0.17545839432E+02  0.24871080700E+02  0.32678208292E+02  0.47000000000E+01 0.  1.
         11    1    6    6    0    0 -0.38881875398E+02 -0.96532950141E+01  0.14906610440E+03  0.15435572494E+03  0.00000000000E+00 0. -1.
        -12    1    6    6    0    0 -0.74696363143E+02 -0.23111432366E+02  0.11203380346E+04  0.11230632203E+04  0.00000000000E+00 0.  1.
</event>
<event>
12    1  0.8052519E-002  0.2672518E+03  0.7818608E-02  0.1103005E+00
         21   -1    0    0  503  502  0.00000000000E+00  0.00000000000E+00  0.85124864487E+03  0.85124864487E+03  0.00000000000E+00 0. -1.
         21   -1    0    0  501  503 -0.00000000000E+00 -0.00000000000E+00 -0.88524530535E+02  0.88524530535E+02  0.00000000000E+00 0.  1.
          6    2    1    2  501    0  0.16635324785E+02  0.20353850733E+03  0.49155150932E+03  0.55903952655E+03  0.17087319256E+03 0.  0.
         24    2    3    3    0    0  0.30504131001E+02  0.21580929840E+03  0.37530393272E+03  0.44123245900E+03  0.79554293893E+02 0.  0.
         -6    2    1    2    0  502 -0.16635324785E+02 -0.20353850733E+03  0.27117260502E+03  0.38073364886E+03  0.17239162296E+03 0.  0.
        -24    2    5    5    0    0 -0.30084228467E+02 -0.14432123786E+03  0.27228043855E+03  0.31981669467E+03  0.80077465437E+02 0.  0.
          5    1    3    3  501    0 -0.13868806215E+02 -0.12270791072E+02  0.11624757660E+03  0.11780706755E+03  0.47000000000E+01 0. -1.
        -13    1    4    4    0    0  0.20990567583E+02  0.16708045231E+03  0.34269402778E+03  0.38183200252E+03  0.00000000000E+00 0.  1.
         14    1    4    4    0    0  0.95135634173E+01  0.48728846087E+02  0.32609904939E+02  0.59400456480E+02  0.00000000000E+00 0. -1.
         -5    1    5    5    0  502  0.13448903682E+02 -0.59217269462E+02 -0.11078335297E+01  0.60916954191E+02  0.47000000000E+01 0.  1.
         13    1    6    6    0    0 -0.56869195687E+02 -0.10816378662E+03  0.18691158468E+03  0.22331468971E+03  0.00000000000E+00 0. -1.
        -14    1    6    6    0    0  0.26784967219E+02 -0.36157451244E+02  0.85368853871E+02  0.96502004956E+02  0.00000000000E+00 0.  1.
</event>
<event>
12    1  0.8052519E-002  0.1814563E+03  0.7818608E-02  0.1166964E+00
         21   -1    0    0  503  502  0.00000000000E+00  0.00000000000E+00  0.15693458069E+03  0.15693458069E+03  0.00000000000E+00 0.  1.
         21   -1    0    0  501  503 -0.00000000000E+00 -0.00000000000E+00 -0.49756328012E+03  0.49756328012E+03  0.00000000000E+00 0.  1.
          6    2    1    2  501    0 -0.48764576826E+02  0.13576329705E+02 -0.42079641456E+03  0.45825322645E+03  0.17425296659E+03 0.  0.
         24    2    3    3    0    0 -0.48801757503E+02 -0.48545890792E+02 -0.17135846745E+03  0.20115295200E+03  0.79752559116E+02 0.  0.
         -6    2    1    2    0  502  0.48764576826E+02 -0.13576329705E+02  0.80167715133E+02  0.19624463435E+03  0.17182198136E+03 0.  0.
        -24    2    5    5    0    0  0.73275661555E+02  0.33983882831E+02  0.84666722274E+02  0.14234567187E+03  0.81053128073E+02 0.  0.
          5    1    3    3  501    0  0.37180676838E-01  0.62122220497E+02 -0.24943794712E+03  0.25710027445E+03  0.47000000000E+01 0. -1.
        -11    1    4    4    0    0  0.51189191228E+01 -0.88611396254E+01 -0.10957327138E+03  0.11005010190E+03  0.00000000000E+00 0.  1.
         12    1    4    4    0    0 -0.53920676626E+02 -0.39684751166E+02 -0.61785196067E+02  0.91102850098E+02  0.00000000000E+00 0. -1.
         -5    1    5    5    0  502 -0.24511084729E+02 -0.47560212536E+02 -0.44990071411E+01  0.53898962479E+02  0.47000000000E+01 0.  1.
         11    1    6    6    0    0  0.13987055113E+02  0.48558062935E+02  0.22839873028E+02  0.55454332442E+02  0.00000000000E+00 0. -1.
        -12    1    6    6    0    0  0.59288606442E+02 -0.14574180104E+02  0.61826849246E+02  0.86891339426E+02  0.00000000000E+00 0.  1.
</event>
<event>
12    1  0.8052519E-002  0.1935139E+03  0.7818608E-02  0.1156139E+00
         21   -1    0    0  501  502  0.00000000000E+00  0.00000000000E+00  0.54210805831E+02  0.54210805831E+02  0.00000000000E+00 0. -1.
         21   -1    0    0  502  503 -0.00000000000E+00 -0.00000000000E+00 -0.16693740716E+04  0.16693740716E+04  0.00000000000E+00 0. -1.
         -6    2    1    2    0  503 -0.28366247739E+02  0.84283807011E+02 -0.14686237816E+04  0.14808474747E+04  0.16776479683E+03 0.  0.
        -24    2    3    3    0    0 -0.72146557247E+02  0.90234193487E+02 -0.12446490271E+04  0.12525080272E+04  0.79232708530E+02 0.  0.
          6    2    1    2  501    0  0.28366247739E+02 -0.84283807011E+02 -0.14653948409E+03  0.24273740273E+03  0.17186978255E+03 0.  0.
         24    2    5    5    0    0  0.53247398002E+02 -0.75771267041E+01 -0.12766288878E+03  0.15978318468E+03  0.79625088344E+02 0.  0.
          5    1    5    5  501    0 -0.24881150263E+02 -0.76706680307E+02 -0.18876595312E+02  0.82954218052E+02  0.47000000000E+01 0. -1.
        -11    1    6    6    0    0 -0.14421262117E+02 -0.14564660542E+02 -0.61741118709E+02  0.65054345568E+02  0.00000000000E+00 0.  1.
         12    1    6    6    0    0  0.67668660119E+02  0.69875338381E+01 -0.65921770067E+02  0.94728839115E+02  0.00000000000E+00 0. -1.
         -5    1    3    3    0  503  0.43780309508E+02 -0.59503864762E+01 -0.22397475450E+03  0.22833944743E+03  0.47000000000E+01 0.  1.
         13    1    4    4    0    0 -0.19228429364E+02  0.55057289725E+02 -0.29344349734E+03  0.29918242558E+03  0.00000000000E+00 0. -1.
        -14    1    4    4    0    0 -0.52918127883E+02  0.35176903762E+02 -0.95120552981E+03  0.95332560165E+03  0.00000000000E+00 0.  1.
</event>
<event>
12    1  0.8052519E-002  0.1811832E+03  0.7818608E-02  0.1167551E+00
         21   -1    0    0  503  502  0.00000000000E+00  0.00000000000E+00  0.13480144296E+04  0.13480144296E+04  0.00000000000E+00 0. -1.
         21   -1    0    0  501  503 -0.00000000000E+00 -0.00000000000E+00 -0.29308875228E+02  0.29308875228E+02  0.00000000000E+00 0. -1.
          6    2    1    2  501    0 -0.21653389822E+02 -0.68634678088E+02  0.36798313672E+03  0.41016940025E+03  0.16627615483E+03 0.  0.
         24    2    3    3    0    0  0.46119263110E+02 -0.53708817324E+02  0.16906700535E+03  0.19944296355E+03  0.78627094083E+02 0.  0.
         -6    2    1    2    0  502  0.21653389822E+02  0.68634678088E+02  0.95072241765E+03  0.96715390457E+03  0.16227745188E+03 0.  0.
        -24    2    5    5    0    0  0.43400579798E+02  0.10178165761E+03  0.71997155133E+03  0.73297509505E+03  0.81549611197E+02 0.  0.
          5    1    3    3  501    0 -0.67772652933E+02 -0.14925860764E+02  0.19891613137E+03  0.21072643670E+03  0.47000000000E+01 0. -1.
        -13    1    4    4    0    0  0.57070113159E+02 -0.43270455695E+02  0.16981062750E+03  0.18429590165E+03  0.00000000000E+00 0.  1.
         14    1    4    4    0    0 -0.10950850049E+02 -0.10438361629E+02 -0.74362215456E+00  0.15147061900E+02  0.00000000000E+00 0. -1.
         -5    1    5    5    0  502 -0.21747189976E+02 -0.33146979524E+02  0.23075086632E+03  0.23417880952E+03  0.47000000000E+01 0.  1.
         11    1    6    6    0    0  0.41714417982E+02  0.45152044863E+02  0.55810324259E+03  0.56147843165E+03  0.00000000000E+00 0. -1.
        -12    1    6    6    0    0  0.16861618169E+01  0.56629612750E+02  0.16186830874E+03  0.17149666340E+03  0.00000000000E+00 0.  1.
</event>
<event>
12    1  0.8052519E-002  0.2253484E+03  0.7818608E-02  0.1130163E+00
         21   -1    0    0  503  502  0.00000000000E+00  0.00000000000E+00  0.19170277645E+03  0.19170277645E+03  0.00000000000E+00 0. -1.
         21   -1    0    0  501  503 -0.00000000000E+00 -0.00000000000E+00 -0.41447467016E+03  0.41447467016E+03  0.00000000000E+00 0. -1.
          6    2    1    2  501    0  0.20838747583E+01  0.12577841879E+03 -0.29409025715E+03  0.36981287860E+03  0.18560154272E+03 0.  0.
         24    2    3    3    0    0 -0.70646200593E+02  0.78914366280E+02 -0.19559021184E+03  0.23862502778E+03  0.86417648946E+02 0.  0.
         -6    2    1    2    0  502 -0.20838747583E+01 -0.12577841879E+03  0.71318363442E+02  0.23636456801E+03  0.18696883933E+03 0.  0.
        -24    2    5    5    0    0  0.46792834570E+02 -0.21916107934E+02  0.75939886419E+02  0.12138734937E+03  0.79360803199E+02 0.  0.
          5    1    3    3  501    0  0.72730075351E+02  0.46864052510E+02 -0.98500045308E+02  0.13118785082E+03  0.47000000000E+01 0. -1.
        -13    1    4    4    0    0  0.12182171431E+02  0.36006867634E+02 -0.29437864699E+02  0.48077933563E+02  0.00000000000E+00 0.  1.
         14    1    4    4    0    0 -0.82828372024E+02  0.42907498646E+02 -0.16615234714E+03  0.19054709421E+03  0.00000000000E+00 0. -1.
         -5    1    5    5    0  502 -0.48876709328E+02 -0.10386231086E+03 -0.46215229769E+01  0.11497721864E+03  0.47000000000E+01 0.  1.
         11    1    6    6    0    0 -0.47597969978E+01 -0.26854837946E+02 -0.25060148173E+01  0.27388283971E+02  0.00000000000E+00 0. -1.
        -12    1    6    6    0    0  0.51552631567E+02  0.49387300128E+01  0.78445901236E+02  0.93999065402E+02  0.00000000000E+00 0.  1.
</event>
<event>
12    1  0.8052519E-002  0.2136730E+03  0.7818608E-02  0.1138807E+00
         21   -1    0    0  503  502  0.00000000000E+00  0.00000000000E+00  0.21188029628E+04  0.21188029628E+04  0.00000000000E+00 0.  1.
         21   -1    0    0  501  503 -0.00000000000E+00 -0.00000000000E+00 -0.52458287805E+02  0.52458287805E+02  0.00000000000E+00 0. -1.
          6    2    1    2  501    0 -0.63973590795E+02  0.10871998578E+03  0.19840736515E+03  0.29114264873E+03  0.17171459966E+03 0.  0.
         24    2    3    3    0    0  0.29425878339E+02  0.72127471219E+02  0.95766344243E+02  0.14754688929E+03  0.80812359380E+02 0.  0.
         -6    2    1    2    0  502  0.63973590795E+02 -0.10871998578E+03  0.18679373099E+04  0.18801186019E+04  0.17246306265E+03 0.  0.
        -24    2    5    5    0    0  0.60047228224E+02 -0.14474165327E+03  0.16062354852E+04  0.16158783478E+04  0.80712980151E+02 0.  0.
          5    1    3    3  501    0 -0.93399469135E+02  0.36592514560E+02  0.10264102090E+03  0.14359575944E+03  0.47000000000E+01 0. -1.
        -11    1    4    4    0    0 -0.16138737651E+02 -0.16274659103E+00  0.45796006261E+02  0.48556766046E+02  0.00000000000E+00 0.  1.
         12    1    4    4    0    0  0.45564615991E+02  0.72290217810E+02  0.49970337983E+02  0.98990123243E+02  0.00000000000E+00 0. -1.
         -5    1    5    5    0  502  0.39263625707E+01  0.36021667486E+02  0.26170182470E+03  0.26424025413E+03  0.47000000000E+01 0.  1.
         11    1    6    6    0    0  0.73319240084E+02 -0.10563418140E+03  0.99921998222E+03  0.10074596092E+04  0.00000000000E+00 0. -1.
        -12    1    6    6    0    0 -0.13272011860E+02 -0.39107471863E+02  0.60701550295E+03  0.60841873860E+03  0.00000000000E+00 0.  1.
</event>
<event>
12    1  0.8052519E-002  0.1832328E+03  0.7818608E-02  0.1164772E+00
         21   -1    0    0  503  502  0.00000000000E+00  0.00000000000E+00  0.32097030714E+03  0.32097030714E+03  0.00000000000E+00 0. -1.
         21   -1    0    0  501  503 -0.00000000000E+00 -0.00000000000E+00 -0.39477754328E+03  0.39477754328E+03  0.00000000000E+00 0. -1.
          6    2    1    2  501    0 -0.59724348849E+02 -0.48562635854E+01 -0.34380884434E+03  0.38958794157E+03  0.17315790951E+03 0.  0.
         24    2    3    3    0    0 -0.93450559963E+02  0.42666738004E+00 -0.33307288919E+03  0.35349476480E+03  0.72717329645E+02 0.  0.
         -6    2    1    2    0  502  0.59724348849E+02  0.48562635854E+01  0.27000160819E+03  0.32615990885E+03  0.17288388176E+03 0.  0.
        -24    2    5    5    0    0  0.96343827371E+02  0.88960558485E+01  0.26116667394E+03  0.28798331665E+03  0.73246748803E+02 0.  0.
          5    1    3    3  501    0  0.33726211115E+02 -0.52829309655E+01 -0.10735955153E+02  0.36093176763E+02  0.47000000000E+01 0. -1.
        -13    1    4    4    0    0 -0.31632723458E+02  0.32650420430E+02 -0.93184923525E+02  0.10368273299E+03  0.00000000000E+00 0.  1.
         14    1    4    4    0    0 -0.61817836506E+02 -0.32223753050E+02 -0.23988796566E+03  0.24981203182E+03  0.00000000000E+00 0. -1.
         -5    1    5    5    0  502 -0.36619478522E+02 -0.40397922631E+01  0.88349342539E+01  0.38176592201E+02  0.47000000000E+01 0.  1.
         13    1    6    6    0    0  0.13639544511E+02 -0.17120598733E+02  0.12252214724E+03  0.12446215746E+03  0.00000000000E+00 0. -1.
        -14    1    6    6    0    0  0.82704282859E+02  0.26016654581E+02  0.13864452670E+03  0.16352115919E+03  0.00000000000E+00 0.  1.
</event>
<event>
12    1  0.8052519E-002  0.2384934E+03  0.7818608E-02  0.1120861E+00
         21   -1    0    0  503  502  0.00000000000E+00  0.00000000000E+00  0.68438161594E+03  0.68438161594E+03  0.00000000000E+00 0. -1.
         21   -1    0    0  501  503 -0.00000000000E+00 -0.00000000000E+00 -0.86902297811E+02  0.86902297811E+02  0.00000000000E+00 0.  1.
          6    2    1    2  501    0 -0.16306080227E+03 -0.22248162350E+02  0.21665232636E+03  0.32194182718E+03  0.17211770276E+03 0.  0.
         24    2    3    3    0    0 -0.14744296027E+03  0.19273127033E+02  0.98222389284E+02  0.19538877721E+03  0.80114022139E+02 0.  0.
         -6    2    1    2    0  502  0.16306080227E+03  0.22248162350E+02  0.38082699177E+03  0.44934208658E+03  0.17261317198E+03 0.  0.
        -24    2    5    5    0    0  0.16515532103E+03  0.61684743544E+02  0.34571845962E+03  0.39629182763E+03  0.80278712419E+02 0.  0.
          5    1    3    3  501    0 -0.15617842002E+02 -0.41521289383E+02  0.11842993708E+03  0.12655304997E+03  0.47000000000E+01 0. -1.
        -11    1    4    4    0    0 -0.69595973001E+02  0.60154765359E-01  0.13130740772E+01  0.69608384840E+02  0.00000000000E+00 0.  1.
         12    1    4    4    0    0 -0.77846987269E+02  0.19212972268E+02  0.96909315207E+02  0.12578039237E+03  0.00000000000E+00 0. -1.
         -5    1    5    5    0  502 -0.20945187603E+01 -0.39436581194E+02  0.35108532148E+02  0.53050258950E+02  0.47000000000E+01 0.  1.
         11    1    6    6    0    0  0.49996582317E+02  0.44050833361E+02  0.19320512188E+03  0.20437307377E+03  0.00000000000E+00 0. -1.
        -12    1    6    6    0    0  0.11515873871E+03  0.17633910183E+02  0.15251333775E+03  0.19191875386E+03  0.00000000000E+00 0.  1.
</event>
<event>
12    1  0.8052519E-002  0.3816512E+03  0.7818608E-02  0.1050344E+00
         21   -1    0    0  501  502  0.00000000000E+00  0.00000000000E+00  0.51824901296E+03  0.51824901296E+03  0.00000000000E+00 0.  1.
         21   -1    0    0  502  503 -0.00000000000E+00 -0.00000000000E+00 -0.31957369070E+03  0.31957369070E+03  0.00000000000E+00 0. -1.
         -6    2    1    2    0  503 -0.25659049836E+03 -0.22397621088E+03 -0.46361206653E+02  0.38445679082E+03  0.17220231020E+03 0.  0.
        -24    2    3    3    0    0 -0.71090335850E+02 -0.14185405015E+03 -0.12412571946E+02  0.17871676221E+03  0.81296997229E+02 0.  0.
          6    2    1    2  501    0  0.25659049836E+03  0.22397621088E+03  0.24503652892E+03  0.45336591284E+03  0.17173736791E+03 0.  0.
         24    2    5    5    0    0  0.18894612126E+03  0.20457393798E+03  0.24996427791E+03  0.38266525756E+03  0.79996414166E+02 0.  0.
          5    1    5    5  501    0  0.67644377098E+02  0.19402272901E+02 -0.49277489868E+01  0.70700655278E+02  0.47000000000E+01 0. -1.
        -13    1    6    6    0    0  0.10967387002E+03  0.66075762418E+02  0.13445118047E+03  0.18566497805E+03  0.00000000000E+00 0.  1.
         14    1    6    6    0    0  0.79272251242E+02  0.13849817556E+03  0.11551309743E+03  0.19700027951E+03  0.00000000000E+00 0. -1.
         -5    1    3    3    0  503 -0.18550016251E+03 -0.82122160727E+02 -0.33948634707E+02  0.20574002861E+03  0.47000000000E+01 0.  1.
         11    1    4    4    0    0 -0.87074049739E+02 -0.97345881468E+02 -0.14304777216E+02  0.13138773698E+03  0.00000000000E+00 0. -1.
        -12    1    4    4    0    0  0.15983713888E+02 -0.44508168682E+02  0.18922052700E+01  0.47329025237E+02  0.00000000000E+00 0.  1.
</event>
<event>
12    1  0.8052519E-002  0.1837178E+03  0.7818608E-02  0.1165470E+00
         21   -1    0    0  501  502  0.00000000000E+00  0.00000000000E+00  0.22488234781E+03  0.22488234781E+03  0.00000000000E+00 0. -1.
         21   -1    0    0  502  503 -0.00000000000E+00 -0.00000000000E+00 -0.22786163560E+03  0.22786163560E+03  0.00000000000E+00 0. -1.
         -6    2    1    2    0  503  0.29827624569E+02  0.53644883064E+02 -0.13721176259E+03  0.22930177041E+03  0.17316111993E+03 0.  0.
        -24    2    3    3    0    0  0.18909494388E+01  0.89744383508E+02 -0.48398068713E+02  0.12933380569E+03  0.79543888384E+02 0.  0.
          6    2    1    2  501    0 -0.29827624569E+02 -0.53644883064E+02  0.13423247480E+03  0.22344221300E+03  0.16775161577E+03 0.  0.
         24    2    5    5    0    0 -0.78809385970E+02 -0.11932377286E+02  0.75997201405E+02  0.13653661390E+03  0.80705460585E+02 0.  0.
          5    1    5    5  501    0  0.48981761401E+02 -0.41712505778E+02  0.58235273397E+02  0.86905599105E+02  0.47000000000E+01 0. -1.
        -11    1    6    6    0    0 -0.26678868391E+02  0.18463377909E+02  0.68413701797E+02  0.75717190492E+02  0.00000000000E+00 0.  1.
         12    1    6    6    0    0 -0.52130517579E+02 -0.30395755195E+02  0.75834996084E+01  0.60819423405E+02  0.00000000000E+00 0. -1.
         -5    1    3    3    0  503  0.27936675130E+02 -0.36099500444E+02 -0.88813693875E+02  0.99967964715E+02  0.47000000000E+01 0.  1.
         11    1    4    4    0    0 -0.33922046053E+02  0.60111634558E+02 -0.45684003824E+02  0.82771625713E+02  0.00000000000E+00 0. -1.
        -12    1    4    4    0    0  0.35812995492E+02  0.29632748949E+02 -0.27140648888E+01  0.46562179981E+02  0.00000000000E+00 0.  1.
</event>
<event>
12    1  0.8052519E-002  0.1738361E+03  0.7818608E-02  0.1173938E+00
         21   -1    0    0  501  502  0.00000000000E+00  0.00000000000E+00  0.29578440055E+03  0.29578440055E+03  0.00000000000E+00 0. -1.
         21   -1    0    0  502  503 -0.00000000000E+00 -0.00000000000E+00 -0.11789720059E+03  0.11789720059E+03  0.00000000000E+00 0. -1.
         -6    2    1    2    0  503 -0.10248100598E+02 -0.27374062828E+02  0.13178358751E+02  0.17420721856E+03  0.17123119744E+03 0.  0.
        -24    2    3    3    0    0 -0.29020196876E+02 -0.23525319812E+02  0.70985479080E+02  0.11312565357E+03  0.79767554531E+02 0.  0.
          6    2    1    2  501    0  0.10248100598E+02  0.27374062828E+02  0.16470884121E+03  0.23947438257E+03  0.17136106517E+03 0.  0.
         24    2    5    5    0    0 -0.51463368053E+02  0.25200287509E+02  0.50357480042E+02  0.10943071890E+03  0.78458101557E+02 0.  0.
          5    1    5    5  501    0  0.61711468651E+02  0.21737753186E+01  0.11435136116E+03  0.13004366368E+03  0.47000000000E+01 0. -1.
        -11    1    6    6    0    0 -0.37596221137E+00 -0.11382009601E+02  0.44942845523E+02  0.46363248957E+02  0.00000000000E+00 0.  1.
         12    1    6    6    0    0 -0.51087405842E+02  0.36582297110E+02  0.54146345190E+01  0.63067469938E+02  0.00000000000E+00 0. -1.
         -5    1    3    3    0  503  0.18772096277E+02 -0.38487430158E+01 -0.57807120329E+02  0.61081564994E+02  0.47000000000E+01 0.  1.
         13    1    4    4    0    0 -0.14386245396E+01 -0.18135095448E+02 -0.14420778544E+02  0.23214439069E+02  0.00000000000E+00 0. -1.
        -14    1    4    4    0    0 -0.27581572336E+02 -0.53902243640E+01  0.85406257624E+02  0.89911214498E+02  0.00000000000E+00 0.  1.
</event>
<event>
12    1  0.8052519E-002  0.2382377E+03  0.7818608E-02  0.1120993E+00
         21   -1    0    0  503  502  0.00000000000E+00  0.00000000000E+00  0.49394488564E+03  0.49394488564E+03  0.00000000000E+00 0.  1.
         21   -1    0    0  501  503 -0.00000000000E+00 -0.00000000000E+00 -0.12113374471E+03  0.12113374471E+03  0.00000000000E+00 0. -1.
          6    2    1    2  501    0  0.62206366996E+01 -0.16552446588E+03  0.11638851040E+03  0.26514807990E+03  0.17123134583E+03 0.  0.
         24    2    3    3    0    0  0.40295581512E+02 -0.12743505263E+03  0.20345814863E+02  0.15625274193E+03  0.78342457505E+02 0.  0.
         -6    2    1    2    0  502 -0.62206366996E+01  0.16552446588E+03  0.25642263054E+03  0.34993055045E+03  0.17106074817E+03 0.  0.
        -24    2    5    5    0    0 -0.63972738322E+02  0.13733043701E+03  0.20751087602E+03  0.26903148843E+03  0.79781062449E+02 0.  0.
          5    1    3    3  501    0 -0.34074944813E+02 -0.38089413244E+02  0.96042695538E+02  0.10889533797E+03  0.47000000000E+01 0. -1.
        -11    1    4    4    0    0  0.13567038176E+02 -0.12564740055E+03  0.76521591902E+01  0.12660919924E+03  0.00000000000E+00 0.  1.
         12    1    4    4    0    0  0.26728543337E+02 -0.17876520784E+01  0.12693655673E+02  0.29643542690E+02  0.00000000000E+00 0. -1.
         -5    1    5    5    0  502  0.57752101622E+02  0.28194028867E+02  0.48911754520E+02  0.80899062020E+02  0.47000000000E+01 0.  1.
         13    1    6    6    0    0  0.16847767954E+02  0.29650225780E+02  0.25240096462E+02  0.42426944779E+02  0.00000000000E+00 0. -1.
        -14    1    6    6    0    0 -0.80820506276E+02  0.10768021123E+03  0.18227077956E+03  0.22660454365E+03  0.00000000000E+00 0.  1.
</event>
<event>
12    1  0.8052519E-002  0.4477828E+03  0.7818608E-02  0.1028408E+00
         21   -1    0    0  501  502  0.00000000000E+00  0.00000000000E+00  0.36739701740E+03  0.36739701740E+03  0.00000000000E+00 0.  1.
         21   -1    0    0  502  503 -0.00000000000E+00 -0.00000000000E+00 -0.76455378906E+03  0.76455378906E+03  0.00000000000E+00 0. -1.
         -6    2    1    2    0  503 -0.23624834964E+03  0.33944937020E+03 -0.50165508891E+03  0.67243381256E+03  0.17166900250E+03 0.  0.
        -24    2    3    3    0    0 -0.98639313643E+02  0.78069413627E+02 -0.20529631654E+03  0.25397671746E+03  0.80827271924E+02 0.  0.
          6    2    1    2  501    0  0.23624834964E+03 -0.33944937020E+03  0.10449831724E+03  0.45951699389E+03  0.17087074570E+03 0.  0.
         24    2    5    5    0    0  0.73984417535E+02 -0.17834391374E+03  0.20139072648E+01  0.20889836719E+03  0.79713401544E+02 0.  0.
          5    1    5    5  501    0  0.16226393210E+03 -0.16110545646E+03  0.10248440998E+03  0.25061862670E+03  0.47000000000E+01 0. -1.
        -13    1    6    6    0    0  0.55620725961E+02 -0.15187846507E+03 -0.28839374005E+02  0.16429376981E+03  0.00000000000E+00 0.  1.
         14    1    6    6    0    0  0.18363691575E+02 -0.26465448674E+02  0.30853281270E+02  0.44604597374E+02  0.00000000000E+00 0. -1.
         -5    1    3    3    0  503 -0.13760903599E+03  0.26137995657E+03 -0.29635877237E+03  0.41845709511E+03  0.47000000000E+01 0.  1.
         11    1    4    4    0    0 -0.10070986429E+03  0.86802142271E+02 -0.16110149870E+03  0.20887982562E+03  0.00000000000E+00 0. -1.
        -12    1    4    4    0    0  0.20705506487E+01 -0.87327286439E+01 -0.44194817836E+02  0.45096891835E+02  0.00000000000E+00 0.  1.
</event>
<event>
12    1  0.8052519E-002  0.2560841E+03  0.7818608E-02  0.1109649E+00
         21   -1    0    0  503  502  0.00000000000E+00  0.00000000000E+00  0.44702648381E+03  0.44702648381E+03  0.00000000000E+00 0. -1.
         21   -1    0    0  501  503 -0.00000000000E+00 -0.00000000000E+00 -0.17312112406E+03  0.17312112406E+03  0.00000000000E+00 0. -1.
          6    2    1    2  501    0 -0.18419413814E+03  0.31709644310E+02  0.14908228235E+02  0.25651767433E+03  0.17506021795E+03 0.  0.
         24    2    3    3    0    0 -0.77257525606E+02  0.87857210276E+01 -0.55679428696E+02  0.12626540882E+03  0.82442953177E+02 0.  0.
         -6    2    1    2    0  502  0.18419413814E+03 -0.31709644310E+02  0.25899713152E+03  0.36362993355E+03  0.17382241619E+03 0.  0.
        -24    2    5    5    0    0  0.11571958756E+03  0.42663327095E+02  0.11273086564E+03  0.18576477821E+03  0.81173408997E+02 0.  0.
          5    1    3    3  501    0 -0.10693661253E+03  0.22923923282E+02  0.70587656930E+02  0.13025226550E+03  0.47000000000E+01 0. -1.
        -11    1    4    4    0    0  0.15623795022E+02 -0.98404345318E+01 -0.11369267991E+02  0.21684035079E+02  0.00000000000E+00 0.  1.
         12    1    4    4    0    0 -0.92881320628E+02  0.18626155559E+02 -0.44310160705E+02  0.10458137374E+03  0.00000000000E+00 0. -1.
         -5    1    5    5    0  502  0.68474550572E+02 -0.74372971405E+02  0.14626626588E+03  0.17786515534E+03  0.47000000000E+01 0.  1.
         13    1    6    6    0    0  0.12800906524E+03  0.34666003414E+02  0.10521956156E+03  0.16929030897E+03  0.00000000000E+00 0. -1.
        -14    1    6    6    0    0 -0.12289477675E+02  0.79973236811E+01  0.75113040850E+01  0.16474469237E+02  0.00000000000E+00 0.  1.
</event>
<event>
12    1  0.8052519E-002  0.1847484E+03  0.7818608E-02  0.1163512E+00
         21   -1    0    0  503  502  0.00000000000E+00  0.00000000000E+00  0.32265789654E+03  0.32265789654E+03  0.00000000000E+00 0. -1.
         21   -1    0    0  501  503 -0.00000000000E+00 -0.00000000000E+00 -0.15518588536E+03  0.15518588536E+03  0.00000000000E+00 0. -1.
          6    2    1    2  501    0 -0.68763894434E+02  0.13368371465E+02  0.21943969045E+03  0.28685492719E+03  0.17095258107E+03 0.  0.
         24    2    3    3    0    0 -0.64548132455E+02 -0.54985596017E+02  0.14039005382E+03  0.18216026367E+03  0.79266116808E+02 0.  0.
         -6    2    1    2    0  502  0.68763894434E+02 -0.13368371465E+02 -0.51967679266E+02  0.19098885470E+03  0.16990855305E+03 0.  0.
        -24    2    5    5    0    0 -0.13662900801E+02 -0.19000356944E+02  0.15279285371E+02  0.84357995727E+02  0.79593507646E+02 0.  0.
          5    1    3    3  501    0 -0.42157619795E+01  0.68353967482E+02  0.79049636623E+02  0.10469466352E+03  0.47000000000E+01 0. -1.
        -11    1    4    4    0    0 -0.35055624403E+01 -0.20586811580E+02 -0.43690611625E+01  0.21335287074E+02  0.00000000000E+00 0.  1.
         12    1    4    4    0    0 -0.61042570014E+02 -0.34398784437E+02  0.14475911499E+03  0.16082497659E+03  0.00000000000E+00 0. -1.
         -5    1    5    5    0  502  0.82426795235E+02  0.56319854786E+01 -0.67246964637E+02  0.10663085898E+03  0.47000000000E+01 0.  1.
         13    1    6    6    0    0  0.21284295092E+02 -0.26235324706E+02 -0.15556908087E+02  0.37193156215E+02  0.00000000000E+00 0. -1.
        -14    1    6    6    0    0 -0.34947195892E+02  0.72349677626E+01  0.30836193458E+02  0.47164839513E+02  0.00000000000E+00 0.  1.
</event>
<event>
12    1  0.8052519E-002  0.1777748E+03  0.7818608E-02  0.1171885E+00
         21   -1    0    0  501  502  0.00000000000E+00  0.00000000000E+00  0.45900250014E+03  0.45900250014E+03  0.00000000000E+00 0.  1.
         21   -1    0    0  502  503 -0.00000000000E+00 -0.00000000000E+00 -0.94360801420E+02  0.94360801420E+02  0.00000000000E+00 0.  1.
         -6    2    1    2    0  503 -0.11299152251E+02  0.20137575762E+02  0.27732433625E+02  0.17242797177E+03  0.16860938520E+03 0.  0.
        -24    2    3    3    0    0 -0.35996815009E+02  0.70126977426E+02  0.24106551848E+02  0.11635523470E+03  0.82120954367E+02 0.  0.
          6    2    1    2  501    0  0.11299152251E+02 -0.20137575762E+02  0.33690926510E+03  0.38093532979E+03  0.17626877140E+03 0.  0.
         24    2    5    5    0    0 -0.16992615418E+02  0.43440762559E+02  0.27466177993E+03  0.28745020460E+03  0.70800267936E+02 0.  0.
          5    1    5    5  501    0  0.28291767669E+02 -0.63578338321E+02  0.62247485167E+02  0.93485125186E+02  0.47000000000E+01 0. -1.
        -13    1    6    6    0    0 -0.38374886552E+02  0.36699161706E+02  0.12068353568E+03  0.13184830743E+03  0.00000000000E+00 0.  1.
         14    1    6    6    0    0  0.21382271133E+02  0.67416008533E+01  0.15397824425E+03  0.15560189717E+03  0.00000000000E+00 0. -1.
         -5    1    3    3    0  503  0.24697662758E+02 -0.49989401664E+02  0.36258817777E+01  0.56072737076E+02  0.47000000000E+01 0.  1.
         11    1    4    4    0    0 -0.18629613393E+02  0.12419878033E+02 -0.28581139141E+02  0.36306988034E+02  0.00000000000E+00 0. -1.
        -12    1    4    4    0    0 -0.17367201616E+02  0.57707099393E+02  0.52687690989E+02  0.80048246665E+02  0.00000000000E+00 0.  1.
</event>
<event>
12    1  0.8052519E-002  0.1907049E+03  0.7818608E-02  0.1158071E+00
         21   -1    0    0  501  502  0.00000000000E+00  0.00000000000E+00  0.38520445706E+03  0.38520445706E+03  0.00000000000E+00 0.  1.
         21   -1    0    0  502  503 -0.00000000000E+00 -0.00000000000E+00 -0.19556389673E+03  0.19556389673E+03  0.00000000000E+00 0. -1.
         -6    2    1    2    0  503  0.78878789863E+02 -0.12566317327E+02 -0.11470213326E+03  0.22161265232E+03  0.17197619740E+03 0.  0.
        -24    2    3    3    0    0  0.10795854189E+03 -0.32696565578E+02 -0.47801256393E+02  0.14579262727E+03  0.79034282974E+02 0.  0.
          6    2    1    2  501    0 -0.78878789863E+02  0.12566317327E+02  0.30434269359E+03  0.35915570148E+03  0.17317207321E+03 0.  0.
         24    2    5    5    0    0 -0.51698677609E+02  0.64713623591E+01  0.58956196787E+02  0.11214855625E+03  0.79917668463E+02 0.  0.
          5    1    5    5  501    0 -0.27180112254E+02  0.60949549679E+01  0.24538649681E+03  0.24700714523E+03  0.47000000000E+01 0. -1.
        -11    1    6    6    0    0  0.17939002341E+02 -0.51827870812E+01  0.31040755810E+02  0.36224268222E+02  0.00000000000E+00 0.  1.
         12    1    6    6    0    0 -0.69637679950E+02  0.11654149440E+02  0.27915440977E+02  0.75924288030E+02  0.00000000000E+00 0. -1.
         -5    1    3    3    0  503 -0.29079752027E+02  0.20130248251E+02 -0.66900876868E+02  0.75820025048E+02  0.47000000000E+01 0.  1.
         13    1    4    4    0    0  0.24910662070E+02 -0.46237017664E+02 -0.96349842609E+01  0.53396964417E+02  0.00000000000E+00 0. -1.
        -14    1    4    4    0    0  0.83047879820E+02  0.13540452085E+02 -0.38166272132E+02  0.92395662851E+02  0.00000000000E+00 0.  1.
</event>
<event>
12    1  0.8052519E-002  0.1738489E+03  0.7818608E-02  0.1174159E+00
         21   -1    0    0  503  502  0.00000000000E+00  0.00000000000E+00  0.81837666817E+03  0.81837666817E+03  0.00000000000E+00 0. -1.
         21   -1    0    0  501  503 -0.00000000000E+00 -0.00000000000E+00 -0.13209975272E+03  0.13209975272E+03  0.00000000000E+00 0. -1.
          6    2    1    2  501    0  0.17921223235E+02  0.87701053683E+00 -0.60417593941E+02  0.18404816242E+03  0.17292050498E+03 0.  0.
         24    2    3    3    0    0 -0.28528208227E+02 -0.43944299407E+02 -0.20325036638E+01  0.96885049379E+02  0.81471600002E+02 0.  0.
         -6    2    1    2    0  502 -0.17921223235E+02 -0.87701053683E+00  0.74669450940E+03  0.76642825847E+03  0.17186519611E+03 0.  0.
        -24    2    5    5    0    0  0.39808419514E+02 -0.36169497099E+02  0.31182118091E+03  0.32629739942E+03  0.79653005095E+02 0.  0.
          5    1    3    3  501    0  0.46449431462E+02  0.44821309944E+02 -0.58385090277E+02  0.87163113041E+02  0.47000000000E+01 0. -1.
        -13    1    4    4    0    0  0.25977053067E+02 -0.30610072588E+02  0.44780638207E+01  0.40396000860E+02  0.00000000000E+00 0.  1.
         14    1    4    4    0    0 -0.54505261294E+02 -0.13334226819E+02 -0.65105674845E+01  0.56489048519E+02  0.00000000000E+00 0. -1.
         -5    1    5    5    0  502 -0.57729642749E+02  0.35292486562E+02  0.43487332849E+03  0.44013085906E+03  0.47000000000E+01 0.  1.
         11    1    6    6    0    0 -0.14714540115E+02 -0.15071816944E+00  0.16422054239E+03  0.16487852180E+03  0.00000000000E+00 0. -1.
        -12    1    6    6    0    0  0.54522959629E+02 -0.36018778930E+02  0.14760063851E+03  0.16141887762E+03  0.00000000000E+00 0.  1.
</event>
<event>
12    1  0.8052519E-002  0.2275406E+03  0.7818608E-02  0.1128543E+00
         21   -1    0    0  503  502  0.00000000000E+00  0.00000000000E+00  0.13967567350E+04  0.13967567350E+04  0.00000000000E+00 0.  1.
         21   -1    0    0  501  503 -0.00000000000E+00 -0.00000000000E+00 -0.66522325195E+02  0.66522325195E+02  0.00000000000E+00 0. -1.
          6    2    1    2  501    0 -0.84574716710E+02 -0.12080551852E+03  0.17779837084E+03  0.28876802809E+03  0.17328547936E+03 0.  0.
         24    2    3    3    0    0 -0.11000555368E+03 -0.54548241044E+02  0.77039303857E+02  0.16543419709E+03  0.79728832854E+02 0.  0.
         -6    2    1    2    0  502  0.84574716710E+02  0.12080551852E+03  0.11524360389E+04  0.11745110321E+04  0.17210602730E+03 0.  0.
        -24    2    5    5    0    0  0.10446076648E+03  0.41111503709E+02  0.85527243206E+03  0.86616886788E+03  0.78456148098E+02 0.  0.
          5    1    3    3  501    0  0.25430836968E+02 -0.66257277477E+02  0.10075906698E+03  0.12333383099E+03  0.47000000000E+01 0. -1.
        -11    1    4    4    0    0 -0.67749053835E+02 -0.26817800794E+02  0.87453101909E+02  0.11382958213E+03  0.00000000000E+00 0.  1.
         12    1    4    4    0    0 -0.42256499843E+02 -0.27730440250E+02 -0.10413798051E+02  0.51604614961E+02  0.00000000000E+00 0. -1.
         -5    1    5    5    0  502 -0.19886049774E+02  0.79694014811E+02  0.29716360689E+03  0.30834216421E+03  0.47000000000E+01 0.  1.
         13    1    6    6    0    0  0.31991831379E+02  0.96333995539E+01  0.77519376216E+02  0.84412874319E+02  0.00000000000E+00 0. -1.
        -14    1    6    6    0    0  0.72468935105E+02  0.31478104155E+02  0.77775305584E+03  0.78175599356E+03  0.00000000000E+00 0.  1.
</event>
<event>
12    1  0.8052519E-002  0.2624446E+03  0.7818608E-02  0.1105963E+00
         21   -1    0    0  501  502  0.00000000000E+00  0.00000000000E+00  0.77886900481E+03  0.77886900481E+03  0.00000000000E+00 0.  1.
         21   -1    0    0  502  503 -0.00000000000E+00 -0.00000000000E+00 -0.21018616924E+03  0.21018616924E+03  0.00000000000E+00 0.  1.
         -6    2    1    2    0  503  0.22162978013E+02  0.19786411043E+03 -0.92589649327E+02  0.27829841812E+03  0.17098468521E+03 0.  0.
        -24    2    3    3    0    0 -0.26777141225E+02  0.16749493000E+03 -0.24590627119E+02  0.18906064914E+03  0.79797639336E+02 0.  0.
          6    2    1    2  501    0 -0.22162978013E+02 -0.19786411043E+03  0.66127248489E+03  0.71075675593E+03  0.16808469005E+03 0.  0.
         24    2    5    5    0    0 -0.59173470416E+02 -0.18871062177E+03  0.61927761881E+03  0.65384259530E+03  0.69944062669E+02 0.  0.
          5    1    5    5  501    0  0.37010492403E+02 -0.91534886576E+01  0.41994866088E+02  0.56914160631E+02  0.47000000000E+01 0. -1.
        -13    1    6    6    0    0  0.10695461539E+02 -0.31610132829E+02  0.15984751985E+03  0.16329367103E+03  0.00000000000E+00 0.  1.
         14    1    6    6    0    0 -0.69868931955E+02 -0.15710048894E+03  0.45943009895E+03  0.49054892427E+03  0.00000000000E+00 0. -1.
         -5    1    3    3    0  503  0.48940119237E+02  0.30369180428E+02 -0.67999022208E+02  0.89237768977E+02  0.47000000000E+01 0.  1.
         11    1    4    4    0    0 -0.14742725969E+02  0.18356668710E+01  0.11862742920E+02  0.19011636212E+02  0.00000000000E+00 0. -1.
        -12    1    4    4    0    0 -0.12034415255E+02  0.16565926313E+03 -0.36453370039E+02  0.17004901293E+03  0.00000000000E+00 0.  1.
</event>
<event>
12    1  0.8052519E-002  0.2730216E+03  0.7818608E-02  0.1099814E+00
         21   -1    0    0  501  502  0.00000000000E+00  0.00000000000E+00  0.37273977467E+03  0.37273977467E+03  0.00000000000E+00 0.  1.
         21   -1    0    0  502  503 -0.00000000000E+00 -0.00000000000E+00 -0.82003151367E+03  0.82003151367E+03  0.00000000000E+00 0.  1.
         -6    2    1    2    0  503  0.17393044623E+03 -0.11874364261E+03 -0.74260242978E+03  0.79059075922E+03  0.17094890192E+03 0.  0.
        -24    2    3    3    0    0  0.59393232832E+02 -0.10286078924E+03 -0.52355530301E+03  0.54285143649E+03  0.80434002231E+02 0.  0.
          6    2    1    2  501    0 -0.17393044623E+03  0.11874364261E+03  0.29531069078E+03  0.40218052912E+03  0.17374959317E+03 0.  0.
         24    2    5    5    0    0 -0.38241716306E+02  0.66821173545E+02  0.19984376094E+03  0.22827423563E+03  0.79019616331E+02 0.  0.
          5    1    5    5  501    0 -0.13568872993E+03  0.51922469060E+02  0.95466929837E+02  0.17390629349E+03  0.47000000000E+01 0. -1.
        -13    1    6    6    0    0 -0.48632762260E+02  0.53504957789E+02  0.82413103777E+02  0.10963505711E+03  0.00000000000E+00 0.  1.
         14    1    6    6    0    0  0.10391045955E+02  0.13316215756E+02  0.11743065716E+03  0.11863917852E+03  0.00000000000E+00 0. -1.
         -5    1    3    3    0  503  0.11453721340E+03 -0.15882853366E+02 -0.21904712677E+03  0.24773932274E+03  0.47000000000E+01 0.  1.
         11    1    4    4    0    0  0.26288710027E+02  0.37288265381E+00 -0.44535663202E+02  0.51717121084E+02  0.00000000000E+00 0. -1.
        -12    1    4    4    0    0  0.33104522804E+02 -0.10323367189E+03 -0.47901963981E+03  0.49113431540E+03  0.00000000000E+00 0.  1.
</event>
<event>
12    1  0.8052519E-002  0.2432163E+03  0.7818608E-02  0.1117717E+00
         21   -1    0    0  501  502  0.00000000000E+00  0.00000000000E+00  0.50743898243E+03  0.50743898243E+03  0.00000000000E+00 0.  1.
         21   -1    0    0  502  503 -0.00000000000E+00 -0.00000000000E+00 -0.14422404938E+03  0.14422404938E+03  0.00000000000E+00 0.  1.
         -6    2    1    2    0  503  0.17198558110E+03  0.88711354564E+01  0.38484148554E+02  0.24594854539E+03  0.17132402091E+03 0.  0.
        -24    2    3    3    0    0  0.75825639803E+02  0.25071084009E+02 -0.42271301998E+02  0.11924927374E+03  0.77816703931E+02 0.  0.
          6    2    1    2  501    0 -0.17198558110E+03 -0.88711354564E+01  0.32473078450E+03  0.40571448641E+03  0.17174523264E+03 0.  0.
         24    2    5    5    0    0 -0.99883291844E+02  0.31541224886E+02  0.97462282096E+02  0.16383649823E+03  0.79824688304E+02 0.  0.
          5    1    5    5  501    0 -0.72102289254E+02 -0.40412360342E+02  0.22726850240E+03  0.24187798819E+03  0.47000000000E+01 0. -1.
        -11    1    6    6    0    0 -0.32032382807E+02 -0.11405157468E+01  0.80488377582E+02  0.86635750417E+02  0.00000000000E+00 0.  1.
         12    1    6    6    0    0 -0.67850909037E+02  0.32681740632E+02  0.16973904514E+02  0.77200747810E+02  0.00000000000E+00 0. -1.
         -5    1    3    3    0  503  0.96159941294E+02 -0.16199948553E+02  0.80755450551E+02  0.12669927165E+03  0.47000000000E+01 0.  1.
         11    1    4    4    0    0  0.25323829224E+02  0.17421963292E+02  0.21524551969E+02  0.37525024570E+02  0.00000000000E+00 0. -1.
        -12    1    4    4    0    0  0.50501810579E+02  0.76491207179E+01 -0.63795853967E+02  0.81724249173E+02  0.00000000000E+00 0.  1.
</event>
<event>
12    1  0.8052519E-002  0.2091894E+03  0.7818608E-02  0.1142846E+00
         21   -1    0    0  503  502  0.00000000000E+00  0.00000000000E+00  0.34648153753E+03  0.34648153753E+03  0.00000000000E+00 0.  1.
         21   -1    0    0  501  503 -0.00000000000E+00 -0.00000000000E+00 -0.13989835616E+03  0.13989835616E+03  0.00000000000E+00 0.  1.
          6    2    1    2  501    0 -0.10562922263E+03  0.39945123558E+02  0.21624101179E+02  0.20714865903E+03  0.17230734057E+03 0.  0.
         24    2    3    3    0    0  0.39461891079E+01 -0.17096652951E+02  0.22210930137E+01  0.82012325969E+02  0.80082584911E+02 0.  0.
         -6    2    1    2    0  502  0.10562922263E+03 -0.39945123558E+02  0.18495908019E+03  0.27923123466E+03  0.17608826051E+03 0.  0.
        -24    2    5    5    0    0  0.79839079858E+02 -0.24709495445E+02  0.28143199932E+02  0.11951096002E+03  0.80659729879E+02 0.  0.
          5    1    3    3  501    0 -0.10957541174E+03  0.57041776509E+02  0.19403008166E+02  0.12513633306E+03  0.47000000000E+01 0. -1.
        -11    1    4    4    0    0 -0.33203076437E+02  0.90981534282E+01  0.10101516862E+02  0.35878424207E+02  0.00000000000E+00 0.  1.
         12    1    4    4    0    0  0.37149265545E+02 -0.26194806379E+02 -0.78804238481E+01  0.46133901762E+02  0.00000000000E+00 0. -1.
         -5    1    5    5    0  502  0.25790142775E+02 -0.15235628113E+02  0.15681588026E+03  0.15972027464E+03  0.47000000000E+01 0.  1.
         13    1    6    6    0    0 -0.94937851550E+01 -0.91601525441E+01 -0.14245886235E+02  0.19416117682E+02  0.00000000000E+00 0. -1.
        -14    1    6    6    0    0  0.89332865013E+02 -0.15549342900E+02  0.42389086167E+02  0.10009484234E+03  0.00000000000E+00 0.  1.
</event>
<event>
12    1  0.8052519E-002  0.1826430E+03  0.7818608E-02  0.1165607E+00
         21   -1    0    0  501  502  0.00000000000E+00  0.00000000000E+00  0.88462699207E+02  0.88462699207E+02  0.00000000000E+00 0.  1.
         21   -1    0    0  502  503 -0.00000000000E+00 -0.00000000000E+00 -0.51797518457E+03  0.51797518457E+03  0.00000000000E+00 0.  1.
         -6    2    1    2    0  503  0.48166606715E+02  0.39433968652E+02 -0.54384617119E+02  0.18920968447E+03  0.17019858470E+03 0.  0.
        -24    2    3    3    0    0  0.81975896067E+01 -0.13520923143E+02 -0.83980763165E+02  0.11641020127E+03  0.79047773784E+02 0.  0.
          6    2    1    2  501    0 -0.48166606715E+02 -0.39433968652E+02 -0.37512786824E+03  0.41722819930E+03  0.17170728836E+03 0.  0.
         24    2    5    5    0    0  0.19819444285E+02  0.27655639334E+02 -0.17443252836E+03  0.19491349425E+03  0.80043229155E+02 0.  0.
          5    1    5    5  501    0 -0.67986051000E+02 -0.67089607986E+02 -0.20069533989E+03  0.22231470505E+03  0.47000000000E+01 0. -1.
        -13    1    6    6    0    0  0.37126580595E+02  0.33683060075E+02 -0.16827031799E+03  0.17557856201E+03  0.00000000000E+00 0.  1.
         14    1    6    6    0    0 -0.17307136310E+02 -0.60274207408E+01 -0.61622103691E+01  0.19334932239E+02  0.00000000000E+00 0. -1.
         -5    1    3    3    0  503  0.39969017108E+02  0.52954891795E+02  0.29596146046E+02  0.72799483201E+02  0.47000000000E+01 0.  1.
         13    1    4    4    0    0  0.29226099854E+02 -0.21892210314E+02 -0.86251561216E+02  0.93663042857E+02  0.00000000000E+00 0. -1.
        -14    1    4    4    0    0 -0.21028510247E+02  0.83712871709E+01  0.22707980510E+01  0.22747158414E+02  0.00000000000E+00 0.  1.
</event>
<event>
12    1  0.8052519E-002  0.1902280E+03  0.7818608E-02  0.1160400E+00
         21   -1    0    0  503  502  0.00000000000E+00  0.00000000000E+00  0.53890523907E+02  0.53890523907E+02  0.00000000000E+00 0. -1.
         21   -1    0    0  501  503 -0.00000000000E+00 -0.00000000000E+00 -0.19718038841E+04  0.19718038841E+04  0.00000000000E+00 0. -1.
          6    2    1    2  501    0 -0.71851792745E+02  0.36703964961E+02 -0.17992981356E+04  0.18093259668E+04  0.17226959086E+03 0.  0.
         24    2    3    3    0    0  0.77173497947E+01 -0.29034980200E+02 -0.91596530634E+03  0.91997123738E+03  0.80324639014E+02 0.  0.
         -6    2    1    2    0  502  0.71851792745E+02 -0.36703964961E+02 -0.11861522456E+03  0.21636844125E+03  0.16197490455E+03 0.  0.
        -24    2    5    5    0    0 -0.22872073152E+02 -0.19761038519E+02 -0.58176133599E+02  0.10263785062E+03  0.78971105392E+02 0.  0.
          5    1    3    3  501    0 -0.79569142540E+02  0.65738945161E+02 -0.88333282930E+03  0.88935472938E+03  0.47000000000E+01 0. -1.
        -13    1    4    4    0    0 -0.34687616560E+00  0.14001930231E+02 -0.66951622681E+03  0.66966271535E+03  0.00000000000E+00 0.  1.
         14    1    4    4    0    0  0.80642259603E+01 -0.43036910431E+02 -0.24644907953E+03  0.25030852203E+03  0.00000000000E+00 0. -1.
         -5    1    5    5    0  502  0.94723865897E+02 -0.16942926442E+02 -0.60439090961E+02  0.11373059062E+03  0.47000000000E+01 0.  1.
         11    1    6    6    0    0  0.14900824283E+02 -0.15738528629E+02 -0.60813246363E+02  0.64559947188E+02  0.00000000000E+00 0. -1.
        -12    1    6    6    0    0 -0.37772897434E+02 -0.40225098898E+01  0.26371127645E+01  0.38077903437E+02  0.00000000000E+00 0.  1.
</event>
<event>
12    1  0.8052519E-002  0.2084114E+03  0.7818608E-02  0.1142876E+00
         21   -1    0    0  503  502  0.00000000000E+00  0.00000000000E+00  0.16366373711E+03  0.16366373711E+03  0.00000000000E+00 0.  1.
         21   -1    0    0  501  503 -0.00000000000E+00 -0.00000000000E+00 -0.33994308366E+03  0.33994308366E+03  0.00000000000E+00 0.  1.
          6    2    1    2  501    0  0.11310060450E+03  0.29240948819E+02 -0.20625000529E+03  0.29305147752E+03  0.17231750917E+03 0.  0.
         24    2    3    3    0    0  0.13389126378E+03  0.57013019818E+02 -0.19581024533E+03  0.25651905317E+03  0.79265487548E+02 0.  0.
         -6    2    1    2    0  502 -0.11310060450E+03 -0.29240948819E+02  0.29970658746E+02  0.21055534326E+03  0.17259354670E+03 0.  0.
        -24    2    5    5    0    0 -0.91246483997E+02 -0.72587054493E+02  0.59493406624E+02  0.15354508013E+03  0.80260979794E+02 0.  0.
          5    1    3    3  501    0 -0.20790659279E+02 -0.27772071000E+02 -0.10439759958E+02  0.36532424349E+02  0.47000000000E+01 0. -1.
        -13    1    4    4    0    0  0.28163357597E+02 -0.20103229548E+02 -0.46800754033E+02  0.58203308561E+02  0.00000000000E+00 0.  1.
         14    1    4    4    0    0  0.10572790618E+03  0.77116249366E+02 -0.14900949130E+03  0.19831574461E+03  0.00000000000E+00 0. -1.
         -5    1    5    5    0  502 -0.21854120501E+02  0.43346105674E+02 -0.29522747877E+02  0.57010263130E+02  0.47000000000E+01 0.  1.
         11    1    6    6    0    0 -0.36922367689E+01 -0.20704940948E+01 -0.17032348507E+02  0.17550511498E+02  0.00000000000E+00 0. -1.
        -12    1    6    6    0    0 -0.87554247228E+02 -0.70516560398E+02  0.76525755131E+02  0.13599456863E+03  0.00000000000E+00 0.  1.
</event>
<event>
12    1  0.8052519E-002  0.1783504E+03  0.7818608E-02  0.1169619E+00
         21   -1    0    0  501  502  0.00000000000E+00  0.00000000000E+00  0.21055015980E+03  0.21055015980E+03  0.00000000000E+00 0. -1.
         21   -1    0    0  502  503 -0.00000000000E+00 -0.00000000000E+00 -0.16282893888E+03  0.16282893888E+03  0.00000000000E+00 0. -1.
         -6    2    1    2    0  503  0.60201949760E+01 -0.45960820141E+02  0.75595171016E+02  0.19370980737E+03  0.17222142681E+03 0.  0.
        -24    2    3    3    0    0 -0.54414008088E+02 -0.61076997879E+02  0.62437532374E+02  0.12986620797E+03  0.79218069766E+02 0.  0.
          6    2    1    2  501    0 -0.60201949760E+01  0.45960820141E+02 -0.27873950093E+02  0.17966929131E+03  0.17133434393E+03 0.  0.
         24    2    5    5    0    0  0.20411791418E+02  0.34461883893E+02  0.45435323932E+02  0.10075658575E+03  0.80518682564E+02 0.  0.
          5    1    5    5  501    0 -0.26431986394E+02  0.11498936248E+02 -0.73309274025E+02  0.78912705553E+02  0.47000000000E+01 0. -1.
        -11    1    6    6    0    0  0.29085695955E+02 -0.19524379356E+02  0.21210197116E+02  0.40951819985E+02  0.00000000000E+00 0.  1.
         12    1    6    6    0    0 -0.86739045370E+01  0.53986263249E+02  0.24225126816E+02  0.59804765770E+02  0.00000000000E+00 0. -1.
         -5    1    3    3    0  503  0.60434203064E+02  0.15116177739E+02  0.13157638642E+02  0.63843599397E+02  0.47000000000E+01 0.  1.
         11    1    4    4    0    0 -0.70003826494E+02 -0.25881531470E+02  0.48085556061E+02  0.88784064431E+02  0.00000000000E+00 0. -1.
        -12    1    4    4    0    0  0.15589818407E+02 -0.35195466409E+02  0.14351976313E+02  0.41082143539E+02  0.00000000000E+00 0.  1.
</event>
<event>
12    1  0.8052519E-002  0.1769776E+03  0.7818608E-02  0.1170940E+00
         21   -1    0    0  501  502  0.00000000000E+00  0.00000000000E+00  0.62152564181E+02  0.62152564181E+02  0.00000000000E+00 0. -1.
         21   -1    0    0  502  503 -0.00000000000E+00 -0.00000000000E+00 -0.76537166008E+03  0.76537166008E+03  0.00000000000E+00 0. -1.
         -6    2    1    2    0  503  0.43944184922E+02  0.11860667623E+02 -0.59390773392E+03  0.61950966313E+03  0.17027642079E+03 0.  0.
        -24    2    3    3    0    0 -0.73382216127E+01  0.38521047288E+02 -0.50955675770E+03  0.51714835084E+03  0.79098716049E+02 0.  0.
          6    2    1    2  501    0 -0.43944184922E+02 -0.11860667623E+02 -0.10931136198E+03  0.20801456113E+03  0.17102431687E+03 0.  0.
         24    2    5    5    0    0 -0.85460964994E+02  0.22599382569E+02 -0.93209646919E+02  0.15151240795E+03  0.80334692712E+02 0.  0.
          5    1    5    5  501    0  0.41516780072E+02 -0.34460050192E+02 -0.16101715064E+02  0.56502153187E+02  0.47000000000E+01 0. -1.
        -11    1    6    6    0    0  0.11464631043E+02  0.14102895790E+02 -0.31283143173E+02  0.36179614168E+02  0.00000000000E+00 0.  1.
         12    1    6    6    0    0 -0.96925596037E+02  0.84964867795E+01 -0.61926503746E+02  0.11533279378E+03  0.00000000000E+00 0. -1.
         -5    1    3    3    0  503  0.51282406535E+02 -0.26660379665E+02 -0.84350976213E+02  0.10236131228E+03  0.47000000000E+01 0.  1.
         13    1    4    4    0    0 -0.21375831067E+02  0.50924847576E+02 -0.21445069342E+03  0.22144833746E+03  0.00000000000E+00 0. -1.
        -14    1    4    4    0    0  0.14037609455E+02 -0.12403800288E+02 -0.29510606429E+03  0.29570001339E+03  0.00000000000E+00 0.  1.
</event>
<event>
12    1  0.8052519E-002  0.2209730E+03  0.7818608E-02  0.1133396E+00
         21   -1    0    0  501  502  0.00000000000E+00  0.00000000000E+00  0.57343212472E+02  0.57343212472E+02  0.00000000000E+00 0. -1.
         21   -1    0    0  502  503 -0.00000000000E+00 -0.00000000000E+00 -0.84673688312E+03  0.84673688312E+03  0.00000000000E+00 0. -1.
         -6    2    1    2    0  503  0.93722045951E+02 -0.99453666281E+02 -0.40110508041E+03  0.45794580010E+03  0.17364969525E+03 0.  0.
        -24    2    3    3    0    0  0.10829447786E+03 -0.12239719339E+03 -0.38626728371E+03  0.42662469828E+03  0.78086182105E+02 0.  0.
          6    2    1    2  501    0 -0.93722045951E+02  0.99453666281E+02 -0.38828859024E+03  0.44613429549E+03  0.17202594768E+03 0.  0.
         24    2    5    5    0    0 -0.25383258727E+02  0.24229670921E+02 -0.29637831845E+03  0.30902693837E+03  0.80163297188E+02 0.  0.
          5    1    5    5  501    0 -0.68338787224E+02  0.75223995359E+02 -0.91910271788E+02  0.13710735712E+03  0.47000000000E+01 0. -1.
        -13    1    6    6    0    0 -0.59644746812E+01 -0.23426548590E+02 -0.18208585858E+03  0.18368352683E+03  0.00000000000E+00 0.  1.
         14    1    6    6    0    0 -0.19418784046E+02  0.47656219511E+02 -0.11429245987E+03  0.12534341154E+03  0.00000000000E+00 0. -1.
         -5    1    3    3    0  503 -0.14572431912E+02  0.22943527107E+02 -0.14837796700E+02  0.31321101814E+02  0.47000000000E+01 0.  1.
         13    1    4    4    0    0  0.33726291998E+02 -0.78603388911E+02 -0.12536439189E+03  0.15176358679E+03  0.00000000000E+00 0. -1.
        -14    1    4    4    0    0  0.74568185865E+02 -0.43793804477E+02 -0.26090289182E+03  0.27486111149E+03  0.00000000000E+00 0.  1.
</event>
<event>
12    1  0.8052519E-002  0.1818237E+03  0.7818608E-02  0.1166140E+00
         21   -1    0    0  503  502  0.00000000000E+00  0.00000000000E+00  0.20146606002E+03  0.20146606002E+03  0.00000000000E+00 0. -1.
         21   -1    0    0  501  503 -0.00000000000E+00 -0.00000000000E+00 -0.26174851054E+03  0.26174851054E+03  0.00000000000E+00 0. -1.
          6    2    1    2  501    0  0.31524112004E+01 -0.57465538818E+02 -0.17183422860E+03  0.24989871157E+03  0.17207596602E+03 0.  0.
         24    2    3    3    0    0 -0.55074409429E+01 -0.10422561093E+03 -0.10685052294E+03  0.16923602265E+03  0.79564359056E+02 0.  0.
         -6    2    1    2    0  502 -0.31524112004E+01  0.57465538818E+02  0.11155177808E+03  0.21331585899E+03  0.17247501458E+03 0.  0.
        -24    2    5    5    0    0 -0.19289054706E+02  0.10242349432E+03  0.72218235156E+02  0.15126082998E+03  0.82472573484E+02 0.  0.
          5    1    3    3  501    0  0.86598521434E+01  0.46760072109E+02 -0.64983705658E+02  0.80662688921E+02  0.47000000000E+01 0. -1.
        -13    1    4    4    0    0 -0.39607734444E+02 -0.73389415842E+02 -0.82081070201E+02  0.11701316623E+03  0.00000000000E+00 0.  1.
         14    1    4    4    0    0  0.34100293501E+02 -0.30836195086E+02 -0.24769452736E+02  0.52222856424E+02  0.00000000000E+00 0. -1.
         -5    1    5    5    0  502  0.16136643506E+02 -0.44957955498E+02  0.39333542928E+02  0.62055029010E+02  0.47000000000E+01 0.  1.
         13    1    6    6    0    0  0.32461268817E+02  0.33623212862E+02  0.22904290260E+02  0.52046718712E+02  0.00000000000E+00 0. -1.
        -14    1    6    6    0    0 -0.51750323523E+02  0.68800281454E+02  0.49313944897E+02  0.99214111265E+02  0.00000000000E+00 0.  1.
</event>
<event>
12    1  0.8052519E-002  0.1758789E+03  0.7818608E-02  0.1171947E+00
         21   -1    0    0  503  502  0.00000000000E+00  0.00000000000E+00  0.52924543935E+02  0.52924543935E+02  0.00000000000E+00 0.  1.
         21   -1    0    0  501  503 -0.00000000000E+00 -0.00000000000E+00 -0.68071996941E+03  0.68071996941E+03  0.00000000000E+00 0.  1.
          6    2    1    2  501    0 -0.10570728610E+02 -0.33783606654E+02 -0.45301968416E+03  0.48596319402E+03  0.17227977050E+03 0.  0.
         24    2    3    3    0    0 -0.22744347982E+01  0.17169873306E+02 -0.10400603475E+03  0.13312087359E+03  0.81264593265E+02 0.  0.
         -6    2    1    2    0  502  0.10570728610E+02  0.33783606654E+02 -0.17477574132E+03  0.24768131933E+03  0.17189067400E+03 0.  0.
        -24    2    5    5    0    0  0.12466370411E+02  0.83380637763E+02 -0.82125037480E+02  0.14246866859E+03  0.80281122342E+02 0.  0.
          5    1    3    3  501    0 -0.82962938113E+01 -0.50953479960E+02 -0.34901364941E+03  0.35284232043E+03  0.47000000000E+01 0. -1.
        -13    1    4    4    0    0  0.15419483444E+02 -0.26441290951E+02 -0.65547319375E+02  0.72341920172E+02  0.00000000000E+00 0.  1.
         14    1    4    4    0    0 -0.17693918242E+02  0.43611164257E+02 -0.38458715373E+02  0.60778953419E+02  0.00000000000E+00 0. -1.
         -5    1    5    5    0  502 -0.18956418016E+01 -0.49597031109E+02 -0.92650703837E+02  0.10521265073E+03  0.47000000000E+01 0.  1.
         11    1    6    6    0    0 -0.99630354818E+01 -0.12767848278E+02 -0.43079032510E+01  0.16758223536E+02  0.00000000000E+00 0. -1.
        -12    1    6    6    0    0  0.22429405893E+02  0.96148486041E+02 -0.77817134229E+02  0.12571044506E+03  0.00000000000E+00 0.  1.
</event>
<event>
12    1  0.8052519E-002  0.1782887E+03  0.7818608E-02  0.1170359E+00
         21   -1    0    0  501  502  0.00000000000E+00  0.00000000000E+00  0.64088459381E+03  0.64088459381E+03  0.00000000000E+00 0. -1.
         21   -1    0    0  502  503 -0.00000000000E+00 -0.00000000000E+00 -0.12404835671E+03  0.12404835671E+03  0.00000000000E+00 0. -1.
         -6    2    1    2    0  503  0.36672030405E+02 -0.26913000098E+02 -0.38815543722E+02  0.18246508790E+03  0.17238826665E+03 0.  0.
        -24    2    3    3    0    0 -0.84499476722E+01 -0.29391146338E+02 -0.83826961435E+02  0.11851001117E+03  0.77989885152E+02 0.  0.
          6    2    1    2  501    0 -0.36672030405E+02  0.26913000098E+02  0.55565178083E+03  0.58246786263E+03  0.16867353696E+03 0.  0.
         24    2    5    5    0    0  0.27500976664E+02  0.57339568029E+02  0.36690817558E+03  0.38074976876E+03  0.79401809321E+02 0.  0.
          5    1    5    5  501    0 -0.64173007069E+02 -0.30426567932E+02  0.18874360524E+03  0.20171809386E+03  0.47000000000E+01 0. -1.
        -13    1    6    6    0    0  0.24493282107E+02 -0.15378572278E+02  0.10838775330E+03  0.11217988420E+03  0.00000000000E+00 0.  1.
         14    1    6    6    0    0  0.30076945571E+01  0.72718140308E+02  0.25852042229E+03  0.26856988456E+03  0.00000000000E+00 0. -1.
         -5    1    3    3    0  503  0.45121978077E+02  0.24781462402E+01  0.45011417713E+02  0.63955076725E+02  0.47000000000E+01 0.  1.
         11    1    4    4    0    0  0.32437785210E+02 -0.39262365080E+00 -0.23405789103E+02  0.40002437753E+02  0.00000000000E+00 0. -1.
        -12    1    4    4    0    0 -0.40887732882E+02 -0.28998522687E+02 -0.60421172333E+02  0.78507573420E+02  0.00000000000E+00 0.  1.
</event>
<event>
12    1  0.8052519E-002  0.2814342E+03  0.7818608E-02  0.1094972E+00
         21   -1    0    0  501  502  0.00000000000E+00  0.00000000000E+00  0.23920558278E+03  0.23920558278E+03  0.00000000000E+00 0.  1.
         21   -1    0    0  502  503 -0.00000000000E+00 -0.00000000000E+00 -0.33641988377E+03  0.33641988377E+03  0.00000000000E+00 0. -1.
         -6    2    1    2    0  503 -0.14575077324E+03  0.16757929260E+03 -0.10689841704E+02  0.28163714239E+03  0.17285572033E+03 0.  0.
        -24    2    3    3    0    0 -0.18208104129E+02  0.10358239991E+03 -0.37673859619E+02  0.13633414194E+03  0.78146208697E+02 0.  0.
          6    2    1    2  501    0  0.14575077324E+03 -0.16757929260E+03 -0.86524459290E+02  0.29398832415E+03  0.17209458293E+03 0.  0.
         24    2    5    5    0    0  0.39909088754E+02 -0.27778805678E+02  0.10343307969E+02  0.93608453279E+02  0.79316839923E+02 0.  0.
          5    1    5    5  501    0  0.10584168448E+03 -0.13980048692E+03 -0.96867767259E+02  0.20037987087E+03  0.47000000000E+01 0. -1.
        -13    1    6    6    0    0  0.40155244692E+02  0.11839845570E+01 -0.25456519244E+02  0.47559224844E+02  0.00000000000E+00 0.  1.
         14    1    6    6    0    0 -0.24615593786E+00 -0.28962790235E+02  0.35799827214E+02  0.46049228435E+02  0.00000000000E+00 0. -1.
         -5    1    3    3    0  503 -0.12754266911E+03  0.63996892692E+02  0.26984017915E+02  0.14530300045E+03  0.47000000000E+01 0.  1.
         11    1    4    4    0    0 -0.22301970891E+02  0.94564358238E+02  0.22886138388E+00  0.97158880871E+02  0.00000000000E+00 0. -1.
        -12    1    4    4    0    0  0.40938667620E+01  0.90180416716E+01 -0.37902721003E+02  0.39175261072E+02  0.00000000000E+00 0.  1.
</event>
<event>
12    1  0.8052519E-002  0.1898853E+03  0.7818608E-02  0.1158603E+00
         21   -1    0    0  501  502  0.00000000000E+00  0.00000000000E+00  0.68386027106E+02  0.68386027106E+02  0.00000000000E+00 0. -1.
         21   -1    0    0  502  503 -0.00000000000E+00 -0.00000000000E+00 -0.67723732497E+03  0.67723732497E+03  0.00000000000E+00 0. -1.
         -6    2    1    2    0  503 -0.66209787929E+02 -0.44321355482E+02 -0.48004226404E+03  0.51617140978E+03  0.17217499947E+03 0.  0.
        -24    2    3    3    0    0 -0.38004138456E+02  0.31420803837E+00 -0.44300969055E+03  0.45150771292E+03  0.78467927443E+02 0.  0.
          6    2    1    2  501    0  0.66209787929E+02  0.44321355482E+02 -0.12880903382E+03  0.22945194229E+03  0.17236098183E+03 0.  0.
         24    2    5    5    0    0  0.94827907674E+02 -0.13024447061E+02 -0.96244343525E+02  0.15740968454E+03  0.79704873330E+02 0.  0.
          5    1    5    5  501    0 -0.28618119746E+02  0.57345802543E+02 -0.32564690293E+02  0.72042257745E+02  0.47000000000E+01 0. -1.
        -11    1    6    6    0    0  0.46769429902E+02 -0.45886454192E+02 -0.59915747009E+02  0.88785375999E+02  0.00000000000E+00 0.  1.
         12    1    6    6    0    0  0.48058477773E+02  0.32862007131E+02 -0.36328596517E+02  0.68624308546E+02  0.00000000000E+00 0. -1.
         -5    1    3    3    0  503 -0.28205649472E+02 -0.44635563520E+02 -0.37032573497E+02  0.64663696869E+02  0.47000000000E+01 0.  1.
         11    1    4    4    0    0 -0.59885779790E+02 -0.13306294756E+02 -0.30375560523E+03  0.30988841832E+03  0.00000000000E+00 0. -1.
        -12    1    4    4    0    0  0.21881641334E+02  0.13620502794E+02 -0.13925408531E+03  0.14161929459E+03  0.00000000000E+00 0.  1.
</event>
<event>
12    1  0.8052519E-002  0.1824331E+03  0.7818608E-02  0.1165647E+00
         21   -1    0    0  501  502  0.00000000000E+00  0.00000000000E+00  0.30042238809E+02  0.30042238809E+02  0.00000000000E+00 0. -1.
         21   -1    0    0  502  503 -0.00000000000E+00 -0.00000000000E+00 -0.11158379691E+04  0.11158379691E+04  0.00000000000E+00 0. -1.
         -6    2    1    2    0  503 -0.28939416202E+02  0.52035127274E+02 -0.48327381477E+03  0.51656114572E+03  0.17244330354E+03 0.  0.
        -24    2    3    3    0    0  0.16962752964E+02  0.60354589925E+02 -0.15731540329E+03  0.18724792307E+03  0.79895162986E+02 0.  0.
          6    2    1    2  501    0  0.28939416202E+02 -0.52035127274E+02 -0.60252191551E+03  0.62931906219E+03  0.17165278640E+03 0.  0.
         24    2    5    5    0    0  0.84623988422E+02 -0.29023823313E+02 -0.35659808373E+03  0.37607824254E+03  0.79177329220E+02 0.  0.
          5    1    5    5  501    0 -0.55684572220E+02 -0.23011303961E+02 -0.24592383179E+03  0.25324081964E+03  0.47000000000E+01 0. -1.
        -11    1    6    6    0    0  0.25988853874E+02  0.13133495439E+02 -0.21662547462E+03  0.21857379871E+03  0.00000000000E+00 0.  1.
         12    1    6    6    0    0  0.58635134548E+02 -0.42157318752E+02 -0.13997260911E+03  0.15750444384E+03  0.00000000000E+00 0. -1.
         -5    1    3    3    0  503 -0.45902169166E+02 -0.83194626508E+01 -0.32595841148E+03  0.32931322265E+03  0.47000000000E+01 0.  1.
         13    1    4    4    0    0  0.20268576363E+02 -0.18021188039E+01 -0.26413375044E+01  0.20519246667E+02  0.00000000000E+00 0. -1.
        -14    1    4    4    0    0 -0.33058233993E+01  0.62156708729E+02 -0.15467406579E+03  0.16672867640E+03  0.00000000000E+00 0.  1.
</event>
<event>
12    1  0.8052519E-002  0.1835660E+03  0.7818608E-02  0.1164819E+00
         21   -1    0    0  501  502  0.00000000000E+00  0.00000000000E+00  0.16167234594E+03  0.16167234594E+03  0.00000000000E+00 0. -1.
         21   -1    0    0  502  503 -0.00000000000E+00 -0.00000000000E+00 -0.26722612978E+03  0.26722612978E+03  0.00000000000E+00 0. -1.
         -6    2    1    2    0  503 -0.47923803497E+02 -0.49456957347E+02 -0.15488684651E+03  0.23881897877E+03  0.16823164931E+03 0.  0.
        -24    2    3    3    0    0 -0.56698884473E+02 -0.30785858218E+02 -0.18057221259E+03  0.20554075737E+03  0.74014501397E+02 0.  0.
          6    2    1    2  501    0  0.47923803497E+02  0.49456957347E+02  0.49333062660E+02  0.19007949695E+03  0.17015811035E+03 0.  0.
         24    2    5    5    0    0 -0.13033163927E+02  0.10574333244E+02  0.80559021799E+02  0.11118234327E+03  0.74766821358E+02 0.  0.
          5    1    5    5  501    0  0.60956967424E+02  0.38882624103E+02 -0.31225959139E+02  0.78897153680E+02  0.47000000000E+01 0. -1.
        -11    1    6    6    0    0  0.10208211772E+02 -0.26503081959E+02  0.14353727194E+02  0.31822168771E+02  0.00000000000E+00 0.  1.
         12    1    6    6    0    0 -0.23241375700E+02  0.37077415203E+02  0.66205294605E+02  0.79360174497E+02  0.00000000000E+00 0. -1.
         -5    1    3    3    0  503  0.87750809759E+01 -0.18671099129E+02  0.25685366078E+02  0.33278221397E+02  0.47000000000E+01 0.  1.
         13    1    4    4    0    0 -0.65138376440E+02 -0.98587151122E+00 -0.10137306096E+03  0.12050094405E+03  0.00000000000E+00 0. -1.
        -14    1    4    4    0    0  0.84394919678E+01 -0.29799986707E+02 -0.79199151624E+02  0.85039813325E+02  0.00000000000E+00 0.  1.
</event>
<event>
12    1  0.8052519E-002  0.2318260E+03  0.7818608E-02  0.1125492E+00
         21   -1    0    0  503  502  0.00000000000E+00  0.00000000000E+00  0.17021858318E+03  0.17021858318E+03  0.00000000000E+00 0.  1.
         21   -1    0    0  501  503 -0.00000000000E+00 -0.00000000000E+00 -0.60425633556E+03  0.60425633556E+03  0.00000000000E+00 0.  1.
          6    2    1    2  501    0  0.82224828825E+02  0.13031969490E+03 -0.48489091628E+03  0.53713691999E+03  0.17219966542E+03 0.  0.
         24    2    3    3    0    0  0.49601407587E+01  0.28592304347E+01 -0.22653960615E+03  0.23883591183E+03  0.75429579276E+02 0.  0.
         -6    2    1    2    0  502 -0.82224828825E+02 -0.13031969490E+03  0.50853163899E+02  0.23733799875E+03  0.17320258665E+03 0.  0.
        -24    2    5    5    0    0 -0.10073349751E+02 -0.51696798492E-01  0.17120887167E+02  0.84578240458E+02  0.82212401338E+02 0.  0.
          5    1    3    3  501    0  0.77264688067E+02  0.12746046446E+03 -0.25835131014E+03  0.29830100817E+03  0.47000000000E+01 0. -1.
        -13    1    4    4    0    0 -0.23918910468E+02  0.22809999695E+02 -0.58701031835E+02  0.67366323208E+02  0.00000000000E+00 0.  1.
         14    1    4    4    0    0  0.28879051227E+02 -0.19950769260E+02 -0.16783857431E+03  0.17146958862E+03  0.00000000000E+00 0. -1.
         -5    1    5    5    0  502 -0.72151479075E+02 -0.13026799810E+03  0.33732276732E+02  0.15275975830E+03  0.47000000000E+01 0.  1.
         13    1    6    6    0    0 -0.41233184585E+02  0.58156008704E+01  0.28972005961E+02  0.50728432401E+02  0.00000000000E+00 0. -1.
        -14    1    6    6    0    0  0.31159834834E+02 -0.58672976689E+01 -0.11851118794E+02  0.33849808057E+02  0.00000000000E+00 0.  1.
</event>
<event>
12    1  0.8052519E-002  0.1987707E+03  0.7818608E-02  0.1150846E+00
         21   -1    0    0  503  502  0.00000000000E+00  0.00000000000E+00  0.45723956467E+03  0.45723956467E+03  0.00000000000E+00 0. -1.
         21   -1    0    0  501  503 -0.00000000000E+00 -0.00000000000E+00 -0.17785432115E+03  0.17785432115E+03  0.00000000000E+00 0. -1.
          6    2    1    2  501    0 -0.98517185649E+02  0.45730997627E+01 -0.88222002760E+02  0.21718855380E+03  0.17222426374E+03 0.  0.
         24    2    3    3    0    0 -0.31241614456E+02 -0.40402183099E+02  0.46590591826E+01  0.93909357597E+02  0.78669471454E+02 0.  0.
         -6    2    1    2    0  502  0.98517185649E+02 -0.45730997627E+01  0.36760724628E+03  0.41790533202E+03  0.17257818489E+03 0.  0.
        -24    2    5    5    0    0  0.10145453044E+03  0.28474873656E+02  0.36168985136E+03  0.38387737140E+03  0.73745830521E+02 0.  0.
          5    1    3    3  501    0 -0.67275571193E+02  0.44975282862E+02 -0.92881061943E+02  0.12327919620E+03  0.47000000000E+01 0. -1.
        -11    1    4    4    0    0 -0.28639075542E+02 -0.51773181139E+02 -0.23319804773E+02  0.63596165198E+02  0.00000000000E+00 0.  1.
         12    1    4    4    0    0 -0.26025389136E+01  0.11370998040E+02  0.27978863955E+02  0.30313192400E+02  0.00000000000E+00 0. -1.
         -5    1    5    5    0  502 -0.29373447869E+01 -0.33047973418E+02  0.59173949272E+01  0.34027960623E+02  0.47000000000E+01 0.  1.
         13    1    6    6    0    0  0.47239496877E+02  0.49740260829E+02  0.22695292926E+03  0.23709343245E+03  0.00000000000E+00 0. -1.
        -14    1    6    6    0    0  0.54215033559E+02 -0.21265387173E+02  0.13473692210E+03  0.14678393894E+03  0.00000000000E+00 0.  1.
</event>
<event>
12    1  0.8052519E-002  0.2217067E+03  0.7818608E-02  0.1132727E+00
         21   -1    0    0  501  502  0.00000000000E+00  0.00000000000E+00  0.44942939675E+03  0.44942939675E+03  0.00000000000E+00 0.  1.
         21   -1    0    0  502  503 -0.00000000000E+00 -0.00000000000E+00 -0.14431915849E+03  0.14431915849E+03  0.00000000000E+00 0.  1.
         -6    2    1    2    0  503  0.93798152522E+02  0.10311777816E+03  0.29941865471E+03  0.37256597801E+03  0.17240216819E+03 0.  0.
        -24    2    3    3    0    0  0.83499524246E+00 -0.23497114313E+01  0.10239988611E+03  0.13048329554E+03  0.80832761795E+02 0.  0.
          6    2    1    2  501    0 -0.93798152522E+02 -0.10311777816E+03  0.56915835548E+01  0.22118257722E+03  0.17163323907E+03 0.  0.
         24    2    5    5    0    0 -0.53379384619E+02 -0.14820822257E+01  0.42238022627E+02  0.10576497156E+03  0.80935921471E+02 0.  0.
          5    1    5    5  501    0 -0.40418767903E+02 -0.10163569594E+03 -0.36546439072E+02  0.11541760566E+03  0.47000000000E+01 0. -1.
        -11    1    6    6    0    0  0.55607183171E+01 -0.26370507082E+02 -0.34171813033E+01  0.27166198851E+02  0.00000000000E+00 0.  1.
         12    1    6    6    0    0 -0.58940102936E+02  0.24888424856E+02  0.45655203930E+02  0.78598772712E+02  0.00000000000E+00 0. -1.
         -5    1    3    3    0  503  0.92963157279E+02  0.10546748959E+03  0.19701876860E+03  0.24208268247E+03  0.47000000000E+01 0.  1.
         13    1    4    4    0    0  0.40506693949E+02 -0.36240285999E+01  0.44495147230E+02  0.60280543835E+02  0.00000000000E+00 0. -1.
        -14    1    4    4    0    0 -0.39671698707E+02  0.12743171687E+01  0.57904738877E+02  0.70202751705E+02  0.00000000000E+00 0.  1.
</event>
<event>
12    1  0.8052519E-002  0.2627614E+03  0.7818608E-02  0.1105598E+00
         21   -1    0    0  501  502  0.00000000000E+00  0.00000000000E+00  0.59373430498E+02  0.59373430498E+02  0.00000000000E+00 0. -1.
         21   -1    0    0  502  503 -0.00000000000E+00 -0.00000000000E+00 -0.11598301417E+04  0.11598301417E+04  0.00000000000E+00 0. -1.
         -6    2    1    2    0  503 -0.19728719888E+03 -0.81561522101E+01 -0.55226432265E+03  0.61129036549E+03  0.17231154113E+03 0.  0.
        -24    2    3    3    0    0 -0.17834169240E+03  0.27254394300E+02 -0.32402048211E+03  0.37949265246E+03  0.80478812039E+02 0.  0.
          6    2    1    2  501    0  0.19728719888E+03  0.81561522101E+01 -0.54819238858E+03  0.60791320674E+03  0.17336323247E+03 0.  0.
         24    2    5    5    0    0  0.21284643761E+03  0.26446865235E+02 -0.42705313398E+03  0.48432741024E+03  0.78712250492E+02 0.  0.
          5    1    5    5  501    0 -0.15559238734E+02 -0.18290713025E+02 -0.12113925459E+03  0.12358579650E+03  0.47000000000E+01 0. -1.
        -13    1    6    6    0    0 -0.59342874445E+01  0.52036770570E+01 -0.87224407645E+01  0.11763290155E+02  0.00000000000E+00 0.  1.
         14    1    6    6    0    0  0.21878072505E+03  0.21243188178E+02 -0.41833069322E+03  0.47256412008E+03  0.00000000000E+00 0. -1.
         -5    1    3    3    0  503 -0.18945506472E+02 -0.35410546510E+02 -0.22824384054E+03  0.23179771303E+03  0.47000000000E+01 0.  1.
         13    1    4    4    0    0 -0.97890155659E+02  0.23187430137E+02 -0.25237868840E+03  0.27168942167E+03  0.00000000000E+00 0. -1.
        -14    1    4    4    0    0 -0.80451536745E+02  0.40669641629E+01 -0.71641793711E+02  0.10780323079E+03  0.00000000000E+00 0.  1.
</event>
<event>
12    1  0.8052519E-002  0.1843206E+03  0.7818608E-02  0.1166305E+00
         21   -1    0    0  501  502  0.00000000000E+00  0.00000000000E+00  0.11683016675E+03  0.11683016675E+03  0.00000000000E+00 0.  1.
         21   -1    0    0  502  503 -0.00000000000E+00 -0.00000000000E+00 -0.49842047034E+03  0.49842047034E+03  0.00000000000E+00 0. -1.
         -6    2    1    2    0  503 -0.77071623383E+01  0.65486125158E+02 -0.39399858381E+03  0.43051286511E+03  0.16049489102E+03 0.  0.
        -24    2    3    3    0    0 -0.28566259747E+02  0.41064926078E+01 -0.31859315335E+03  0.33096071707E+03  0.84855785938E+02 0.  0.
          6    2    1    2  501    0  0.77071623383E+01 -0.65486125158E+02  0.12408280220E+02  0.18473777198E+03  0.17212276444E+03 0.  0.
         24    2    5    5    0    0 -0.50860985592E+02 -0.62955564891E+01  0.62550291969E+00  0.10050787698E+03  0.86457898386E+02 0.  0.
          5    1    5    5  501    0  0.58568147930E+02 -0.59190568669E+02  0.11782777300E+02  0.84229895003E+02  0.47000000000E+01 0. -1.
        -13    1    6    6    0    0  0.44592209823E+01 -0.29921321487E+02  0.21191085928E+02  0.36935514808E+02  0.00000000000E+00 0.  1.
         14    1    6    6    0    0 -0.55320206574E+02  0.23625764998E+02 -0.20565583009E+02  0.63572362168E+02  0.00000000000E+00 0. -1.
         -5    1    3    3    0  503  0.20859097409E+02  0.61379632550E+02 -0.75405430465E+02  0.99552148045E+02  0.47000000000E+01 0.  1.
         11    1    4    4    0    0  0.18489583661E+01 -0.11579438106E+02 -0.27633401762E+03  0.27658270251E+03  0.00000000000E+00 0. -1.
        -12    1    4    4    0    0 -0.30415218113E+02  0.15685930713E+02 -0.42259135727E+02  0.54378014561E+02  0.00000000000E+00 0.  1.
</event>
<event>
12    1  0.8052519E-002  0.1774615E+03  0.7818608E-02  0.1171064E+00
         21   -1    0    0  501  502  0.00000000000E+00  0.00000000000E+00  0.65548375252E+03  0.65548375252E+03  0.00000000000E+00 0.  1.
         21   -1    0    0  502  503 -0.00000000000E+00 -0.00000000000E+00 -0.93755709954E+02  0.93755709954E+02  0.00000000000E+00 0.  1.
         -6    2    1    2    0  503 -0.30233753628E+02  0.21936201797E+02  0.15620147308E+02  0.17502135539E+03  0.17027392353E+03 0.  0.
        -24    2    3    3    0    0 -0.72136503609E+02 -0.66402011341E+01  0.45206508917E+02  0.11611554877E+03  0.78685607287E+02 0.  0.
          6    2    1    2  501    0  0.30233753628E+02 -0.21936201797E+02  0.54610789526E+03  0.57421810708E+03  0.17348580469E+03 0.  0.
         24    2    5    5    0    0  0.55085217645E+02 -0.43845267945E+02  0.52264123537E+03  0.53334786645E+03  0.79682476181E+02 0.  0.
          5    1    5    5  501    0 -0.24851464017E+02  0.21909066148E+02  0.23466659887E+02  0.40870240635E+02  0.47000000000E+01 0. -1.
        -11    1    6    6    0    0  0.48571324795E+02 -0.61627408339E+02  0.30672792608E+03  0.31660564065E+03  0.00000000000E+00 0.  1.
         12    1    6    6    0    0  0.65138928498E+01  0.17782140394E+02  0.21591330929E+03  0.21674222580E+03  0.00000000000E+00 0. -1.
         -5    1    3    3    0  503  0.41902749981E+02  0.28576402931E+02 -0.29586361609E+02  0.58905806621E+02  0.47000000000E+01 0.  1.
         11    1    4    4    0    0 -0.44205688260E+02  0.32799813808E+02  0.38842208969E+02  0.67369784458E+02  0.00000000000E+00 0. -1.
        -12    1    4    4    0    0 -0.27930815349E+02 -0.39440014942E+02  0.63642999482E+01  0.48745764314E+02  0.00000000000E+00 0.  1.
</event>
<event>
12    1  0.8052519E-002  0.1992246E+03  0.7818608E-02  0.1150477E+00
         21   -1    0    0  501  502  0.00000000000E+00  0.00000000000E+00  0.22164702962E+03  0.22164702962E+03  0.00000000000E+00 0. -1.
         21   -1    0    0  502  503 -0.00000000000E+00 -0.00000000000E+00 -0.17893613168E+03  0.17893613168E+03  0.00000000000E+00 0. -1.
         -6    2    1    2    0  503  0.11653038498E+02 -0.99463915549E+02  0.14445923953E+02  0.19974761233E+03  0.17222531786E+03 0.  0.
        -24    2    3    3    0    0  0.71244245330E+02 -0.81354026336E+02  0.24111357689E+02  0.13654483844E+03  0.79805483774E+02 0.  0.
          6    2    1    2  501    0 -0.11653038498E+02  0.99463915549E+02  0.28264973990E+02  0.20083554896E+03  0.17177643951E+03 0.  0.
         24    2    5    5    0    0  0.44104189158E+02  0.72830267297E+02 -0.23643347274E+02  0.11999754137E+03  0.81184818336E+02 0.  0.
          5    1    5    5  501    0 -0.55757227657E+02  0.26633648252E+02  0.51908321264E+02  0.80838007593E+02  0.47000000000E+01 0. -1.
        -13    1    6    6    0    0  0.74416421749E+01 -0.44585380930E+01 -0.32834923909E+02  0.33961578707E+02  0.00000000000E+00 0.  1.
         14    1    6    6    0    0  0.36662546983E+02  0.77288805390E+02  0.91915766356E+01  0.86035962661E+02  0.00000000000E+00 0. -1.
         -5    1    3    3    0  503 -0.59591206832E+02 -0.18109889213E+02 -0.96654337358E+01  0.63202773897E+02  0.47000000000E+01 0.  1.
         13    1    4    4    0    0  0.10334509055E+02 -0.71976785097E+02  0.11070045263E+02  0.73552740075E+02  0.00000000000E+00 0. -1.
        -14    1    4    4    0    0  0.60909736275E+02 -0.93772412389E+01  0.13041312425E+02  0.62992098363E+02  0.00000000000E+00 0.  1.
</event>
<event>
12    1  0.8052519E-002  0.1859314E+03  0.7818608E-02  0.1162510E+00
         21   -1    0    0  503  502  0.00000000000E+00  0.00000000000E+00  0.27637463536E+03  0.27637463536E+03  0.00000000000E+00 0.  1.
         21   -1    0    0  501  503 -0.00000000000E+00 -0.00000000000E+00 -0.12771788683E+03  0.12771788683E+03  0.00000000000E+00 0. -1.
          6    2    1    2  501    0  0.18964263573E+02  0.68774942698E+02  0.40247472308E+02  0.18886459891E+03  0.17017738292E+03 0.  0.
         24    2    3    3    0    0  0.46355061182E+02 -0.93485828887E+01 -0.89010344513E+01  0.92473692906E+02  0.78968143995E+02 0.  0.
         -6    2    1    2    0  502 -0.18964263573E+02 -0.68774942698E+02  0.10840927622E+03  0.21522792328E+03  0.17169988863E+03 0.  0.
        -24    2    5    5    0    0  0.21403914621E+02 -0.74716848826E+02  0.13772552162E+02  0.11206254343E+03  0.79546183996E+02 0.  0.
          5    1    3    3  501    0 -0.27390797609E+02  0.78123525587E+02  0.49148506760E+02  0.96390906005E+02  0.47000000000E+01 0. -1.
        -11    1    4    4    0    0  0.81139357652E+01  0.79051846558E+01  0.31961096486E+02  0.33909284667E+02  0.00000000000E+00 0.  1.
         12    1    4    4    0    0  0.38241125417E+02 -0.17253767544E+02 -0.40862130937E+02  0.58564408239E+02  0.00000000000E+00 0. -1.
         -5    1    5    5    0  502 -0.40368178195E+02  0.59419061282E+01  0.94636724058E+02  0.10316537985E+03  0.47000000000E+01 0.  1.
         11    1    6    6    0    0 -0.17037599361E+01 -0.85610948993E+02  0.11840232827E+02  0.86442631258E+02  0.00000000000E+00 0. -1.
        -12    1    6    6    0    0  0.23107674558E+02  0.10894100167E+02  0.19323193343E+01  0.25619912176E+02  0.00000000000E+00 0.  1.
</event>
<event>
12    1  0.8052519E-002  0.1919140E+03  0.7818608E-02  0.1157296E+00
         21   -1    0    0  503  502  0.00000000000E+00  0.00000000000E+00  0.84180640700E+02  0.84180640700E+02  0.00000000000E+00 0. -1.
         21   -1    0    0  501  503 -0.00000000000E+00 -0.00000000000E+00 -0.43235937057E+03  0.43235937057E+03  0.00000000000E+00 0.  1.
          6    2    1    2  501    0 -0.76127585450E+02 -0.22585830900E+02 -0.18089469150E+03  0.26195227082E+03  0.17201910868E+03 0.  0.
         24    2    3    3    0    0 -0.19338364229E+02 -0.70941315360E+02 -0.13821555157E+03  0.17588911081E+03  0.80167312866E+02 0.  0.
         -6    2    1    2    0  502  0.76127585450E+02  0.22585830900E+02 -0.16728403838E+03  0.25458774046E+03  0.17471530863E+03 0.  0.
        -24    2    5    5    0    0 -0.81368729836E+01  0.39310662094E+02 -0.34258444341E+02  0.96163886185E+02  0.80388526180E+02 0.  0.
          5    1    3    3  501    0 -0.56789221221E+02  0.48355484461E+02 -0.42679139929E+02  0.86063160001E+02  0.47000000000E+01 0. -1.
        -11    1    4    4    0    0  0.48510249943E+01  0.14020309755E+02 -0.45366924034E+02  0.47731114857E+02  0.00000000000E+00 0.  1.
         12    1    4    4    0    0 -0.24189389223E+02 -0.84961625116E+02 -0.92848627533E+02  0.12815799596E+03  0.00000000000E+00 0. -1.
         -5    1    5    5    0  502  0.84264458434E+02 -0.16724831194E+02 -0.13302559403E+03  0.15842385427E+03  0.47000000000E+01 0.  1.
         13    1    6    6    0    0 -0.29089618033E+02 -0.11635279641E+02 -0.25478091506E+02  0.40382158887E+02  0.00000000000E+00 0. -1.
        -14    1    6    6    0    0  0.20952745050E+02  0.50945941735E+02 -0.87803528351E+01  0.55781727298E+02  0.00000000000E+00 0.  1.
</event>
<event>
12    1  0.8052519E-002  0.1977512E+03  0.7818608E-02  0.1151667E+00
         21   -1    0    0  501  502  0.00000000000E+00  0.00000000000E+00  0.32723158757E+03  0.32723158757E+03  0.00000000000E+00 0. -1.
         21   -1    0    0  502  503 -0.00000000000E+00 -0.00000000000E+00 -0.15212018413E+03  0.15212018413E+03  0.00000000000E+00 0. -1.
         -6    2    1    2    0  503  0.88734619956E+02 -0.38282016039E+02 -0.23519672066E+02  0.19906646609E+03  0.17243821333E+03 0.  0.
        -24    2    3    3    0    0  0.37128659915E+02  0.45376425852E+02 -0.17426762365E+02  0.10047070776E+03  0.79706421708E+02 0.  0.
          6    2    1    2  501    0 -0.88734619956E+02  0.38282016039E+02  0.19863107550E+03  0.28028530561E+03  0.17252884645E+03 0.  0.
         24    2    5    5    0    0 -0.55366656689E+01 -0.93830681929E+01  0.33528340846E+02  0.89301372146E+02  0.82048088289E+02 0.  0.
          5    1    5    5  501    0 -0.83197954287E+02  0.47665084232E+02  0.16510273465E+03  0.19098393346E+03  0.47000000000E+01 0. -1.
        -13    1    6    6    0    0  0.24724582222E+02  0.16807152061E+02  0.38748910087E+02  0.48941427844E+02  0.00000000000E+00 0.  1.
         14    1    6    6    0    0 -0.30261247891E+02 -0.26190220254E+02 -0.52205692408E+01  0.40359944302E+02  0.00000000000E+00 0. -1.
         -5    1    3    3    0  503  0.51605960040E+02 -0.83658441891E+02 -0.60929097010E+01  0.98595758326E+02  0.47000000000E+01 0.  1.
         11    1    4    4    0    0  0.52405216852E+02  0.49666136805E+02  0.56977315453E+01  0.72425796807E+02  0.00000000000E+00 0. -1.
        -12    1    4    4    0    0 -0.15276556937E+02 -0.42897109526E+01 -0.23124493910E+02  0.28044910955E+02  0.00000000000E+00 0.  1.
</event>
<event>
12    1  0.8052519E-002  0.1909287E+03  0.7818608E-02  0.1157928E+00
         21   -1    0    0  501  502  0.00000000000E+00  0.00000000000E+00  0.47868908984E+03  0.47868908984E+03  0.00000000000E+00 0. -1.
         21   -1    0    0  502  503 -0.00000000000E+00 -0.00000000000E+00 -0.18721756782E+03  0.18721756782E+03  0.00000000000E+00 0.  1.
         -6    2    1    2    0  503 -0.63255318654E+02  0.52818536012E+02 -0.11111843457E+03  0.22090962885E+03  0.17222869835E+03 0.  0.
        -24    2    3    3    0    0  0.23259307709E+02  0.45554488386E+02 -0.26110976361E+02  0.99312322495E+02  0.81024363654E+02 0.  0.
          6    2    1    2  501    0  0.63255318654E+02 -0.52818536012E+02  0.40258995659E+03  0.44499702881E+03  0.17074146952E+03 0.  0.
         24    2    5    5    0    0  0.61830159724E+02 -0.97500829166E+02  0.27967142815E+03  0.31411695762E+03  0.84403643299E+02 0.  0.
          5    1    5    5  501    0  0.14251589300E+01  0.44682293154E+02  0.12291852844E+03  0.13088007119E+03  0.47000000000E+01 0. -1.
        -11    1    6    6    0    0 -0.82194078318E+01 -0.18282250060E+02  0.63100855411E+01  0.21014673728E+02  0.00000000000E+00 0.  1.
         12    1    6    6    0    0  0.70049567555E+02 -0.79218579106E+02  0.27336134261E+03  0.29310228389E+03  0.00000000000E+00 0. -1.
         -5    1    3    3    0  503 -0.86514626363E+02  0.72640476262E+01 -0.85007458205E+02  0.12159730636E+03  0.47000000000E+01 0.  1.
         13    1    4    4    0    0 -0.21902722330E+02  0.14043616923E+02  0.15504585172E+02  0.30287696894E+02  0.00000000000E+00 0. -1.
        -14    1    4    4    0    0  0.45162030040E+02  0.31510871463E+02 -0.41615561533E+02  0.69024625601E+02  0.00000000000E+00 0.  1.
</event>
<event>
12    1  0.8052519E-002  0.2438191E+03  0.7818608E-02  0.1117510E+00
         21   -1    0    0  501  502  0.00000000000E+00  0.00000000000E+00  0.32938106832E+03  0.32938106832E+03  0.00000000000E+00 0. -1.
         21   -1    0    0  502  503 -0.00000000000E+00 -0.00000000000E+00 -0.24033074932E+03  0.24033074932E+03  0.00000000000E+00 0. -1.
         -6    2    1    2    0  503 -0.10301612877E+03  0.13610280645E+03 -0.98782414353E+02  0.26306981326E+03  0.17410187982E+03 0.  0.
        -24    2    3    3    0    0 -0.45656548849E+02  0.15285808089E+03 -0.51176372873E+02  0.18652384136E+03  0.81987858302E+02 0.  0.
          6    2    1    2  501    0  0.10301612877E+03 -0.13610280645E+03  0.18783273336E+03  0.30664200438E+03  0.17208104608E+03 0.  0.
         24    2    5    5    0    0  0.13421532871E+03 -0.10845183658E+03  0.11256650353E+03  0.22047320745E+03  0.78496255750E+02 0.  0.
          5    1    5    5  501    0 -0.31199199945E+02 -0.27650969867E+02  0.75266229830E+02  0.86168796931E+02  0.47000000000E+01 0. -1.
        -11    1    6    6    0    0  0.45244424724E+02 -0.45941557751E+02  0.72183905730E+00  0.64484151144E+02  0.00000000000E+00 0.  1.
         12    1    6    6    0    0  0.88970903987E+02 -0.62510278829E+02  0.11184466447E+03  0.15598905630E+03  0.00000000000E+00 0. -1.
         -5    1    3    3    0  503 -0.57359579916E+02 -0.16755274441E+02 -0.47606041480E+02  0.76545971907E+02  0.47000000000E+01 0.  1.
         13    1    4    4    0    0 -0.18518028587E+02  0.55182782041E+02 -0.61435337808E+02  0.84630712795E+02  0.00000000000E+00 0. -1.
        -14    1    4    4    0    0 -0.27138520262E+02  0.97675298847E+02  0.10258964935E+02  0.10189312856E+03  0.00000000000E+00 0.  1.
</event>
<event>
12    1  0.8052519E-002  0.1732200E+03  0.7818608E-02  0.1174535E+00
         21   -1    0    0  503  502  0.00000000000E+00  0.00000000000E+00  0.22866492251E+03  0.22866492251E+03  0.00000000000E+00 0. -1.
         21   -1    0    0  501  503 -0.00000000000E+00 -0.00000000000E+00 -0.14491011873E+03  0.14491011873E+03  0.00000000000E+00 0. -1.
          6    2    1    2  501    0  0.65046342529E+01 -0.17063541443E+02 -0.15563411397E+02  0.17390209298E+03  0.17223891388E+03 0.  0.
         24    2    3    3    0    0  0.59798047583E+02 -0.47992940215E+02 -0.20535304429E+02  0.11190511456E+03  0.78879193275E+02 0.  0.
         -6    2    1    2    0  502 -0.65046342529E+01  0.17063541443E+02  0.99318215179E+02  0.19967294826E+03  0.17225476390E+03 0.  0.
        -24    2    5    5    0    0  0.48218338010E+02 -0.34031476512E+02  0.47954865289E+02  0.10875766755E+03  0.77752245196E+02 0.  0.
          5    1    3    3  501    0 -0.53293413330E+02  0.30929398772E+02  0.49718930316E+01  0.61996978419E+02  0.47000000000E+01 0. -1.
        -13    1    4    4    0    0  0.50030703523E+01 -0.69560220646E+01  0.27153992582E+02  0.28473782135E+02  0.00000000000E+00 0.  1.
         14    1    4    4    0    0  0.54794977231E+02 -0.41036918150E+02 -0.47689297011E+02  0.83431332426E+02  0.00000000000E+00 0. -1.
         -5    1    5    5    0  502 -0.54722972263E+02  0.51095017955E+02  0.51363349890E+02  0.90915280701E+02  0.47000000000E+01 0.  1.
         11    1    6    6    0    0 -0.15756207860E+02 -0.27673320539E+02  0.25026077883E+02  0.40501547254E+02  0.00000000000E+00 0. -1.
        -12    1    6    6    0    0  0.63974545869E+02 -0.63581559725E+01  0.22928787407E+02  0.68256120301E+02  0.00000000000E+00 0.  1.
</event>
<event>
12    1  0.8052519E-002  0.1757111E+03  0.7818608E-02  0.1172590E+00
         21   -1    0    0  503  502  0.00000000000E+00  0.00000000000E+00  0.22458983849E+04  0.22458983849E+04  0.00000000000E+00 0. -1.
         21   -1    0    0  501  503 -0.00000000000E+00 -0.00000000000E+00 -0.21992555151E+02  0.21992555151E+02  0.00000000000E+00 0. -1.
          6    2    1    2  501    0 -0.85919160713E+01 -0.28659516405E+02  0.40577575701E+03  0.44128989731E+03  0.17084384563E+03 0.  0.
         24    2    3    3    0    0 -0.61704641738E+02  0.14289224038E+01  0.32266312381E+03  0.33806162805E+03  0.79778871008E+02 0.  0.
         -6    2    1    2    0  502  0.85919160713E+01  0.28659516405E+02  0.18181300727E+04  0.18266010427E+04  0.17314508090E+03 0.  0.
        -24    2    5    5    0    0  0.10166977726E+01  0.81509117400E+02  0.14615395632E+04  0.14660052222E+04  0.80178843768E+02 0.  0.
          5    1    3    3  501    0  0.53112725666E+02 -0.30088438808E+02  0.83112633197E+02  0.10322826926E+03  0.47000000000E+01 0. -1.
        -11    1    4    4    0    0  0.71869046892E+01  0.22931506907E+02  0.43241976836E+02  0.49470942670E+02  0.00000000000E+00 0.  1.
         12    1    4    4    0    0 -0.68891546427E+02 -0.21502584503E+02  0.27942114698E+03  0.28859068538E+03  0.00000000000E+00 0. -1.
         -5    1    5    5    0  502  0.75752182987E+01 -0.52849600995E+02  0.35659050952E+03  0.36059582046E+03  0.47000000000E+01 0.  1.
         11    1    6    6    0    0  0.33412508343E+02  0.11508607287E+02  0.34523047548E+03  0.34703447229E+03  0.00000000000E+00 0. -1.
        -12    1    6    6    0    0 -0.32395810571E+02  0.70000510113E+02  0.11163090877E+04  0.11189707499E+04  0.00000000000E+00 0.  1.
</event>
<event>
12    1  0.8052519E-002  0.1744560E+03  0.7818608E-02  0.1173297E+00
         21   -1    0    0  503  502  0.00000000000E+00  0.00000000000E+00  0.77169487991E+03  0.77169487991E+03  0.00000000000E+00 0. -1.
         21   -1    0    0  501  503 -0.00000000000E+00 -0.00000000000E+00 -0.75237912857E+02  0.75237912857E+02  0.00000000000E+00 0. -1.
          6    2    1    2  501    0 -0.37307971605E+01  0.23436735823E+02  0.56020486410E+02  0.18316041446E+03  0.17276065262E+03 0.  0.
         24    2    3    3    0    0  0.28520529744E+02 -0.31498515187E+02  0.75206967992E+02  0.11646527996E+03  0.78118476211E+02 0.  0.
         -6    2    1    2    0  502  0.37307971605E+01 -0.23436735823E+02  0.64043648064E+03  0.66377237831E+03  0.17283427042E+03 0.  0.
        -24    2    5    5    0    0  0.60862718819E+02 -0.49594059659E+02  0.42089491292E+03  0.43536736081E+03  0.78920021765E+02 0.  0.
          5    1    3    3  501    0 -0.32251326904E+02  0.54935251010E+02 -0.19186481582E+02  0.66695134501E+02  0.47000000000E+01 0. -1.
        -13    1    4    4    0    0  0.10696112579E+02  0.71431158972E+01  0.72708639857E+02  0.73837505638E+02  0.00000000000E+00 0.  1.
         14    1    4    4    0    0  0.17824417165E+02 -0.38641631084E+02  0.24983281354E+01  0.42627774321E+02  0.00000000000E+00 0. -1.
         -5    1    5    5    0  502 -0.57131921659E+02  0.26157323837E+02  0.21954156772E+03  0.22840501750E+03  0.47000000000E+01 0.  1.
         11    1    6    6    0    0  0.61987684889E+02 -0.94536395103E+01  0.16832260125E+03  0.17962277826E+03  0.00000000000E+00 0. -1.
        -12    1    6    6    0    0 -0.11249660703E+01 -0.40140420149E+02  0.25257231167E+03  0.25574458255E+03  0.00000000000E+00 0.  1.
</event>
<event>
12    1  0.8052519E-002  0.1815357E+03  0.7818608E-02  0.1166731E+00
         21   -1    0    0  503  502  0.00000000000E+00  0.00000000000E+00  0.19454393095E+03  0.19454393095E+03  0.00000000000E+00 0. -1.
         21   -1    0    0  501  503 -0.00000000000E+00 -0.00000000000E+00 -0.19957206851E+03  0.19957206851E+03  0.00000000000E+00 0.  1.
          6    2    1    2  501    0 -0.54315430186E+02  0.22790238036E+02 -0.81117980370E+02  0.19883496811E+03  0.17171388092E+03 0.  0.
         24    2    3    3    0    0 -0.15005394948E+02  0.61054388711E+02 -0.64121710488E+01  0.10603156277E+03  0.85139744581E+02 0.  0.
         -6    2    1    2    0  502  0.54315430186E+02 -0.22790238036E+02  0.76089842804E+02  0.19528103134E+03  0.16992779678E+03 0.  0.
        -24    2    5    5    0    0  0.90139293290E+02  0.18750369199E+02  0.73096443127E+02  0.14014463992E+03  0.76293915626E+02 0.  0.
          5    1    3    3  501    0 -0.39310035238E+02 -0.38264150675E+02 -0.74705809321E+02  0.92803405345E+02  0.47000000000E+01 0. -1.
        -13    1    4    4    0    0 -0.78261268313E+01  0.42594525162E+02 -0.45125983977E+02  0.62545153808E+02  0.00000000000E+00 0.  1.
         14    1    4    4    0    0 -0.71792681166E+01  0.18459863549E+02  0.38713812928E+02  0.43486408962E+02  0.00000000000E+00 0. -1.
         -5    1    5    5    0  502 -0.35823863104E+02 -0.41540607235E+02  0.29933996766E+01  0.55136391420E+02  0.47000000000E+01 0.  1.
         11    1    6    6    0    0  0.22165645311E+02  0.71582264888E+00 -0.15479899907E+02  0.27045434648E+02  0.00000000000E+00 0. -1.
        -12    1    6    6    0    0  0.67973647978E+02  0.18034546550E+02  0.88576343034E+02  0.11309920528E+03  0.00000000000E+00 0.  1.
</event>
<event>
12    1  0.8052519E-002  0.2905188E+03  0.7818608E-02  0.1090210E+00
         21   -1    0    0  503  502  0.00000000000E+00  0.00000000000E+00  0.40801146434E+03  0.40801146434E+03  0.00000000000E+00 0. -1.
         21   -1    0    0  501  503 -0.00000000000E+00 -0.00000000000E+00 -0.29748468054E+03  0.29748468054E+03  0.00000000000E+00 0.  1.
          6    2    1    2  501    0  0.23105964012E+03 -0.28388002826E+02 -0.14013508970E+03  0.32255082454E+03  0.17380090636E+03 0.  0.
         24    2    3    3    0    0  0.14973931849E+03 -0.82808331014E+02 -0.66225689086E+02  0.19983466289E+03  0.79176811076E+02 0.  0.
         -6    2    1    2    0  502 -0.23105964012E+03  0.28388002826E+02  0.25066187350E+03  0.38294532033E+03  0.17210841799E+03 0.  0.
        -24    2    5    5    0    0 -0.23537866273E+03  0.41576991429E+02  0.26258183426E+03  0.36405673009E+03  0.80351241178E+02 0.  0.
          5    1    3    3  501    0  0.81320321628E+02  0.54420328189E+02 -0.73909400610E+02  0.12271616164E+03  0.47000000000E+01 0. -1.
        -13    1    4    4    0    0  0.12232856876E+03 -0.27847445754E+02 -0.31792619766E+02  0.12942383722E+03  0.00000000000E+00 0.  1.
         14    1    4    4    0    0  0.27410749735E+02 -0.54960885261E+02 -0.34433069320E+02  0.70410825677E+02  0.00000000000E+00 0. -1.
         -5    1    5    5    0  502  0.43190226103E+01 -0.13188988603E+02 -0.11919960763E+02  0.18888590240E+02  0.47000000000E+01 0.  1.
         11    1    6    6    0    0 -0.65470376205E+02 -0.24272224498E+02  0.77818437131E+02  0.10455247582E+03  0.00000000000E+00 0. -1.
        -12    1    6    6    0    0 -0.16990828652E+03  0.65849215927E+02  0.18476339713E+03  0.25950425427E+03  0.00000000000E+00 0.  1.
</event>
<event>
12    1  0.8052519E-002  0.1829246E+03  0.7818608E-02  0.1165319E+00
         21   -1    0    0  503  502  0.00000000000E+00  0.00000000000E+00  0.11932376394E+04  0.11932376394E+04  0.00000000000E+00 0. -1.
         21   -1    0    0  501  503 -0.00000000000E+00 -0.00000000000E+00 -0.27335141855E+03  0.27335141855E+03  0.00000000000E+00 0. -1.
          6    2    1    2  501    0  0.21057076378E+02 -0.58832375962E+02 -0.23483733659E+03  0.29767427923E+03  0.17192077516E+03 0.  0.
         24    2    3    3    0    0  0.63634826746E+02 -0.26674132896E+02 -0.75573773037E+02  0.12964454942E+03  0.79595310688E+02 0.  0.
         -6    2    1    2    0  502 -0.21057076378E+02  0.58832375962E+02  0.11547235575E+04  0.11689147788E+04  0.17050107588E+03 0.  0.
        -24    2    5    5    0    0 -0.41905362187E+02 -0.26198800809E+02  0.61114210180E+03  0.61830798530E+03  0.79797616189E+02 0.  0.
          5    1    3    3  501    0 -0.42577750367E+02 -0.32158243067E+02 -0.15926356355E+03  0.16802972981E+03  0.47000000000E+01 0. -1.
        -13    1    4    4    0    0  0.56212119679E+02 -0.26132016308E+02 -0.89803150783E+01  0.62636496822E+02  0.00000000000E+00 0.  1.
         14    1    4    4    0    0  0.74227070662E+01 -0.54211658753E+00 -0.66593457959E+02  0.67008052602E+02  0.00000000000E+00 0. -1.
         -5    1    5    5    0  502  0.20848285809E+02  0.85031176771E+02  0.54358145567E+03  0.55060679345E+03  0.47000000000E+01 0.  1.
         13    1    6    6    0    0 -0.50264477891E+02  0.36848713839E+01  0.51072272421E+03  0.51320346554E+03  0.00000000000E+00 0. -1.
        -14    1    6    6    0    0  0.83591157032E+01 -0.29883672192E+02  0.10041937759E+03  0.10510451976E+03  0.00000000000E+00 0.  1.
</event>
<event>
12    1  0.8052519E-002  0.1969169E+03  0.7818608E-02  0.1152739E+00
         21   -1    0    0  503  502  0.00000000000E+00  0.00000000000E+00  0.12545423260E+03  0.12545423260E+03  0.00000000000E+00 0.  1.
         21   -1    0    0  501  503 -0.00000000000E+00 -0.00000000000E+00 -0.40396689583E+03  0.40396689583E+03  0.00000000000E+00 0.  1.
          6    2    1    2  501    0  0.89490187079E+02  0.21688274812E+01 -0.86933170480E+01  0.19538705980E+03  0.17345700326E+03 0.  0.
         24    2    3    3    0    0  0.10222158048E+03 -0.48023821850E+02 -0.27054621387E+02  0.14024526148E+03  0.78620874128E+02 0.  0.
         -6    2    1    2    0  502 -0.89490187079E+02 -0.21688274812E+01 -0.26981934618E+03  0.33403406864E+03  0.17539407642E+03 0.  0.
        -24    2    5    5    0    0  0.19664850573E+01  0.46593771856E+02 -0.13159222008E+03  0.16120194673E+03  0.80589754969E+02 0.  0.
          5    1    3    3  501    0 -0.12731393398E+02  0.50192649331E+02  0.18361304339E+02  0.55141798318E+02  0.47000000000E+01 0. -1.
        -11    1    4    4    0    0  0.10378281280E+03 -0.50008137148E+02 -0.21601256715E+01  0.11522305393E+03  0.00000000000E+00 0.  1.
         12    1    4    4    0    0 -0.15612323274E+01  0.19843152977E+01 -0.24894495716E+02  0.25022207547E+02  0.00000000000E+00 0. -1.
         -5    1    5    5    0  502 -0.91456672137E+02 -0.48762599337E+02 -0.13822712610E+03  0.17283212190E+03  0.47000000000E+01 0.  1.
         13    1    6    6    0    0 -0.35489883275E+01 -0.20828238335E+02 -0.55509839449E+02  0.59394891245E+02  0.00000000000E+00 0. -1.
        -14    1    6    6    0    0  0.55154733848E+01  0.67422010191E+02 -0.76082380630E+02  0.10180705549E+03  0.00000000000E+00 0.  1.
</event>
<event>
12    1  0.8052519E-002  0.1753036E+03  0.7818608E-02  0.1172997E+00
         21   -1    0    0  503  502  0.00000000000E+00  0.00000000000E+00  0.63623626648E+02  0.63623626648E+02  0.00000000000E+00 0. -1.
         21   -1    0    0  501  503 -0.00000000000E+00 -0.00000000000E+00 -0.65922608257E+03  0.65922608257E+03  0.00000000000E+00 0. -1.
          6    2    1    2  501    0  0.17618370401E+02 -0.94489514089E+01 -0.48652108879E+03  0.51637914337E+03  0.17188647476E+03 0.  0.
         24    2    3    3    0    0 -0.39848342396E+02 -0.39513869228E+02 -0.19820206638E+03  0.22081820033E+03  0.79544844122E+02 0.  0.
         -6    2    1    2    0  502 -0.17618370401E+02  0.94489514089E+01 -0.10908136712E+03  0.20647056585E+03  0.17415986980E+03 0.  0.
        -24    2    5    5    0    0 -0.63259120623E+02 -0.10235044754E+02 -0.11853612336E+03  0.15565698300E+03  0.77921828354E+02 0.  0.
          5    1    3    3  501    0  0.57466712797E+02  0.30064917819E+02 -0.28831902241E+03  0.29556094303E+03  0.47000000000E+01 0. -1.
        -11    1    4    4    0    0 -0.25818357027E+02  0.65476511686E+01 -0.13342654015E+02  0.29790698407E+02  0.00000000000E+00 0.  1.
         12    1    4    4    0    0 -0.14029985369E+02 -0.46061520396E+02 -0.18485941237E+03  0.19102750193E+03  0.00000000000E+00 0. -1.
         -5    1    5    5    0  502  0.45640750222E+02  0.19683996163E+02  0.94547562345E+01  0.50813582842E+02  0.47000000000E+01 0.  1.
         11    1    6    6    0    0 -0.60647491157E+02 -0.22999752876E+02 -0.40341234502E+02  0.76384042948E+02  0.00000000000E+00 0. -1.
        -12    1    6    6    0    0 -0.26116294666E+01  0.12764708121E+02 -0.78194888857E+02  0.79272940056E+02  0.00000000000E+00 0.  1.
</event>
<event>
12    1  0.8052519E-002  0.1893393E+03  0.7818608E-02  0.1159278E+00
         21   -1    0    0  501  502  0.00000000000E+00  0.00000000000E+00  0.82549501359E+02  0.82549501359E+02  0.00000000000E+00 0. -1.
         21   -1    0    0  502  503 -0.00000000000E+00 -0.00000000000E+00 -0.69841208804E+03  0.69841208804E+03  0.00000000000E+00 0. -1.
         -6    2    1    2    0  503  0.14137836388E+02 -0.74756758007E+02 -0.54858379253E+03  0.58002424484E+03  0.17232381118E+03 0.  0.
        -24    2    3    3    0    0  0.55720373247E+02 -0.54043815519E+02 -0.20340144331E+03  0.23169813677E+03  0.79286729344E+02 0.  0.
          6    2    1    2  501    0 -0.14137836388E+02  0.74756758007E+02 -0.67278794151E+02  0.20093734455E+03  0.17338087844E+03 0.  0.
         24    2    5    5    0    0 -0.52327831623E+02  0.42600539671E+02 -0.97075608039E+02  0.14260692169E+03  0.79749937265E+02 0.  0.
          5    1    5    5  501    0  0.38189995235E+02  0.32156218335E+02  0.29796813888E+02  0.58330422865E+02  0.47000000000E+01 0. -1.
        -13    1    6    6    0    0 -0.71440233526E+02  0.35540370027E+02 -0.58359073162E+02  0.98856493404E+02  0.00000000000E+00 0.  1.
         14    1    6    6    0    0  0.19112401903E+02  0.70601696445E+01 -0.38716534878E+02  0.43750428282E+02  0.00000000000E+00 0. -1.
         -5    1    3    3    0  503 -0.41582536858E+02 -0.20712942488E+02 -0.34518234921E+03  0.34832610808E+03  0.47000000000E+01 0.  1.
         13    1    4    4    0    0  0.23743539245E+02 -0.25351330551E+02 -0.17889886415E+03  0.18223953800E+03  0.00000000000E+00 0. -1.
        -14    1    4    4    0    0  0.31976834002E+02 -0.28692484968E+02 -0.24502579160E+02  0.49458598766E+02  0.00000000000E+00 0.  1.
</event>
<event>
12    1  0.8052519E-002  0.1815886E+03  0.7818608E-02  0.1166377E+00
         21   -1    0    0  501  502  0.00000000000E+00  0.00000000000E+00  0.35880761510E+03  0.35880761510E+03  0.00000000000E+00 0. -1.
         21   -1    0    0  502  503 -0.00000000000E+00 -0.00000000000E+00 -0.10836977299E+03  0.10836977299E+03  0.00000000000E+00 0. -1.
         -6    2    1    2    0  503 -0.15265930041E+02 -0.55953195760E+02  0.33683512759E+02  0.18468626136E+03  0.17207738773E+03 0.  0.
        -24    2    3    3    0    0 -0.15979916533E+02 -0.10080699102E+03  0.47520617088E+02  0.13750651801E+03  0.78945717266E+02 0.  0.
          6    2    1    2  501    0  0.15265930041E+02  0.55953195760E+02  0.21675432935E+03  0.28249112673E+03  0.17162455725E+03 0.  0.
         24    2    5    5    0    0 -0.24638883057E+02  0.76628779568E+02  0.20731777293E+03  0.23632823610E+03  0.79945805323E+02 0.  0.
          5    1    5    5  501    0  0.39904813098E+02 -0.20675583808E+02  0.94365564224E+01  0.46162890630E+02  0.47000000000E+01 0. -1.
        -13    1    6    6    0    0 -0.46266739680E+01  0.76423923865E+02  0.93898160468E+02  0.12115645583E+03  0.00000000000E+00 0.  1.
         14    1    6    6    0    0 -0.20012209089E+02  0.20485570336E+00  0.11341961246E+03  0.11517178027E+03  0.00000000000E+00 0. -1.
         -5    1    3    3    0  503  0.71398649135E+00  0.44853795265E+02 -0.13837104329E+02  0.47179743350E+02  0.47000000000E+01 0.  1.
         13    1    4    4    0    0 -0.23718778266E+02  0.25739821342E+01  0.17464913482E+02  0.29567364262E+02  0.00000000000E+00 0. -1.
        -14    1    4    4    0    0  0.77388617339E+01 -0.10338097316E+03  0.30055703606E+02  0.10793915375E+03  0.00000000000E+00 0.  1.
</event>
<event>
12    1  0.8052519E-002  0.1760424E+03  0.7818608E-02  0.1172434E+00
         21   -1    0    0  501  502  0.00000000000E+00  0.00000000000E+00  0.21335123321E+03  0.21335123321E+03  0.00000000000E+00 0.  1.
         21   -1    0    0  502  503 -0.00000000000E+00 -0.00000000000E+00 -0.14282405415E+03  0.14282405415E+03  0.00000000000E+00 0.  1.
         -6    2    1    2    0  503  0.37284645349E+02  0.25735168145E+01  0.36110356302E+02  0.17970773744E+03  0.17202948961E+03 0.  0.
        -24    2    3    3    0    0  0.72441345942E+02  0.33890564324E+02  0.57419649878E+02  0.12781431730E+03  0.81505610615E+02 0.  0.
          6    2    1    2  501    0 -0.37284645349E+02 -0.25735168145E+01  0.34416822755E+02  0.17646754993E+03  0.16899559379E+03 0.  0.
         24    2    5    5    0    0  0.21933628668E+02  0.33672734901E+02 -0.19001453768E+02  0.88739578288E+02  0.76803127327E+02 0.  0.
          5    1    5    5  501    0 -0.59218274017E+02 -0.36246251715E+02  0.53418276523E+02  0.87727971638E+02  0.47000000000E+01 0. -1.
        -13    1    6    6    0    0 -0.22030932293E+02  0.94393362991E-01  0.12243925415E+02  0.25204852655E+02  0.00000000000E+00 0.  1.
         14    1    6    6    0    0  0.43964560961E+02  0.33578341538E+02 -0.31245379183E+02  0.63534725633E+02  0.00000000000E+00 0. -1.
         -5    1    3    3    0  503 -0.35156700593E+02 -0.31317047509E+02 -0.21309293576E+02  0.51893420141E+02  0.47000000000E+01 0.  1.
         13    1    4    4    0    0  0.51354405384E+02  0.27667468682E+02  0.78201101715E+02  0.97561140241E+02  0.00000000000E+00 0. -1.
        -14    1    4    4    0    0  0.21086940558E+02  0.62230956414E+01 -0.20781451837E+02  0.30253177055E+02  0.00000000000E+00 0.  1.
</event>
<event>
12    1  0.8052519E-002  0.1767477E+03  0.7818608E-02  0.1171007E+00
         21   -1    0    0  501  502  0.00000000000E+00  0.00000000000E+00  0.11863891331E+03  0.11863891331E+03  0.00000000000E+00 0. -1.
         21   -1    0    0  502  503 -0.00000000000E+00 -0.00000000000E+00 -0.28222843186E+03  0.28222843186E+03  0.00000000000E+00 0. -1.
         -6    2    1    2    0  503  0.41857574228E+02  0.67897581169E+01 -0.29739553280E+02  0.17915677842E+03  0.17150671383E+03 0.  0.
        -24    2    3    3    0    0 -0.30667490871E+02  0.42982031337E+02 -0.15891827835E+02  0.96794073215E+02  0.79552450644E+02 0.  0.
          6    2    1    2  501    0 -0.41857574228E+02 -0.67897581169E+01 -0.13384996526E+03  0.22171056675E+03  0.17158556138E+03 0.  0.
         24    2    5    5    0    0 -0.33858160321E+02  0.44163278401E+02 -0.25893150991E+02  0.10197349521E+03  0.81433213608E+02 0.  0.
          5    1    5    5  501    0 -0.79994139069E+01 -0.50953036518E+02 -0.10795681427E+03  0.11973707154E+03  0.47000000000E+01 0. -1.
        -11    1    6    6    0    0 -0.26158806744E+02  0.68025822676E+02 -0.24388906706E+02  0.76854502089E+02  0.00000000000E+00 0.  1.
         12    1    6    6    0    0 -0.76993535770E+01 -0.23862544275E+02 -0.15042442841E+01  0.25118993125E+02  0.00000000000E+00 0. -1.
         -5    1    3    3    0  503  0.72525065099E+02 -0.36192273220E+02 -0.13847725445E+02  0.82362705203E+02  0.47000000000E+01 0.  1.
         11    1    4    4    0    0 -0.79404846245E+01  0.44991328622E+02  0.23421031589E+02  0.51340195441E+02  0.00000000000E+00 0. -1.
        -12    1    4    4    0    0 -0.22727006246E+02 -0.20092972853E+01 -0.39312859425E+02  0.45453877773E+02  0.00000000000E+00 0.  1.
</event>
<event>
12    1  0.8052519E-002  0.2069486E+03  0.7818608E-02  0.1144247E+00
         21   -1    0    0  503  502  0.00000000000E+00  0.00000000000E+00  0.26873282574E+03  0.26873282574E+03  0.00000000000E+00 0.  1.
         21   -1    0    0  501  503 -0.00000000000E+00 -0.00000000000E+00 -0.17236315715E+03  0.17236315715E+03  0.00000000000E+00 0.  1.
          6    2    1    2  501    0  0.65167050126E+02 -0.91352514384E+02 -0.14604058486E+02  0.20627071403E+03  0.17245956812E+03 0.  0.
         24    2    3    3    0    0  0.62937639586E+02 -0.72628281770E+02 -0.72501030229E+02  0.14519930914E+03  0.81181439998E+02 0.  0.
         -6    2    1    2    0  502 -0.65167050126E+02  0.91352514384E+02  0.11097372708E+03  0.23482526886E+03  0.17388419275E+03 0.  0.
        -24    2    5    5    0    0  0.11578175175E+02  0.94083771370E+02  0.93773728601E+02  0.15598860659E+03  0.80951362149E+02 0.  0.
          5    1    3    3  501    0  0.22294105402E+01 -0.18724232613E+02  0.57896971743E+02  0.61071404891E+02  0.47000000000E+01 0. -1.
        -13    1    4    4    0    0  0.38366125546E+02 -0.33674980757E+02  0.87596288300E+01  0.51794739266E+02  0.00000000000E+00 0.  1.
         14    1    4    4    0    0  0.24571514039E+02 -0.38953301013E+02 -0.81260659059E+02  0.93404569871E+02  0.00000000000E+00 0. -1.
         -5    1    5    5    0  502 -0.76745225301E+02 -0.27312569861E+01  0.17199998481E+02  0.78836662277E+02  0.47000000000E+01 0.  1.
         11    1    6    6    0    0  0.27225048754E+02 -0.14799956552E+01  0.26928622649E+02  0.38321591624E+02  0.00000000000E+00 0. -1.
        -12    1    6    6    0    0 -0.15646873579E+02  0.95563767025E+02  0.66845105951E+02  0.11766701496E+03  0.00000000000E+00 0.  1.
</event>
<event>
12    1  0.8052519E-002  0.3358690E+03  0.7818608E-02  0.1068593E+00
         21   -1    0    0  503  502  0.00000000000E+00  0.00000000000E+00  0.22811398759E+03  0.22811398759E+03  0.00000000000E+00 0. -1.
         21   -1    0    0  501  503 -0.00000000000E+00 -0.00000000000E+00 -0.59552539604E+03  0.59552539604E+03  0.00000000000E+00 0.  1.
          6    2    1    2  501    0  0.22089863723E+03  0.18443249583E+03 -0.35352643675E+03  0.48748352991E+03  0.17276486043E+03 0.  0.
         24    2    3    3    0    0  0.15607390938E+03  0.12986441112E+03 -0.33596698614E+03  0.40082128025E+03  0.80994150786E+02 0.  0.
         -6    2    1    2    0  502 -0.22089863723E+03 -0.18443249583E+03 -0.13884971700E+02  0.33615585373E+03  0.17319472309E+03 0.  0.
        -24    2    5    5    0    0 -0.20218374699E+03 -0.16069692666E+03  0.41373546540E+02  0.27299559566E+03  0.78186028883E+02 0.  0.
          5    1    3    3  501    0  0.64824727848E+02  0.54568084715E+02 -0.17559450616E+02  0.86662249660E+02  0.47000000000E+01 0. -1.
        -11    1    4    4    0    0  0.50120760162E+02  0.40150433180E+02 -0.44960451101E+02  0.78393813832E+02  0.00000000000E+00 0.  1.
         12    1    4    4    0    0  0.10595314922E+03  0.89713977937E+02 -0.29100653503E+03  0.32242746642E+03  0.00000000000E+00 0. -1.
         -5    1    5    5    0  502 -0.18714890245E+02 -0.23735569170E+02 -0.55258518240E+02  0.63160258065E+02  0.47000000000E+01 0.  1.
         13    1    6    6    0    0 -0.15959489485E+03 -0.11616419998E+03 -0.24022180268E+01  0.19740927656E+03  0.00000000000E+00 0. -1.
        -14    1    6    6    0    0 -0.42588852132E+02 -0.44532726682E+02  0.43775764567E+02  0.75586319100E+02  0.00000000000E+00 0.  1.
</event>
<event>
12    1  0.8052519E-002  0.1772560E+03  0.7818608E-02  0.1170703E+00
         21   -1    0    0  503  502  0.00000000000E+00  0.00000000000E+00  0.54438696091E+02  0.54438696091E+02  0.00000000000E+00 0.  1.
         21   -1    0    0  501  503 -0.00000000000E+00 -0.00000000000E+00 -0.69679142601E+03  0.69679142601E+03  0.00000000000E+00 0.  1.
          6    2    1    2  501    0  0.24154555366E+02 -0.32937844548E+02 -0.47932015064E+03  0.51104549643E+03  0.17248579206E+03 0.  0.
         24    2    3    3    0    0  0.65366960675E+02 -0.26563153243E+02 -0.44244269381E+03  0.45517836958E+03  0.80332871010E+02 0.  0.
         -6    2    1    2    0  502 -0.24154555366E+02  0.32937844548E+02 -0.16303257928E+03  0.24018462567E+03  0.17158289062E+03 0.  0.
        -24    2    5    5    0    0  0.52183495905E+02  0.28892164756E+02 -0.95993392176E+02  0.13839951770E+03  0.79886298763E+02 0.  0.
          5    1    3    3  501    0 -0.41212405309E+02 -0.63746913044E+01 -0.36877456830E+02  0.55867126854E+02  0.47000000000E+01 0. -1.
        -11    1    4    4    0    0  0.15393598811E+02 -0.47336797122E+02 -0.26618842518E+03  0.27080253497E+03  0.00000000000E+00 0.  1.
         12    1    4    4    0    0  0.49973361864E+02  0.20773643879E+02 -0.17625426863E+03  0.18437583461E+03  0.00000000000E+00 0. -1.
         -5    1    5    5    0  502 -0.76338051271E+02  0.40456797919E+01 -0.67039187102E+02  0.10178510797E+03  0.47000000000E+01 0.  1.
         11    1    6    6    0    0  0.28225842312E+02  0.52889199502E+02 -0.82323479994E+02  0.10183870068E+03  0.00000000000E+00 0. -1.
        -12    1    6    6    0    0  0.23957653593E+02 -0.23997034746E+02 -0.13669912182E+02  0.36560817022E+02  0.00000000000E+00 0.  1.
</event>
<event>
12    1  0.8052519E-002  0.1886742E+03  0.7818608E-02  0.1159875E+00
         21   -1    0    0  503  502  0.00000000000E+00  0.00000000000E+00  0.91905385681E+03  0.91905385681E+03  0.00000000000E+00 0.  1.
         21   -1    0    0  501  503 -0.00000000000E+00 -0.00000000000E+00 -0.11798088636E+03  0.11798088636E+03  0.00000000000E+00 0.  1.
          6    2    1    2  501    0 -0.76043468852E+02 -0.32886954262E+01 -0.25259594269E+02  0.18943610768E+03  0.17162332918E+03 0.  0.
         24    2    3    3    0    0 -0.30587622517E+02 -0.61596402331E+02  0.16308027094E+02  0.10448918427E+03  0.76956601087E+02 0.  0.
         -6    2    1    2    0  502  0.76043468852E+02  0.32886954262E+01  0.82633256472E+03  0.84759863550E+03  0.17263984100E+03 0.  0.
        -24    2    5    5    0    0 -0.16000649859E+02 -0.28662868524E+02  0.30089769725E+03  0.31318595583E+03  0.80426599413E+02 0.  0.
          5    1    3    3  501    0 -0.45455846335E+02  0.58307706905E+02 -0.41567621363E+02  0.84946923407E+02  0.47000000000E+01 0. -1.
        -13    1    4    4    0    0 -0.24802999664E+02 -0.35915740055E+02  0.46941744305E+02  0.64098802909E+02  0.00000000000E+00 0.  1.
         14    1    4    4    0    0 -0.57846228531E+01 -0.25680662276E+02 -0.30633717211E+02  0.40390381363E+02  0.00000000000E+00 0. -1.
         -5    1    5    5    0  502  0.92044118711E+02  0.31951563951E+02  0.52543486747E+03  0.53441267966E+03  0.47000000000E+01 0.  1.
         13    1    6    6    0    0  0.15322547225E+02 -0.43259283935E+02  0.22719754017E+03  0.23178625576E+03  0.00000000000E+00 0. -1.
        -14    1    6    6    0    0 -0.31323197084E+02  0.14596415411E+02  0.73700157076E+02  0.81399700070E+02  0.00000000000E+00 0.  1.
</event>
<event>
12    1  0.8052519E-002  0.2181816E+03  0.7818608E-02  0.1136476E+00
         21   -1    0    0  503  502  0.00000000000E+00  0.00000000000E+00  0.64340049966E+02  0.64340049966E+02  0.00000000000E+00 0.  1.
         21   -1    0    0  501  503 -0.00000000000E+00 -0.00000000000E+00 -0.89451612566E+03  0.89451612566E+03  0.00000000000E+00 0.  1.
          6    2    1    2  501    0  0.11468937088E+03 -0.72296640414E+02 -0.62291566071E+03  0.65792415928E+03  0.16266475644E+03 0.  0.
         24    2    3    3    0    0  0.11106432034E+03 -0.10762603407E+03 -0.48285185044E+03  0.51335145094E+03  0.80406195308E+02 0.  0.
         -6    2    1    2    0  502 -0.11468937088E+03  0.72296640414E+02 -0.20726041498E+03  0.30093201635E+03  0.17094660815E+03 0.  0.
        -24    2    5    5    0    0 -0.62446215267E+02  0.12593404835E+02 -0.30521423191E+02  0.10714712306E+03  0.80565656832E+02 0.  0.
          5    1    3    3  501    0  0.36250505404E+01  0.35329393660E+02 -0.14006381027E+03  0.14457270834E+03  0.47000000000E+01 0. -1.
        -11    1    4    4    0    0  0.99565638713E+02 -0.44374508647E+02 -0.32973285099E+03  0.34728398531E+03  0.00000000000E+00 0.  1.
         12    1    4    4    0    0  0.11498681628E+02 -0.63251525427E+02 -0.15311899945E+03  0.16606746563E+03  0.00000000000E+00 0. -1.
         -5    1    5    5    0  502 -0.52243155614E+02  0.59703235579E+02 -0.17673899179E+03  0.19378489329E+03  0.47000000000E+01 0.  1.
         11    1    6    6    0    0  0.82895796611E+01 -0.20753728294E+02  0.20313833955E+01  0.22440162378E+02  0.00000000000E+00 0. -1.
        -12    1    6    6    0    0 -0.70735794928E+02  0.33347133129E+02 -0.32552806586E+02  0.84706960686E+02  0.00000000000E+00 0.  1.
</event>
<event>
12    1  0.8052519E-002  0.2728629E+03  0.7818608E-02  0.1099656E+00
         21   -1    0    0  503  502  0.00000000000E+00  0.00000000000E+00  0.16662947545E+03  0.16662947545E+03  0.00000000000E+00 0.  1.
         21   -1    0    0  501  503 -0.00000000000E+00 -0.00000000000E+00 -0.44678129086E+03  0.44678129086E+03  0.00000000000E+00 0.  1.
          6    2    1    2  501    0 -0.21217275455E+03 -0.34401061567E+00 -0.14010377782E+03  0.30670629352E+03  0.17152925642E+03 0.  0.
         24    2    3    3    0    0 -0.75611692588E+02 -0.58082122783E+02 -0.72670407527E+02  0.14375856365E+03  0.79340251129E+02 0.  0.
         -6    2    1    2    0  502  0.21217275455E+03  0.34401061567E+00 -0.14004803759E+03  0.30670447279E+03  0.17157151477E+03 0.  0.
        -24    2    5    5    0    0  0.14490749341E+03  0.21245403960E+02 -0.23256294260E+02  0.17023511759E+03  0.83603775044E+02 0.  0.
          5    1    3    3  501    0 -0.13656106196E+03  0.57738112167E+02 -0.67433370290E+02  0.16294772987E+03  0.47000000000E+01 0. -1.
        -13    1    4    4    0    0 -0.23457117987E+02 -0.24951334720E+02  0.14268375906E+02  0.37099757945E+02  0.00000000000E+00 0.  1.
         14    1    4    4    0    0 -0.52154574602E+02 -0.33130788063E+02 -0.86938783433E+02  0.10665880570E+03  0.00000000000E+00 0. -1.
         -5    1    5    5    0  502  0.67265261139E+02 -0.20901393344E+02 -0.11679174333E+03  0.13646935521E+03  0.47000000000E+01 0.  1.
         11    1    6    6    0    0 -0.62249276998E+01  0.64371243934E+01  0.11378317639E+02  0.14479378703E+02  0.00000000000E+00 0. -1.
        -12    1    6    6    0    0  0.15113242111E+03  0.14808279567E+02 -0.34634611899E+02  0.15575573888E+03  0.00000000000E+00 0.  1.
</event>
<event>
12    1  0.8052519E-002  0.1791805E+03  0.7818608E-02  0.1169093E+00
         21   -1    0    0  503  502  0.00000000000E+00  0.00000000000E+00  0.38139844536E+02  0.38139844536E+02  0.00000000000E+00 0.  1.
         21   -1    0    0  501  503 -0.00000000000E+00 -0.00000000000E+00 -0.88201462143E+03  0.88201462143E+03  0.00000000000E+00 0.  1.
          6    2    1    2  501    0  0.16663641741E+02 -0.39426169534E+02 -0.31047718474E+03  0.35746570523E+03  0.17191145503E+03 0.  0.
         24    2    3    3    0    0 -0.22015749789E+02 -0.82951371888E+02 -0.18177578134E+03  0.21612682237E+03  0.79389831414E+02 0.  0.
         -6    2    1    2    0  502 -0.16663641741E+02  0.39426169534E+02 -0.53339759215E+03  0.56268876073E+03  0.17399296061E+03 0.  0.
        -24    2    5    5    0    0  0.17034713616E+02 -0.17673576339E+02 -0.13577451551E+03  0.15954838666E+03  0.80115116266E+02 0.  0.
          5    1    3    3  501    0  0.38679391530E+02  0.43525202355E+02 -0.12870140340E+03  0.14133888286E+03  0.47000000000E+01 0. -1.
        -11    1    4    4    0    0 -0.72072787661E+01 -0.56923280325E+02 -0.17666360741E+03  0.18574777225E+03  0.00000000000E+00 0.  1.
         12    1    4    4    0    0 -0.14808471023E+02 -0.26028091563E+02 -0.51121739240E+01  0.30379050128E+02  0.00000000000E+00 0. -1.
         -5    1    5    5    0  502 -0.33698355358E+02  0.57099745872E+02 -0.39762307664E+03  0.40314037408E+03  0.47000000000E+01 0.  1.
         13    1    6    6    0    0  0.36920626642E+02 -0.63836488258E+01 -0.21897213312E+02  0.43397829379E+02  0.00000000000E+00 0. -1.
        -14    1    6    6    0    0 -0.19885913026E+02 -0.11289927513E+02 -0.11387730220E+03  0.11615055728E+03  0.00000000000E+00 0.  1.
</event>
<event>
12    1  0.8052519E-002  0.2420843E+03  0.7818608E-02  0.1118469E+00
         21   -1    0    0  501  502  0.00000000000E+00  0.00000000000E+00  0.24116686995E+03  0.24116686995E+03  0.00000000000E+00 0. -1.
         21   -1    0    0  502  503 -0.00000000000E+00 -0.00000000000E+00 -0.32603200663E+03  0.32603200663E+03  0.00000000000E+00 0. -1.
         -6    2    1    2    0  503  0.16920507810E+03  0.20809168878E+02 -0.18582299977E+03  0.30490644195E+03  0.17138953040E+03 0.  0.
        -24    2    3    3    0    0  0.10085716033E+03 -0.37036847059E+01 -0.19209667987E+03  0.23187379913E+03  0.81721724395E+02 0.  0.
          6    2    1    2  501    0 -0.16920507810E+03 -0.20809168878E+02  0.10095786310E+03  0.26229243463E+03  0.17187626706E+03 0.  0.
         24    2    5    5    0    0 -0.16869218687E+03  0.17030102032E+02  0.11720720675E+03  0.22084120245E+03  0.79285743358E+02 0.  0.
          5    1    5    5  501    0 -0.51289122679E+00 -0.37839270910E+02 -0.16249343646E+02  0.41451232181E+02  0.47000000000E+01 0. -1.
        -11    1    6    6    0    0 -0.10831805382E+03  0.21513173485E+02  0.29566031538E+02  0.11432308444E+03  0.00000000000E+00 0.  1.
         12    1    6    6    0    0 -0.60374133058E+02 -0.44830714532E+01  0.87641175209E+02  0.10651811801E+03  0.00000000000E+00 0. -1.
         -5    1    3    3    0  503  0.68347917773E+02  0.24512853584E+02  0.62736800925E+01  0.73032642816E+02  0.47000000000E+01 0.  1.
         11    1    4    4    0    0  0.20799183993E+02  0.30851001186E+01 -0.12626224809E+03  0.12800109058E+03  0.00000000000E+00 0. -1.
        -12    1    4    4    0    0  0.80057976333E+02 -0.67887848245E+01 -0.65834431778E+02  0.10387270855E+03  0.00000000000E+00 0.  1.
</event>
<event>
12    1  0.8052519E-002  0.1820653E+03  0.7818608E-02  0.1166103E+00
         21   -1    0    0  501  502  0.00000000000E+00  0.00000000000E+00  0.66992651950E+02  0.66992651950E+02  0.00000000000E+00 0. -1.
         21   -1    0    0  502  503 -0.00000000000E+00 -0.00000000000E+00 -0.49695514735E+03  0.49695514735E+03  0.00000000000E+00 0. -1.
         -6    2    1    2    0  503 -0.47066211374E+01 -0.56913640811E+02 -0.24500667484E+03  0.30524749148E+03  0.17287696650E+03 0.  0.
        -24    2    3    3    0    0 -0.11334529307E+02 -0.10033310043E+03 -0.13520611998E+03  0.18689450044E+03  0.80334655159E+02 0.  0.
          6    2    1    2  501    0  0.47066211374E+01  0.56913640811E+02 -0.18495582056E+03  0.25870030782E+03  0.17162715087E+03 0.  0.
         24    2    5    5    0    0  0.58684219074E+02  0.66061715588E+02 -0.92540512808E+02  0.15118311172E+03  0.80527007413E+02 0.  0.
          5    1    5    5  501    0 -0.53977597936E+02 -0.91480747770E+01 -0.92415307753E+02  0.10751719610E+03  0.47000000000E+01 0. -1.
        -13    1    6    6    0    0  0.34804326595E+02  0.55220239310E+02 -0.10382017447E+03  0.12263459792E+03  0.00000000000E+00 0.  1.
         14    1    6    6    0    0  0.23879892479E+02  0.10841476279E+02  0.11279661666E+02  0.28548513797E+02  0.00000000000E+00 0. -1.
         -5    1    3    3    0  503  0.66279081697E+01  0.43419459615E+02 -0.10980055486E+03  0.11835299104E+03  0.47000000000E+01 0.  1.
         11    1    4    4    0    0  0.25301557758E+02 -0.58373575536E+02 -0.10693100413E+03  0.12442621424E+03  0.00000000000E+00 0. -1.
        -12    1    4    4    0    0 -0.36636087065E+02 -0.41959524890E+02 -0.28275115845E+02  0.62468286198E+02  0.00000000000E+00 0.  1.
</event>
<event>
12    1  0.8052519E-002  0.2790319E+03  0.7818608E-02  0.1096785E+00
         21   -1    0    0  503  502  0.00000000000E+00  0.00000000000E+00  0.16799870115E+03  0.16799870115E+03  0.00000000000E+00 0. -1.
         21   -1    0    0  501  503 -0.00000000000E+00 -0.00000000000E+00 -0.47447061672E+03  0.47447061672E+03  0.00000000000E+00 0.  1.
          6    2    1    2  501    0 -0.20389984552E+03 -0.65135265446E+02 -0.21436962399E+03  0.34862987355E+03  0.17254188835E+03 0.  0.
         24    2    3    3    0    0 -0.22002762856E+03 -0.33451355933E+02 -0.16897184754E+03  0.29077640681E+03  0.80425636132E+02 0.  0.
         -6    2    1    2    0  502  0.20389984552E+03  0.65135265446E+02 -0.92102291591E+02  0.29383944433E+03  0.17900010368E+03 0.  0.
        -24    2    5    5    0    0  0.42950046536E+02 -0.13536880911E+02  0.41312860415E+01  0.90425738129E+02  0.78305765750E+02 0.  0.
          5    1    3    3  501    0  0.16127783047E+02 -0.31683909512E+02 -0.45397776441E+02  0.57853466740E+02  0.47000000000E+01 0. -1.
        -11    1    4    4    0    0  0.32671486232E+01  0.87613554133E+01 -0.56433048531E+01  0.10921652735E+02  0.00000000000E+00 0.  1.
         12    1    4    4    0    0 -0.22329477719E+03 -0.42212711347E+02 -0.16332854269E+03  0.27985475407E+03  0.00000000000E+00 0. -1.
         -5    1    5    5    0  502  0.16094979898E+03  0.78672146357E+02 -0.96233577632E+02  0.20341370620E+03  0.47000000000E+01 0.  1.
         13    1    6    6    0    0  0.18100749662E+02  0.28934643022E+02 -0.15452394015E+02  0.37465012824E+02  0.00000000000E+00 0. -1.
        -14    1    6    6    0    0  0.24849296874E+02 -0.42471523933E+02  0.19583680057E+02  0.52960725305E+02  0.00000000000E+00 0.  1.
</event>
<event>
12    1  0.8052519E-002  0.1736792E+03  0.7818608E-02  0.1174708E+00
         21   -1    0    0  501  502  0.00000000000E+00  0.00000000000E+00  0.96702522532E+02  0.96702522532E+02  0.00000000000E+00 0. -1.
         21   -1    0    0  502  503 -0.00000000000E+00 -0.00000000000E+00 -0.33992397207E+03  0.33992397207E+03  0.00000000000E+00 0. -1.
         -6    2    1    2    0  503 -0.13287721006E+02  0.18030757611E+02 -0.54912923481E+02  0.18215344217E+03  0.17222884654E+03 0.  0.
        -24    2    3    3    0    0  0.12636870182E+02 -0.43500042569E+01 -0.97723847319E+02  0.12712755617E+03  0.80205063298E+02 0.  0.
          6    2    1    2  501    0  0.13287721006E+02 -0.18030757611E+02 -0.18830852606E+03  0.25447305243E+03  0.16969019323E+03 0.  0.
         24    2    5    5    0    0 -0.56356085966E+01  0.37559539730E+02 -0.17335245569E+03  0.19369355258E+03  0.77612107989E+02 0.  0.
          5    1    5    5  501    0  0.18923329602E+02 -0.55590297341E+02 -0.14956070368E+02  0.60779499854E+02  0.47000000000E+01 0. -1.
        -13    1    6    6    0    0  0.17133790905E+02  0.21165166410E+02 -0.16056800879E+03  0.16286072733E+03  0.00000000000E+00 0.  1.
         14    1    6    6    0    0 -0.22769399502E+02  0.16394373319E+02 -0.12784446906E+02  0.30832825250E+02  0.00000000000E+00 0. -1.
         -5    1    3    3    0  503 -0.25924591188E+02  0.22380761868E+02  0.42810923838E+02  0.55025885999E+02  0.47000000000E+01 0.  1.
         13    1    4    4    0    0 -0.33280007051E+02  0.24768672153E+01 -0.53230052340E+02  0.62826206417E+02  0.00000000000E+00 0. -1.
        -14    1    4    4    0    0  0.45916877233E+02 -0.68268714722E+01 -0.44493794979E+02  0.64301349757E+02  0.00000000000E+00 0.  1.
</event>
<event>
12    1  0.8052519E-002  0.2420777E+03  0.7818608E-02  0.1119818E+00
         21   -1    0    0  501  502  0.00000000000E+00  0.00000000000E+00  0.27516939492E+03  0.27516939492E+03  0.00000000000E+00 0.  1.
         21   -1    0    0  502  503 -0.00000000000E+00 -0.00000000000E+00 -0.20598333901E+03  0.20598333901E+03  0.00000000000E+00 0.  1.
         -6    2    1    2    0  503  0.13394881116E+03 -0.83769599636E+02  0.43211671385E+02  0.23768554998E+03  0.17224268429E+03 0.  0.
        -24    2    3    3    0    0  0.18536410329E+02 -0.18557126845E+02  0.61586314012E+02  0.10377361487E+03  0.79297689782E+02 0.  0.
          6    2    1    2  501    0 -0.13394881116E+03  0.83769599636E+02  0.25974384519E+02  0.24346718395E+03  0.18341747783E+03 0.  0.
         24    2    5    5    0    0 -0.68509565513E+02  0.44483834507E+02  0.88881190944E+02  0.14444687034E+03  0.79326289130E+02 0.  0.
          5    1    5    5  501    0 -0.65439245651E+02  0.39285765129E+02 -0.62906806425E+02  0.99020313611E+02  0.47000000000E+01 0. -1.
        -13    1    6    6    0    0 -0.46411989333E+02  0.32281670323E+02  0.48916109455E+01  0.56745985323E+02  0.00000000000E+00 0.  1.
         14    1    6    6    0    0 -0.22097576180E+02  0.12202164184E+02  0.83989579998E+02  0.87700885013E+02  0.00000000000E+00 0. -1.
         -5    1    3    3    0  503  0.11541240083E+03 -0.65212472791E+02 -0.18374642626E+02  0.13391193511E+03  0.47000000000E+01 0.  1.
         13    1    4    4    0    0  0.22962369489E+02  0.20663351277E+02  0.31785304481E+00  0.30892483375E+02  0.00000000000E+00 0. -1.
        -14    1    4    4    0    0 -0.44259591599E+01 -0.39220478122E+02  0.61268460967E+02  0.72881131494E+02  0.00000000000E+00 0.  1.
</event>
<event>
12    1  0.8052519E-002  0.2516170E+03  0.7818608E-02  0.1112592E+00
         21   -1    0    0  503  502  0.00000000000E+00  0.00000000000E+00  0.89965658614E+03  0.89965658614E+03  0.00000000000E+00 0.  1.
         21   -1    0    0  501  503 -0.00000000000E+00 -0.00000000000E+00 -0.14413062867E+03  0.14413062867E+03  0.00000000000E+00 0. -1.
          6    2    1    2  501    0 -0.17431865700E+03 -0.53474599663E+02  0.37610122067E+01  0.25164513637E+03  0.17339147171E+03 0.  0.
         24    2    3    3    0    0 -0.92116753991E+01 -0.46965758894E+02 -0.27146749087E+01  0.86216284885E+02  0.71660594803E+02 0.  0.
         -6    2    1    2    0  502  0.17431865700E+03  0.53474599663E+02  0.75176494526E+03  0.79214207844E+03  0.17056380776E+03 0.  0.
        -24    2    5    5    0    0  0.24625219532E+02 -0.10564151555E+01  0.32735464881E+03  0.33879017700E+03  0.83726940033E+02 0.  0.
          5    1    3    3  501    0 -0.16510698160E+03 -0.65088407686E+01  0.64756871154E+01  0.16542885149E+03  0.47000000000E+01 0. -1.
        -11    1    4    4    0    0 -0.57221807635E+00  0.14629799834E+02 -0.16962014389E+02  0.22406883069E+02  0.00000000000E+00 0.  1.
         12    1    4    4    0    0 -0.86394573227E+01 -0.61595558728E+02  0.14247339481E+02  0.63809401816E+02  0.00000000000E+00 0. -1.
         -5    1    5    5    0  502  0.14969343747E+03  0.54531014818E+02  0.42441029645E+03  0.45335190143E+03  0.47000000000E+01 0.  1.
         11    1    6    6    0    0 -0.22220892316E+02  0.45676315290E+00  0.27807368713E+02  0.35598124144E+02  0.00000000000E+00 0. -1.
        -12    1    6    6    0    0  0.46846111848E+02 -0.15131783084E+01  0.29954728010E+03  0.30319205286E+03  0.00000000000E+00 0.  1.
</event>
<event>
12    1  0.8052519E-002  0.1749641E+03  0.7818608E-02  0.1172939E+00
         21   -1    0    0  501  502  0.00000000000E+00  0.00000000000E+00  0.14172690602E+03  0.14172690602E+03  0.00000000000E+00 0.  1.
         21   -1    0    0  502  503 -0.00000000000E+00 -0.00000000000E+00 -0.27905170585E+03  0.27905170585E+03  0.00000000000E+00 0.  1.
         -6    2    1    2    0  503  0.29411457257E+02 -0.14677891105E+02  0.32113369700E+02  0.17721811783E+03  0.17115641521E+03 0.  0.
        -24    2    3    3    0    0 -0.92758807856E+01 -0.51244816579E+02  0.67046651939E+02  0.11337241029E+03  0.75139714450E+02 0.  0.
          6    2    1    2  501    0 -0.29411457257E+02  0.14677891105E+02 -0.16943816953E+03  0.24356049403E+03  0.17184861551E+03 0.  0.
         24    2    5    5    0    0 -0.31231897734E+02 -0.57777180455E+02 -0.89196157036E+02  0.13532962058E+03  0.77746496768E+02 0.  0.
          5    1    5    5  501    0  0.18204404776E+01  0.72455071561E+02 -0.80242012495E+02  0.10823087345E+03  0.47000000000E+01 0. -1.
        -13    1    6    6    0    0 -0.53060859834E+02 -0.20435824047E+02 -0.38397009480E+02  0.68610553764E+02  0.00000000000E+00 0.  1.
         14    1    6    6    0    0  0.21828962100E+02 -0.37341356408E+02 -0.50799147557E+02  0.66719066819E+02  0.00000000000E+00 0. -1.
         -5    1    3    3    0  503  0.38687338042E+02  0.36566925474E+02 -0.34933282239E+02  0.63845707541E+02  0.47000000000E+01 0.  1.
         13    1    4    4    0    0 -0.41001331135E+02 -0.41173107905E+02  0.41215828014E+02  0.71239584841E+02  0.00000000000E+00 0. -1.
        -14    1    4    4    0    0  0.31725450350E+02 -0.10071708674E+02  0.25830823925E+02  0.42132825447E+02  0.00000000000E+00 0.  1.
</event>
<event>
12    1  0.8052519E-002  0.1743181E+03  0.7818608E-02  0.1173661E+00
         21   -1    0    0  501  502  0.00000000000E+00  0.00000000000E+00  0.52849153178E+03  0.52849153178E+03  0.00000000000E+00 0.  1.
         21   -1    0    0  502  503 -0.00000000000E+00 -0.00000000000E+00 -0.18845799083E+03  0.18845799083E+03  0.00000000000E+00 0.  1.
         -6    2    1    2    0  503 -0.76079407546E+01 -0.20303431832E+02 -0.12931321807E+03  0.21627678565E+03  0.17199892307E+03 0.  0.
        -24    2    3    3    0    0 -0.43485639125E+02 -0.36314902640E+02 -0.14375294619E+03  0.17415586228E+03  0.80346635673E+02 0.  0.
          6    2    1    2  501    0  0.76079407546E+01  0.20303431832E+02  0.46934675902E+03  0.50067273696E+03  0.17296444498E+03 0.  0.
         24    2    5    5    0    0 -0.56749005808E+02 -0.14436923350E+02  0.20189185613E+03  0.22335897256E+03  0.75498573722E+02 0.  0.
          5    1    5    5  501    0  0.64356946562E+02  0.34740355182E+02  0.26745490289E+03  0.27731376441E+03  0.47000000000E+01 0. -1.
        -11    1    6    6    0    0  0.30394354807E+01  0.73379346499E+01  0.11699031221E+03  0.11725961199E+03  0.00000000000E+00 0.  1.
         12    1    6    6    0    0 -0.59788441288E+02 -0.21774858000E+02  0.84901543915E+02  0.10609936056E+03  0.00000000000E+00 0. -1.
         -5    1    3    3    0  503  0.35877698370E+02  0.16011470808E+02  0.14439728119E+02  0.42120923375E+02  0.47000000000E+01 0.  1.
         11    1    4    4    0    0 -0.15102798206E+02  0.20337652157E+02 -0.81425465158E+02  0.85274972794E+02  0.00000000000E+00 0. -1.
        -12    1    4    4    0    0 -0.28382840919E+02 -0.56652554797E+02 -0.62327481029E+02  0.88880889482E+02  0.00000000000E+00 0.  1.
</event>
<event>
12    1  0.8052519E-002  0.2202775E+03  0.7818608E-02  0.1135679E+00
         21   -1    0    0  501  502  0.00000000000E+00  0.00000000000E+00  0.12780419296E+04  0.12780419296E+04  0.00000000000E+00 0.  1.
         21   -1    0    0  502  503 -0.00000000000E+00 -0.00000000000E+00 -0.14962876064E+03  0.14962876064E+03  0.00000000000E+00 0.  1.
         -6    2    1    2    0  503 -0.11751017841E+03 -0.13882097104E+02 -0.53992313299E+02  0.22679800427E+03  0.18579776693E+03 0.  0.
        -24    2    3    3    0    0 -0.59387837970E+02 -0.67874528217E+02  0.16585350236E+02  0.12051213660E+03  0.78193569730E+02 0.  0.
          6    2    1    2  501    0  0.11751017841E+03  0.13882097104E+02  0.11824054823E+04  0.12008726860E+04  0.17323720382E+03 0.  0.
         24    2    5    5    0    0  0.10139802338E+03 -0.52121483575E+01  0.11599292262E+04  0.11669394598E+04  0.77480110443E+02 0.  0.
          5    1    5    5  501    0  0.16112155035E+02  0.19094245461E+02  0.22476256086E+02  0.33933226154E+02  0.47000000000E+01 0. -1.
        -11    1    6    6    0    0  0.70791549018E+02  0.22060407263E+02  0.47189413385E+03  0.47768418285E+03  0.00000000000E+00 0.  1.
         12    1    6    6    0    0  0.30606474358E+02 -0.27272555621E+02  0.68803509234E+03  0.68925527699E+03  0.00000000000E+00 0. -1.
         -5    1    3    3    0  503 -0.58122340440E+02  0.53992431113E+02 -0.70577663535E+02  0.10628586767E+03  0.47000000000E+01 0.  1.
         11    1    4    4    0    0 -0.71458964363E+02 -0.26572545626E+02  0.12918021159E+02  0.77326315311E+02  0.00000000000E+00 0. -1.
        -12    1    4    4    0    0  0.12071126393E+02 -0.41301982590E+02  0.36673290771E+01  0.43185821294E+02  0.00000000000E+00 0.  1.
</event>
<event>
12    1  0.8052519E-002  0.1971960E+03  0.7818608E-02  0.1153684E+00
         21   -1    0    0  503  502  0.00000000000E+00  0.00000000000E+00  0.32101535642E+03  0.32101535642E+03  0.00000000000E+00 0. -1.
         21   -1    0    0  501  503 -0.00000000000E+00 -0.00000000000E+00 -0.11721010784E+03  0.11721010784E+03  0.00000000000E+00 0. -1.
          6    2    1    2  501    0 -0.96028669580E+02  0.90588355346E+00  0.11287460408E+03  0.22107424812E+03  0.16404517954E+03 0.  0.
         24    2    3    3    0    0  0.27294093450E+01  0.10018456891E+02  0.86861738954E+02  0.11843431292E+03  0.79836743601E+02 0.  0.
         -6    2    1    2    0  502  0.96028669580E+02 -0.90588355346E+00  0.90930644495E+02  0.21715121614E+03  0.17223223438E+03 0.  0.
        -24    2    5    5    0    0  0.90161199848E+01  0.27924510986E+02 -0.49354681321E+01  0.84430543350E+02  0.79013220864E+02 0.  0.
          5    1    3    3  501    0 -0.98758078925E+02 -0.91125733376E+01  0.26012865124E+02  0.10263993520E+03  0.47000000000E+01 0. -1.
        -13    1    4    4    0    0 -0.11980735153E+02  0.13042511649E+01 -0.12645741302E+02  0.17468653611E+02  0.00000000000E+00 0.  1.
         14    1    4    4    0    0  0.14710144498E+02  0.87142057261E+01  0.99507480256E+02  0.10096565931E+03  0.00000000000E+00 0. -1.
         -5    1    5    5    0  502  0.87012549596E+02 -0.28830394540E+02  0.95866112628E+02  0.13272067279E+03  0.47000000000E+01 0.  1.
         11    1    6    6    0    0  0.11018622595E+02  0.55527293350E+02 -0.34936397987E+01  0.56717685687E+02  0.00000000000E+00 0. -1.
        -12    1    6    6    0    0 -0.20025026103E+01 -0.27602782364E+02 -0.14418283334E+01  0.27712857663E+02  0.00000000000E+00 0.  1.
</event>
<event>
12    1  0.8052519E-002  0.1906613E+03  0.7818608E-02  0.1159285E+00
         21   -1    0    0  503  502  0.00000000000E+00  0.00000000000E+00  0.13299424544E+03  0.13299424544E+03  0.00000000000E+00 0.  1.
         21   -1    0    0  501  503 -0.00000000000E+00 -0.00000000000E+00 -0.58719325215E+03  0.58719325215E+03  0.00000000000E+00 0.  1.
          6    2    1    2  501    0 -0.40818494774E+02  0.69095728165E+02 -0.49233223322E+03  0.52575012230E+03  0.16607767481E+03 0.  0.
         24    2    3    3    0    0 -0.47934748698E+02  0.85051909809E+02 -0.49124393866E+03  0.50762513437E+03  0.82650482643E+02 0.  0.
         -6    2    1    2    0  502  0.40818494774E+02 -0.69095728165E+02  0.38133226508E+02  0.19443737529E+03  0.17294906990E+03 0.  0.
        -24    2    5    5    0    0 -0.25568898704E+02  0.10224048485E+02 -0.32827910624E+01  0.82919262451E+02  0.78144274390E+02 0.  0.
          5    1    3    3  501    0  0.71162539243E+01 -0.15956181644E+02 -0.10882945603E+01  0.18124987934E+02  0.47000000000E+01 0. -1.
        -13    1    4    4    0    0  0.32380402737E+01  0.57775107092E+02 -0.13781351552E+03  0.14946910371E+03  0.00000000000E+00 0.  1.
         14    1    4    4    0    0 -0.51172788972E+02  0.27276802717E+02 -0.35343042314E+03  0.35815603066E+03  0.00000000000E+00 0. -1.
         -5    1    5    5    0  502  0.66387393477E+02 -0.79319776650E+02  0.41416017570E+02  0.11151811284E+03  0.47000000000E+01 0.  1.
         13    1    6    6    0    0 -0.43148315403E+02  0.24356776055E+02 -0.21415773637E+02  0.53978375507E+02  0.00000000000E+00 0. -1.
        -14    1    6    6    0    0  0.17579416699E+02 -0.14132727571E+02  0.18132982574E+02  0.28940886944E+02  0.00000000000E+00 0.  1.
</event>
<event>
12    1  0.8052519E-002  0.3921781E+03  0.7818608E-02  0.1046529E+00
         21   -1    0    0  501  502  0.00000000000E+00  0.00000000000E+00  0.23178867218E+03  0.23178867218E+03  0.00000000000E+00 0. -1.
         21   -1    0    0  502  503 -0.00000000000E+00 -0.00000000000E+00 -0.91427046454E+03  0.91427046454E+03  0.00000000000E+00 0.  1.
         -6    2    1    2    0  503  0.22265747857E+03 -0.27310912693E+03 -0.64136809218E+03  0.75173190354E+03  0.17199673588E+03 0.  0.
        -24    2    3    3    0    0  0.11933458974E+03 -0.19317309145E+03 -0.29125569578E+03  0.37801253123E+03  0.80666014367E+02 0.  0.
          6    2    1    2  501    0 -0.22265747857E+03  0.27310912693E+03 -0.41113700175E+02  0.39432723318E+03  0.17215888738E+03 0.  0.
         24    2    5    5    0    0 -0.20966376523E+03  0.23190118328E+03  0.16019574205E+02  0.32254121610E+03  0.77712007223E+02 0.  0.
          5    1    5    5  501    0 -0.12993713340E+02  0.41207943657E+02 -0.57133274380E+02  0.71786017079E+02  0.47000000000E+01 0. -1.
        -13    1    6    6    0    0 -0.17409423727E+03  0.20789992627E+03 -0.11764955012E+02  0.27142143792E+03  0.00000000000E+00 0.  1.
         14    1    6    6    0    0 -0.35569527964E+02  0.24001257003E+02  0.27784529216E+02  0.51119778180E+02  0.00000000000E+00 0. -1.
         -5    1    3    3    0  503  0.10332288884E+03 -0.79936035483E+02 -0.35011239640E+03  0.37371937231E+03  0.47000000000E+01 0.  1.
         11    1    4    4    0    0  0.32898409303E+02 -0.15187212452E+02 -0.17506535113E+02  0.40242210779E+02  0.00000000000E+00 0. -1.
        -12    1    4    4    0    0  0.86436180433E+02 -0.17798587900E+03 -0.27374916067E+03  0.33777032045E+03  0.00000000000E+00 0.  1.
</event>
<event>
12    1  0.8052519E-002  0.2095130E+03  0.7818608E-02  0.1142234E+00
         21   -1    0    0  501  502  0.00000000000E+00  0.00000000000E+00  0.13854544710E+04  0.13854544710E+04  0.00000000000E+00 0. -1.
         21   -1    0    0  502  503 -0.00000000000E+00 -0.00000000000E+00 -0.36770636183E+02  0.36770636183E+02  0.00000000000E+00 0.  1.
         -6    2    1    2    0  503  0.10786664400E+03 -0.48772376347E+02  0.40630110024E+03  0.45713923510E+03  0.17286335248E+03 0.  0.
        -24    2    3    3    0    0  0.10768393306E+03 -0.80188489022E+02  0.39252628954E+03  0.42251495274E+03  0.80099775896E+02 0.  0.
          6    2    1    2  501    0 -0.10786664400E+03  0.48772376347E+02  0.94238273457E+03  0.96508587207E+03  0.17114778550E+03 0.  0.
         24    2    5    5    0    0 -0.91928540737E+02  0.36391715217E+02  0.35553472989E+03  0.37787213372E+03  0.81284634167E+02 0.  0.
          5    1    5    5  501    0 -0.15938103258E+02  0.12380661130E+02  0.58684800468E+03  0.58721373835E+03  0.47000000000E+01 0. -1.
        -13    1    6    6    0    0  0.14766086447E+02  0.10665661088E+02  0.47985916533E+02  0.51326813859E+02  0.00000000000E+00 0.  1.
         14    1    6    6    0    0 -0.10669462718E+03  0.25726054129E+02  0.30754881335E+03  0.32654531986E+03  0.00000000000E+00 0. -1.
         -5    1    3    3    0  503  0.18271093101E+00  0.31416112675E+02  0.13774810695E+02  0.34624282355E+02  0.47000000000E+01 0.  1.
         11    1    4    4    0    0 -0.81190781970E+01 -0.26428492507E+02  0.90015230957E+02  0.94165420677E+02  0.00000000000E+00 0. -1.
        -12    1    4    4    0    0  0.11580301126E+03 -0.53759996515E+02  0.30251105859E+03  0.32834953207E+03  0.00000000000E+00 0.  1.
</event>
<event>
12    1  0.8052519E-002  0.2453775E+03  0.7818608E-02  0.1116264E+00
         21   -1    0    0  501  502  0.00000000000E+00  0.00000000000E+00  0.99759899677E+03  0.99759899677E+03  0.00000000000E+00 0. -1.
         21   -1    0    0  502  503 -0.00000000000E+00 -0.00000000000E+00 -0.80068640671E+02  0.80068640671E+02  0.00000000000E+00 0. -1.
         -6    2    1    2    0  503  0.16611241544E+03  0.52116842602E+02  0.19136374095E+03  0.31116383261E+03  0.17289693325E+03 0.  0.
        -24    2    3    3    0    0  0.12506152232E+03  0.53382204200E+02  0.21283834209E+03  0.26458030055E+03  0.78819613567E+02 0.  0.
          6    2    1    2  501    0 -0.16611241544E+03 -0.52116842602E+02  0.72616661515E+03  0.76650380483E+03  0.17291798639E+03 0.  0.
         24    2    5    5    0    0 -0.10761633517E+03 -0.78526290294E+02  0.64230977857E+03  0.66079992896E+03  0.79668316130E+02 0.  0.
          5    1    5    5  501    0 -0.58496080272E+02  0.26409447692E+02  0.83856836574E+02  0.10570387587E+03  0.47000000000E+01 0. -1.
        -13    1    6    6    0    0 -0.74567203314E+01 -0.45316233819E+02  0.26774438230E+03  0.27165459314E+03  0.00000000000E+00 0.  1.
         14    1    6    6    0    0 -0.10015961483E+03 -0.33210056475E+02  0.37456539628E+03  0.38914533581E+03  0.00000000000E+00 0. -1.
         -5    1    3    3    0  503  0.41050893115E+02 -0.12653615977E+01 -0.21474601139E+02  0.46583532064E+02  0.47000000000E+01 0.  1.
         13    1    4    4    0    0  0.10836821565E+03  0.25270647503E+02  0.10919804217E+03  0.15590538221E+03  0.00000000000E+00 0. -1.
        -14    1    4    4    0    0  0.16693306670E+02  0.28111556697E+02  0.10364029992E+03  0.10867491833E+03  0.00000000000E+00 0.  1.
</event>
<event>
12    1  0.8052519E-002  0.2007693E+03  0.7818608E-02  0.1152906E+00
         21   -1    0    0  501  502  0.00000000000E+00  0.00000000000E+00  0.28236422868E+02  0.28236422868E+02  0.00000000000E+00 0.  1.
         21   -1    0    0  502  503 -0.00000000000E+00 -0.00000000000E+00 -0.14105389208E+04  0.14105389208E+04  0.00000000000E+00 0.  1.
         -6    2    1    2    0  503 -0.26758814202E+02 -0.74546511956E+02 -0.52532614754E+03  0.56238410254E+03  0.18448604532E+03 0.  0.
        -24    2    3    3    0    0 -0.86197372109E+02 -0.78527283052E+02 -0.37282477427E+03  0.39859293198E+03  0.79255863963E+02 0.  0.
          6    2    1    2  501    0  0.26758814202E+02  0.74546511956E+02 -0.85697635043E+03  0.87639124116E+03  0.16546880616E+03 0.  0.
         24    2    5    5    0    0  0.58646243446E+02  0.69166616392E+02 -0.39040862364E+03  0.40868055591E+03  0.79859255400E+02 0.  0.
          5    1    5    5  501    0 -0.31887429244E+02  0.53798955644E+01 -0.46656772678E+03  0.46771068525E+03  0.47000000000E+01 0. -1.
        -11    1    6    6    0    0 -0.73201088776E+01  0.39545241355E+02 -0.21869521304E+03  0.22236233115E+03  0.00000000000E+00 0.  1.
         12    1    6    6    0    0  0.65966352324E+02  0.29621375037E+02 -0.17171341060E+03  0.18631822476E+03  0.00000000000E+00 0. -1.
         -5    1    3    3    0  503  0.59438557907E+02  0.39807710958E+01 -0.15250137327E+03  0.16379117056E+03  0.47000000000E+01 0.  1.
         11    1    4    4    0    0  0.45317729132E+01  0.10850908716E+02 -0.17070544928E+02  0.20728788913E+02  0.00000000000E+00 0. -1.
        -12    1    4    4    0    0 -0.90729145022E+02 -0.89378191767E+02 -0.35575422934E+03  0.37786414307E+03  0.00000000000E+00 0.  1.
</event>
<event>
12    1  0.8052519E-002  0.1790900E+03  0.7818608E-02  0.1168762E+00
         21   -1    0    0  503  502  0.00000000000E+00  0.00000000000E+00  0.52792574497E+03  0.52792574497E+03  0.00000000000E+00 0. -1.
         21   -1    0    0  501  503 -0.00000000000E+00 -0.00000000000E+00 -0.21822602236E+03  0.21822602236E+03  0.00000000000E+00 0. -1.
          6    2    1    2  501    0 -0.36886533028E+02  0.29761293214E+02 -0.16221136854E+03  0.24140102704E+03  0.17238206658E+03 0.  0.
         24    2    3    3    0    0  0.13321038182E+02  0.71757262449E+02 -0.12913180254E+03  0.16791082819E+03  0.78692242474E+02 0.  0.
         -6    2    1    2    0  502  0.36886533028E+02 -0.29761293214E+02  0.47191109115E+03  0.50475074029E+03  0.17270460613E+03 0.  0.
        -24    2    5    5    0    0  0.57799525982E+02  0.35700887046E+02  0.21533438273E+03  0.23908864735E+03  0.78607546504E+02 0.  0.
          5    1    3    3  501    0 -0.50207571210E+02 -0.41995969235E+02 -0.33079566004E+02  0.73490198842E+02  0.47000000000E+01 0. -1.
        -13    1    4    4    0    0 -0.20974822661E+02  0.52149518610E+02 -0.36008011142E+02  0.66753968746E+02  0.00000000000E+00 0.  1.
         14    1    4    4    0    0  0.34295860844E+02  0.19607743840E+02 -0.93123791396E+02  0.10115685945E+03  0.00000000000E+00 0. -1.
         -5    1    5    5    0  502 -0.20912992954E+02 -0.65462180260E+02  0.25657670842E+03  0.26566209294E+03  0.47000000000E+01 0.  1.
         13    1    6    6    0    0 -0.15929638036E+01  0.95212188985E+01  0.13708054618E+03  0.13742003960E+03  0.00000000000E+00 0. -1.
        -14    1    6    6    0    0  0.59392489785E+02  0.26179668147E+02  0.78253836549E+02  0.10166860775E+03  0.00000000000E+00 0.  1.
</event>
<event>
12    1  0.8052519E-002  0.2144797E+03  0.7818608E-02  0.1138097E+00
         21   -1    0    0  501  502  0.00000000000E+00  0.00000000000E+00  0.58273128817E+03  0.58273128817E+03  0.00000000000E+00 0. -1.
         21   -1    0    0  502  503 -0.00000000000E+00 -0.00000000000E+00 -0.80599996945E+02  0.80599996945E+02  0.00000000000E+00 0. -1.
         -6    2    1    2    0  503 -0.10774038949E+02 -0.12887529328E+03  0.20275893230E+03  0.29514863056E+03  0.17110408633E+03 0.  0.
        -24    2    3    3    0    0 -0.45326289904E+02 -0.14596208582E+03  0.18413231135E+03  0.25208057356E+03  0.79249633625E+02 0.  0.
          6    2    1    2  501    0  0.10774038949E+02  0.12887529328E+03  0.29937235892E+03  0.36818265456E+03  0.17090856239E+03 0.  0.
         24    2    5    5    0    0 -0.41999160690E+02  0.77570313337E+02  0.25631943098E+03  0.28278443343E+03  0.80537581807E+02 0.  0.
          5    1    5    5  501    0  0.52773199639E+02  0.51304979941E+02  0.43052927938E+02  0.85398221123E+02  0.47000000000E+01 0. -1.
        -13    1    6    6    0    0 -0.34451136739E+02  0.38503166048E+01  0.14477494478E+03  0.14886735840E+03  0.00000000000E+00 0.  1.
         14    1    6    6    0    0 -0.75480239513E+01  0.73719996733E+02  0.11154448620E+03  0.13391707504E+03  0.00000000000E+00 0. -1.
         -5    1    3    3    0  503  0.34552250955E+02  0.17086792542E+02  0.18626620955E+02  0.43068056999E+02  0.47000000000E+01 0.  1.
         11    1    4    4    0    0 -0.64971693665E+02 -0.94421680305E+02  0.10378363288E+03  0.15462152872E+03  0.00000000000E+00 0. -1.
        -12    1    4    4    0    0  0.19645403761E+02 -0.51540405516E+02  0.80348678470E+02  0.97459044842E+02  0.00000000000E+00 0.  1.
</event>
<event>
12    1  0.8052519E-002  0.1861916E+03  0.7818608E-02  0.1162569E+00
         21   -1    0    0  501  502  0.00000000000E+00  0.00000000000E+00  0.10322075007E+03  0.10322075007E+03  0.00000000000E+00 0. -1.
         21   -1    0    0  502  503 -0.00000000000E+00 -0.00000000000E+00 -0.18747274030E+04  0.18747274030E+04  0.00000000000E+00 0.  1.
         -6    2    1    2    0  503 -0.11103126009E+02  0.70938420418E+02 -0.17820358269E+04  0.17914591238E+04  0.16887440632E+03 0.  0.
        -24    2    3    3    0    0  0.16554136699E+02 -0.25438671033E+02 -0.84996829630E+03  0.85400222373E+03  0.77152628008E+02 0.  0.
          6    2    1    2  501    0  0.11103126009E+02 -0.70938420418E+02  0.10529173960E+02  0.18648902924E+03  0.17178985891E+03 0.  0.
         24    2    5    5    0    0 -0.91163182761E+01  0.30752123091E+02  0.12430678343E+01  0.82286753195E+02  0.75767830906E+02 0.  0.
          5    1    5    5  501    0  0.20219444285E+02 -0.10169054351E+03  0.92861061259E+01  0.10420227605E+03  0.47000000000E+01 0. -1.
        -13    1    6    6    0    0  0.28888334524E+02  0.51415869038E+01 -0.15879978292E+02  0.33363835182E+02  0.00000000000E+00 0.  1.
         14    1    6    6    0    0 -0.38004652801E+02  0.25610536188E+02  0.17123046126E+02  0.48922918013E+02  0.00000000000E+00 0. -1.
         -5    1    3    3    0  503 -0.27657262708E+02  0.96377091452E+02 -0.93206753058E+03  0.93745690007E+03  0.47000000000E+01 0.  1.
         11    1    4    4    0    0 -0.12269157234E+02 -0.39225757350E+02 -0.26560413870E+03  0.26876523353E+03  0.00000000000E+00 0. -1.
        -12    1    4    4    0    0  0.28823293933E+02  0.13787086317E+02 -0.58436415759E+03  0.58523699020E+03  0.00000000000E+00 0.  1.
</event>
<event>
12    1  0.8052519E-002  0.2335004E+03  0.7818608E-02  0.1124210E+00
         21   -1    0    0  503  502  0.00000000000E+00  0.00000000000E+00  0.43298356956E+03  0.43298356956E+03  0.00000000000E+00 0.  1.
         21   -1    0    0  501  503 -0.00000000000E+00 -0.00000000000E+00 -0.25488831142E+03  0.25488831142E+03  0.00000000000E+00 0.  1.
          6    2    1    2  501    0 -0.15652361622E+03 -0.14061859979E+02 -0.15563488358E+03  0.28056579476E+03  0.17261972617E+03 0.  0.
         24    2    3    3    0    0 -0.17286082789E+03  0.15449898326E+02 -0.15564414600E+03  0.24650792563E+03  0.80134212654E+02 0.  0.
         -6    2    1    2    0  502  0.15652361622E+03  0.14061859979E+02  0.33373014172E+03  0.40730608622E+03  0.17269934002E+03 0.  0.
        -24    2    5    5    0    0  0.45842627411E+02 -0.51146099799E+02  0.15660457192E+03  0.18845015924E+03  0.79189649307E+02 0.  0.
          5    1    3    3  501    0  0.16337211677E+02 -0.29511758304E+02  0.92624221708E-02  0.34057869126E+02  0.47000000000E+01 0. -1.
        -11    1    4    4    0    0 -0.57110229255E+01  0.10709889789E+01 -0.45377503735E+02  0.45748012475E+02  0.00000000000E+00 0.  1.
         12    1    4    4    0    0 -0.16714980497E+03  0.14378909347E+02 -0.11026664227E+03  0.20075991316E+03  0.00000000000E+00 0. -1.
         -5    1    5    5    0  502  0.11068098881E+03  0.65207959777E+02  0.17712556979E+03  0.21885592698E+03  0.47000000000E+01 0.  1.
         13    1    6    6    0    0 -0.21087092133E+02 -0.13180550804E+02  0.59973831566E+02  0.64924978605E+02  0.00000000000E+00 0. -1.
        -14    1    6    6    0    0  0.66929719544E+02 -0.37965548995E+02  0.96630740359E+02  0.12352518064E+03  0.00000000000E+00 0.  1.
</event>
<event>
12    1  0.8052519E-002  0.2068139E+03  0.7818608E-02  0.1144206E+00
         21   -1    0    0  501  502  0.00000000000E+00  0.00000000000E+00  0.18961824656E+03  0.18961824656E+03  0.00000000000E+00 0. -1.
         21   -1    0    0  502  503 -0.00000000000E+00 -0.00000000000E+00 -0.44351827749E+03  0.44351827749E+03  0.00000000000E+00 0. -1.
         -6    2    1    2    0  503  0.10025593749E+03  0.55219873368E+02 -0.34918973807E+03  0.40583922044E+03  0.17225420825E+03 0.  0.
        -24    2    3    3    0    0  0.36647119999E+02  0.12109351816E+02 -0.30350449693E+03  0.31631922274E+03  0.80331956341E+02 0.  0.
          6    2    1    2  501    0 -0.10025593749E+03 -0.55219873368E+02  0.95289707134E+02  0.22729730362E+03  0.17170745042E+03 0.  0.
         24    2    5    5    0    0 -0.87565883949E+02  0.26668015406E+02  0.37264035021E+02  0.12602671356E+03  0.78199470246E+02 0.  0.
          5    1    5    5  501    0 -0.12690053541E+02 -0.81887888774E+02  0.58025672113E+02  0.10127059006E+03  0.47000000000E+01 0. -1.
        -13    1    6    6    0    0 -0.85591877341E+02  0.24262207902E+02  0.33300398767E+00  0.88964796918E+02  0.00000000000E+00 0.  1.
         14    1    6    6    0    0 -0.19740066083E+01  0.24058075040E+01  0.36931031034E+02  0.37061916640E+02  0.00000000000E+00 0. -1.
         -5    1    3    3    0  503  0.63608817492E+02  0.43110521552E+02 -0.45685241131E+02  0.89519997701E+02  0.47000000000E+01 0.  1.
         11    1    4    4    0    0  0.36957351606E+02 -0.29016983461E+02 -0.18528291675E+03  0.19114808502E+03  0.00000000000E+00 0. -1.
        -12    1    4    4    0    0 -0.31023160745E+00  0.41126335278E+02 -0.11822158018E+03  0.12517113772E+03  0.00000000000E+00 0.  1.
</event>
<event>
12    1  0.8052519E-002  0.2338355E+03  0.7818608E-02  0.1124291E+00
         21   -1    0    0  501  502  0.00000000000E+00  0.00000000000E+00  0.98392735875E+02  0.98392735875E+02  0.00000000000E+00 0.  1.
         21   -1    0    0  502  503 -0.00000000000E+00 -0.00000000000E+00 -0.62117378777E+03  0.62117378777E+03  0.00000000000E+00 0.  1.
         -6    2    1    2    0  503  0.14167664821E+03  0.70970972773E+02 -0.38298182043E+03  0.44872501384E+03  0.17195904059E+03 0.  0.
        -24    2    3    3    0    0  0.11927796745E+03  0.52630630002E+02 -0.15225340420E+03  0.21614005919E+03  0.80859194675E+02 0.  0.
          6    2    1    2  501    0 -0.14167664821E+03 -0.70970972773E+02 -0.13979923147E+03  0.27084150981E+03  0.16941707911E+03 0.  0.
         24    2    5    5    0    0 -0.16566220641E+03 -0.66253528697E+02 -0.90016784010E+02  0.21518233846E+03  0.79792986424E+02 0.  0.
          5    1    5    5  501    0  0.23985558203E+02 -0.47174440755E+01 -0.49782447459E+02  0.55659171355E+02  0.47000000000E+01 0. -1.
        -13    1    6    6    0    0 -0.96940434105E+02 -0.23077021547E+02 -0.89620412495E+02  0.13402169609E+03  0.00000000000E+00 0.  1.
         14    1    6    6    0    0 -0.68721772303E+02 -0.43176507150E+02 -0.39637151518E+00  0.81160642362E+02  0.00000000000E+00 0. -1.
         -5    1    3    3    0  503  0.22398680757E+02  0.18340342770E+02 -0.23072841623E+03  0.23258495465E+03  0.47000000000E+01 0.  1.
         11    1    4    4    0    0  0.11529025775E+03  0.19854568314E+02 -0.97912312200E+02  0.15255447648E+03  0.00000000000E+00 0. -1.
        -12    1    4    4    0    0  0.39877096983E+01  0.32776061688E+02 -0.54341091998E+02  0.63585582705E+02  0.00000000000E+00 0.  1.
</event>
<event>
12    1  0.8052519E-002  0.1734703E+03  0.7818608E-02  0.1175781E+00
         21   -1    0    0  501  502  0.00000000000E+00  0.00000000000E+00  0.40680957747E+03  0.40680957747E+03  0.00000000000E+00 0.  1.
         21   -1    0    0  502  503 -0.00000000000E+00 -0.00000000000E+00 -0.16339256669E+03  0.16339256669E+03  0.00000000000E+00 0.  1.
         -6    2    1    2    0  503  0.88407850904E+01 -0.23789597329E+02 -0.92981604231E+02  0.19171045495E+03  0.16572029263E+03 0.  0.
        -24    2    3    3    0    0 -0.16099141100E+02  0.14983910701E+02  0.57070393655E+01  0.82683287609E+02  0.79500036651E+02 0.  0.
          6    2    1    2  501    0 -0.88407850904E+01  0.23789597329E+02  0.33639861501E+03  0.37849168922E+03  0.17160368937E+03 0.  0.
         24    2    5    5    0    0  0.24736082115E+02  0.66860119534E+02  0.27962529268E+03  0.29957542966E+03  0.80454859435E+02 0.  0.
          5    1    5    5  501    0 -0.33576867205E+02 -0.43070522205E+02  0.56773322326E+02  0.78916259556E+02  0.47000000000E+01 0. -1.
        -13    1    6    6    0    0  0.17143768681E+02  0.28128481116E+02  0.24459501814E+03  0.24680324786E+03  0.00000000000E+00 0.  1.
         14    1    6    6    0    0  0.75923134341E+01  0.38731638418E+02  0.35030274544E+02  0.52772181805E+02  0.00000000000E+00 0. -1.
         -5    1    3    3    0  503  0.24939926190E+02 -0.38773508031E+02 -0.98688643596E+02  0.10902716734E+03  0.47000000000E+01 0.  1.
         13    1    4    4    0    0  0.37818290124E+01  0.10093179745E+02  0.40720737683E+02  0.42123069516E+02  0.00000000000E+00 0. -1.
        -14    1    4    4    0    0 -0.19880970112E+02  0.48907309566E+01 -0.35013698317E+02  0.40560218093E+02  0.00000000000E+00 0.  1.
</event>
<event>
12    1  0.8052519E-002  0.1819819E+03  0.7818608E-02  0.1166084E+00
         21   -1    0    0  503  502  0.00000000000E+00  0.00000000000E+00  0.48137553948E+03  0.48137553948E+03  0.00000000000E+00 0.  1.
         21   -1    0    0  501  503 -0.00000000000E+00 -0.00000000000E+00 -0.71984629130E+02  0.71984629130E+02  0.00000000000E+00 0.  1.
          6    2    1    2  501    0  0.57046373864E+02  0.79423789595E+01  0.14343891210E+03  0.23110577982E+03  0.17180742071E+03 0.  0.
         24    2    3    3    0    0  0.61738239138E+02 -0.39337299574E+02  0.24799975541E+02  0.10322040588E+03  0.68413303481E+02 0.  0.
         -6    2    1    2    0  502 -0.57046373864E+02 -0.79423789595E+01  0.26595199825E+03  0.32225438879E+03  0.17262692595E+03 0.  0.
        -24    2    5    5    0    0 -0.21313784351E+02 -0.69392230666E+02  0.19121681067E+03  0.21900546389E+03  0.78294095903E+02 0.  0.
          5    1    3    3  501    0 -0.46918652736E+01  0.47279678534E+02  0.11863893656E+03  0.12788537395E+03  0.47000000000E+01 0. -1.
        -11    1    4    4    0    0  0.65742420310E+02 -0.18676951571E+02  0.38176967328E+02  0.78283939493E+02  0.00000000000E+00 0.  1.
         12    1    4    4    0    0 -0.40041811721E+01 -0.20660348003E+02 -0.13376991787E+02  0.24936466385E+02  0.00000000000E+00 0. -1.
         -5    1    5    5    0  502 -0.35732589513E+02  0.61449851707E+02  0.74735187589E+02  0.10324892490E+03  0.47000000000E+01 0.  1.
         11    1    6    6    0    0 -0.46178674652E+02 -0.38104783951E+02  0.74138295564E+02  0.95293921221E+02  0.00000000000E+00 0. -1.
        -12    1    6    6    0    0  0.24864890301E+02 -0.31287446716E+02  0.11707851510E+03  0.12371154267E+03  0.00000000000E+00 0.  1.
</event>
<event>
12    1  0.8052519E-002  0.1752361E+03  0.7818608E-02  0.1173148E+00
         21   -1    0    0  501  502  0.00000000000E+00  0.00000000000E+00  0.17906327124E+04  0.17906327124E+04  0.00000000000E+00 0.  1.
         21   -1    0    0  502  503 -0.00000000000E+00 -0.00000000000E+00 -0.17556065094E+02  0.17556065094E+02  0.00000000000E+00 0.  1.
         -6    2    1    2    0  503 -0.17652885545E+01  0.18544906989E+02  0.70503674487E+03  0.72586861545E+03  0.17164325055E+03 0.  0.
        -24    2    3    3    0    0 -0.61523150289E+02  0.24322733549E+02  0.32518671935E+03  0.34127465137E+03  0.79657340135E+02 0.  0.
          6    2    1    2  501    0  0.17652885545E+01 -0.18544906989E+02  0.10680399024E+04  0.10823201620E+04  0.17424313517E+03 0.  0.
         24    2    5    5    0    0 -0.25322131787E+02 -0.51333268920E+02  0.38826151109E+03  0.40119641678E+03  0.83278142323E+02 0.  0.
          5    1    5    5  501    0  0.27087420342E+02  0.32788361931E+02  0.67977839134E+03  0.68112374526E+03  0.47000000000E+01 0. -1.
        -11    1    6    6    0    0  0.22581942821E+02 -0.16466592771E+02  0.23863584283E+03  0.24026684812E+03  0.00000000000E+00 0.  1.
         12    1    6    6    0    0 -0.47904074608E+02 -0.34866676149E+02  0.14962566826E+03  0.16092956867E+03  0.00000000000E+00 0. -1.
         -5    1    3    3    0  503  0.59757861735E+02 -0.57778265592E+01  0.37985002552E+03  0.38459396408E+03  0.47000000000E+01 0.  1.
         11    1    4    4    0    0  0.99278195769E+01  0.72252531326E+01  0.16019688387E+03  0.16066675912E+03  0.00000000000E+00 0. -1.
        -12    1    4    4    0    0 -0.71450969866E+02  0.17097480416E+02  0.16498983548E+03  0.18060789225E+03  0.00000000000E+00 0.  1.
</event>
<event>
12    1  0.8052519E-002  0.2090893E+03  0.7818608E-02  0.1142889E+00
         21   -1    0    0  501  502  0.00000000000E+00  0.00000000000E+00  0.39532192390E+02  0.39532192390E+02  0.00000000000E+00 0.  1.
         21   -1    0    0  502  503 -0.00000000000E+00 -0.00000000000E+00 -0.11836055766E+04  0.11836055766E+04  0.00000000000E+00 0.  1.
         -6    2    1    2    0  503 -0.10945394125E+03  0.48408117234E+02 -0.74010350659E+03  0.76826415037E+03  0.16778883520E+03 0.  0.
        -24    2    3    3    0    0 -0.29096834245E+02  0.48433760334E+02 -0.19577942847E+03  0.21802051587E+03  0.77530031737E+02 0.  0.
          6    2    1    2  501    0  0.10945394125E+03 -0.48408117234E+02 -0.40396987765E+03  0.45487361864E+03  0.17144922229E+03 0.  0.
         24    2    5    5    0    0  0.94657618196E+02 -0.24212957588E+02 -0.13755157567E+03  0.18690881021E+03  0.80424718646E+02 0.  0.
          5    1    5    5  501    0  0.14796323049E+02 -0.24195159645E+02 -0.26641830198E+03  0.26796480843E+03  0.47000000000E+01 0. -1.
        -13    1    6    6    0    0  0.92407715083E+02  0.68912571099E+01 -0.11825433021E+03  0.15023568765E+03  0.00000000000E+00 0.  1.
         14    1    6    6    0    0  0.22499031138E+01 -0.31104214698E+02 -0.19297245454E+02  0.36673122558E+02  0.00000000000E+00 0. -1.
         -5    1    3    3    0  503 -0.80357107000E+02 -0.25643100035E-01 -0.54432407811E+03  0.55024363451E+03  0.47000000000E+01 0.  1.
         11    1    4    4    0    0  0.54929236045E+01 -0.16204472016E+02 -0.14321811859E+02  0.22313032469E+02  0.00000000000E+00 0. -1.
        -12    1    4    4    0    0 -0.34589757850E+02  0.64638232350E+02 -0.18145761662E+03  0.19570748340E+03  0.00000000000E+00 0.  1.
</event>
<event>
12    1  0.8052519E-002  0.2101708E+03  0.7818608E-02  0.1141431E+00
         21   -1    0    0  501  502  0.00000000000E+00  0.00000000000E+00  0.60318441056E+03  0.60318441056E+03  0.00000000000E+00 0.  1.
         21   -1    0    0  502  503 -0.00000000000E+00 -0.00000000000E+00 -0.73238975865E+02  0.73238975865E+02  0.00000000000E+00 0. -1.
         -6    2    1    2    0  503  0.11211192773E+03  0.44924934784E+02  0.26139507657E+03  0.33540866027E+03  0.17200072449E+03 0.  0.
        -24    2    3    3    0    0  0.79172712504E+02  0.56295467086E+02  0.77770454102E+02  0.14844777431E+03  0.80938248964E+02 0.  0.
          6    2    1    2  501    0 -0.11211192773E+03 -0.44924934784E+02  0.26855035812E+03  0.34101472615E+03  0.17200120494E+03 0.  0.
         24    2    5    5    0    0 -0.49678851777E+02 -0.26195638562E+02  0.25544613376E+03  0.27436274789E+03  0.82873339402E+02 0.  0.
          5    1    5    5  501    0 -0.62433075949E+02 -0.18729296222E+02  0.13104224356E+02  0.66651978256E+02  0.47000000000E+01 0. -1.
        -13    1    6    6    0    0 -0.29145652248E+01  0.24010585153E+02  0.29064001638E+02  0.37811626269E+02  0.00000000000E+00 0.  1.
         14    1    6    6    0    0 -0.46764286552E+02 -0.50206223715E+02  0.22638213212E+03  0.23655112162E+03  0.00000000000E+00 0. -1.
         -5    1    3    3    0  503  0.32939215222E+02 -0.11370532302E+02  0.18362462247E+03  0.18696088597E+03  0.47000000000E+01 0.  1.
         13    1    4    4    0    0 -0.42673945095E+01  0.40885090742E+02  0.19377125723E+02  0.45445289109E+02  0.00000000000E+00 0. -1.
        -14    1    4    4    0    0  0.83440107014E+02  0.15410376344E+02  0.58393328379E+02  0.10300248520E+03  0.00000000000E+00 0.  1.
</event>
<event>
12    1  0.8052519E-002  0.1949322E+03  0.7818608E-02  0.1154515E+00
         21   -1    0    0  501  502  0.00000000000E+00  0.00000000000E+00  0.26537396119E+03  0.26537396119E+03  0.00000000000E+00 0.  1.
         21   -1    0    0  502  503 -0.00000000000E+00 -0.00000000000E+00 -0.19864612485E+03  0.19864612485E+03  0.00000000000E+00 0. -1.
         -6    2    1    2    0  503 -0.54137905798E+02  0.70081802738E+02 -0.90675248449E+02  0.21498967836E+03  0.17365537481E+03 0.  0.
        -24    2    3    3    0    0  0.16522633413E+02  0.87581394016E+02 -0.72183000790E+02  0.13973543782E+03  0.79825490831E+02 0.  0.
          6    2    1    2  501    0  0.54137905798E+02 -0.70081802738E+02  0.15740308479E+03  0.24903040768E+03  0.17145856914E+03 0.  0.
         24    2    5    5    0    0  0.72190671627E+02 -0.60857365698E+02  0.17968819362E+03  0.21853928327E+03  0.80971966606E+02 0.  0.
          5    1    5    5  501    0 -0.18052765829E+02 -0.92244370396E+01 -0.22285108827E+02  0.30491124417E+02  0.47000000000E+01 0. -1.
        -13    1    6    6    0    0  0.27322456145E+02 -0.72878203773E+02  0.11678661959E+03  0.14034551546E+03  0.00000000000E+00 0.  1.
         14    1    6    6    0    0  0.44868215482E+02  0.12020838075E+02  0.62901574025E+02  0.78193767804E+02  0.00000000000E+00 0. -1.
         -5    1    3    3    0  503 -0.70660539211E+02 -0.17499591278E+02 -0.18492247659E+02  0.75254240545E+02  0.47000000000E+01 0.  1.
         11    1    4    4    0    0  0.13693445276E+02 -0.10966237959E+02 -0.24732019541E+02  0.30322295577E+02  0.00000000000E+00 0. -1.
        -12    1    4    4    0    0  0.28291881367E+01  0.98547631975E+02 -0.47450981249E+02  0.10941314224E+03  0.00000000000E+00 0.  1.
</event>
<event>
12    1  0.8052519E-002  0.1980396E+03  0.7818608E-02  0.1151416E+00
         21   -1    0    0  501  502  0.00000000000E+00  0.00000000000E+00  0.96502924419E+03  0.96502924419E+03  0.00000000000E+00 0. -1.
         21   -1    0    0  502  503 -0.00000000000E+00 -0.00000000000E+00 -0.44553727462E+02  0.44553727462E+02  0.00000000000E+00 0. -1.
         -6    2    1    2    0  503 -0.91602651032E+02  0.32603331190E+02  0.31047651802E+03  0.36825991889E+03  0.17252732170E+03 0.  0.
        -24    2    3    3    0    0 -0.11576396032E+03 -0.14749173745E+02  0.25895617602E+03  0.29408132204E+03  0.76201641967E+02 0.  0.
          6    2    1    2  501    0  0.91602651032E+02 -0.32603331190E+02  0.60999899871E+03  0.64132305277E+03  0.17246001480E+03 0.  0.
         24    2    5    5    0    0  0.39605816795E+02  0.21962275777E+02  0.15489524139E+03  0.17999605793E+03  0.79718773112E+02 0.  0.
          5    1    5    5  501    0  0.51996834237E+02 -0.54565606966E+02  0.45510375732E+03  0.46132699483E+03  0.47000000000E+01 0. -1.
        -11    1    6    6    0    0  0.44123861692E+02  0.16644291868E+02  0.32201756765E+02  0.57104297221E+02  0.00000000000E+00 0.  1.
         12    1    6    6    0    0 -0.45180448972E+01  0.53179839090E+01  0.12269348462E+03  0.12289176071E+03  0.00000000000E+00 0. -1.
         -5    1    3    3    0  503  0.24161309288E+02  0.47352504935E+02  0.51520342000E+02  0.74178596845E+02  0.47000000000E+01 0.  1.
         13    1    4    4    0    0 -0.71600073486E+02  0.17045393753E+02  0.20342924532E+03  0.21633440277E+03  0.00000000000E+00 0. -1.
        -14    1    4    4    0    0 -0.44163886835E+02 -0.31794567498E+02  0.55526930704E+02  0.77746919271E+02  0.00000000000E+00 0.  1.
</event>
<event>
12    1  0.8052519E-002  0.1723710E+03  0.7818608E-02  0.1175719E+00
         21   -1    0    0  503  502  0.00000000000E+00  0.00000000000E+00  0.10213921374E+03  0.10213921374E+03  0.00000000000E+00 0.  1.
         21   -1    0    0  501  503 -0.00000000000E+00 -0.00000000000E+00 -0.30704216479E+03  0.30704216479E+03  0.00000000000E+00 0.  1.
          6    2    1    2  501    0  0.10724544209E+02 -0.96567342148E+01 -0.15268808698E+03  0.23027250608E+03  0.17176584872E+03 0.  0.
         24    2    3    3    0    0 -0.44608276954E+02 -0.27293693705E+02 -0.14187388559E+03  0.17101189193E+03  0.79887569001E+02 0.  0.
         -6    2    1    2    0  502 -0.10724544209E+02  0.96567342148E+01 -0.52214864070E+02  0.17890887246E+03  0.17051018811E+03 0.  0.
        -24    2    5    5    0    0  0.29658958378E+02 -0.43313778442E+02 -0.31239028880E+01  0.96031161568E+02  0.80352274441E+02 0.  0.
          5    1    3    3  501    0  0.55332821163E+02  0.17636959491E+02 -0.10814201393E+02  0.59260614152E+02  0.47000000000E+01 0. -1.
        -11    1    4    4    0    0 -0.73965476703E+01 -0.92246543031E+01  0.88150400099E+01  0.14748155642E+02  0.00000000000E+00 0.  1.
         12    1    4    4    0    0 -0.37211729284E+02 -0.18069039402E+02 -0.15068892560E+03  0.15626373629E+03  0.00000000000E+00 0. -1.
         -5    1    5    5    0  502 -0.40383502586E+02  0.52970512657E+02 -0.49090961182E+02  0.82877710888E+02  0.47000000000E+01 0.  1.
         11    1    6    6    0    0 -0.16125587782E+02 -0.42619597199E+02  0.13162592991E+02  0.47431197549E+02  0.00000000000E+00 0. -1.
        -12    1    6    6    0    0  0.45784546159E+02 -0.69418124297E+00 -0.16286495879E+02  0.48599964019E+02  0.00000000000E+00 0.  1.
</event>
<event>
12    1  0.8052519E-002  0.1974803E+03  0.7818608E-02  0.1152119E+00
         21   -1    0    0  503  502  0.00000000000E+00  0.00000000000E+00  0.86840258649E+03  0.86840258649E+03  0.00000000000E+00 0.  1.
         21   -1    0    0  501  503 -0.00000000000E+00 -0.00000000000E+00 -0.45107625090E+02  0.45107625090E+02  0.00000000000E+00 0.  1.
          6    2    1    2  501    0 -0.60774729910E+02  0.80557465451E+02  0.45607482121E+03  0.49655806586E+03  0.16847135422E+03 0.  0.
         24    2    3    3    0    0 -0.38210604887E+02  0.99414772371E+02  0.44545569833E+03  0.46494171672E+03  0.79979206530E+02 0.  0.
         -6    2    1    2    0  502  0.60774729910E+02 -0.80557465451E+02  0.36722014018E+03  0.41695214572E+03  0.16975095706E+03 0.  0.
        -24    2    5    5    0    0  0.88641136939E+02 -0.28733393249E+02  0.31522197967E+03  0.33828722471E+03  0.79940545957E+02 0.  0.
          5    1    3    3  501    0 -0.22564125023E+02 -0.18857306920E+02  0.10619122878E+02  0.31616349141E+02  0.47000000000E+01 0. -1.
        -11    1    4    4    0    0  0.21101515355E+02  0.11439947881E+02  0.12780716339E+03  0.13004159862E+03  0.00000000000E+00 0.  1.
         12    1    4    4    0    0 -0.59312120242E+02  0.87974824490E+02  0.31764853494E+03  0.33490011810E+03  0.00000000000E+00 0. -1.
         -5    1    5    5    0  502 -0.27866407029E+02 -0.51824072201E+02  0.51998160516E+02  0.78664921009E+02  0.47000000000E+01 0.  1.
         11    1    6    6    0    0  0.75413384293E+02  0.15166814272E+02  0.19708903390E+03  0.21156866041E+03  0.00000000000E+00 0. -1.
        -12    1    6    6    0    0  0.13227752646E+02 -0.43900207521E+02  0.11813294577E+03  0.12671856429E+03  0.00000000000E+00 0.  1.
</event>
<event>
12    1  0.8052519E-002  0.2634925E+03  0.7818608E-02  0.1105595E+00
         21   -1    0    0  501  502  0.00000000000E+00  0.00000000000E+00  0.51477523971E+02  0.51477523971E+02  0.00000000000E+00 0. -1.
         21   -1    0    0  502  503 -0.00000000000E+00 -0.00000000000E+00 -0.16316567354E+04  0.16316567354E+04  0.00000000000E+00 0. -1.
         -6    2    1    2    0  503 -0.18819013960E+03 -0.72457577484E+02 -0.11560740842E+04  0.11857215381E+04  0.16959554428E+03 0.  0.
        -24    2    3    3    0    0 -0.99876148412E+02 -0.46861970262E+02 -0.95286064942E+03  0.96262450492E+03  0.80816031724E+02 0.  0.
          6    2    1    2  501    0  0.18819013960E+03  0.72457577484E+02 -0.42410512731E+03  0.49741272132E+03  0.16397752025E+03 0.  0.
         24    2    5    5    0    0  0.91173284318E+02  0.96552489112E+02 -0.30142504992E+03  0.33909239299E+03  0.80570710173E+02 0.  0.
          5    1    5    5  501    0  0.97016855282E+02 -0.24094911627E+02 -0.12268007739E+03  0.15832032833E+03  0.47000000000E+01 0. -1.
        -13    1    6    6    0    0 -0.49873317977E+01  0.19178887475E+01 -0.77355616642E+02  0.77539945846E+02  0.00000000000E+00 0.  1.
         14    1    6    6    0    0  0.96160616116E+02  0.94634600364E+02 -0.22406943328E+03  0.26155244715E+03  0.00000000000E+00 0. -1.
         -5    1    3    3    0  503 -0.88313991188E+02 -0.25595607222E+02 -0.20321343474E+03  0.22309703317E+03  0.47000000000E+01 0.  1.
         11    1    4    4    0    0 -0.62242045895E+02 -0.56864362820E+02 -0.42208500123E+03  0.43042232319E+03  0.00000000000E+00 0. -1.
        -12    1    4    4    0    0 -0.37634102517E+02  0.10002392558E+02 -0.53077564819E+03  0.53220218173E+03  0.00000000000E+00 0.  1.
</event>
<event>
12    1  0.8052519E-002  0.1836977E+03  0.7818608E-02  0.1164449E+00
         21   -1    0    0  503  502  0.00000000000E+00  0.00000000000E+00  0.47182270240E+02  0.47182270240E+02  0.00000000000E+00 0. -1.
         21   -1    0    0  501  503 -0.00000000000E+00 -0.00000000000E+00 -0.71398157809E+03  0.71398157809E+03  0.00000000000E+00 0. -1.
          6    2    1    2  501    0  0.62087487323E+02 -0.97242945124E+01 -0.31411715624E+03  0.36350879313E+03  0.17181279595E+03 0.  0.
         24    2    3    3    0    0 -0.15957291867E+02 -0.41538565296E+02 -0.10056981126E+03  0.13388367706E+03  0.76357478179E+02 0.  0.
         -6    2    1    2    0  502 -0.62087487323E+02  0.97242945124E+01 -0.35268215161E+03  0.39765505520E+03  0.17261351302E+03 0.  0.
        -24    2    5    5    0    0 -0.25035436951E+02 -0.13091540496E+02 -0.34342203013E+03  0.35291964849E+03  0.76258940303E+02 0.  0.
          5    1    3    3  501    0  0.78044779190E+02  0.31814270783E+02 -0.21354734498E+03  0.22962511607E+03  0.47000000000E+01 0. -1.
        -11    1    4    4    0    0 -0.25212225458E+02 -0.20787482291E+02 -0.10566135107E+03  0.11059881031E+03  0.00000000000E+00 0.  1.
         12    1    4    4    0    0  0.92549335906E+01 -0.20751083004E+02  0.50915398074E+01  0.23284866743E+02  0.00000000000E+00 0. -1.
         -5    1    5    5    0  502 -0.37052050372E+02  0.22815835008E+02 -0.92601214809E+01  0.44735406712E+02  0.47000000000E+01 0.  1.
         11    1    6    6    0    0 -0.48104316336E+01  0.29702882905E+02 -0.84280074100E+02  0.89490403930E+02  0.00000000000E+00 0. -1.
        -12    1    6    6    0    0 -0.20225005317E+02 -0.42794423401E+02 -0.25914195603E+03  0.26342924456E+03  0.00000000000E+00 0.  1.
</event>
<event>
12    1  0.8052519E-002  0.1852253E+03  0.7818608E-02  0.1163031E+00
         21   -1    0    0  503  502  0.00000000000E+00  0.00000000000E+00  0.52424834914E+02  0.52424834914E+02  0.00000000000E+00 0. -1.
         21   -1    0    0  501  503 -0.00000000000E+00 -0.00000000000E+00 -0.95300346532E+03  0.95300346532E+03  0.00000000000E+00 0. -1.
          6    2    1    2  501    0 -0.68320144498E+02 -0.31178553203E+01 -0.73234787447E+03  0.75520842167E+03  0.17125708086E+03 0.  0.
         24    2    3    3    0    0 -0.53471688087E+02  0.14734190088E+02 -0.19582340248E+03  0.21816115072E+03  0.78556762539E+02 0.  0.
         -6    2    1    2    0  502  0.68320144498E+02  0.31178553203E+01 -0.16823075594E+03  0.25021987857E+03  0.17213668181E+03 0.  0.
        -24    2    5    5    0    0  0.10983149514E+03  0.95112523513E+00 -0.10691521452E+03  0.17599338350E+03  0.86480899476E+02 0.  0.
          5    1    3    3  501    0 -0.14848456411E+02 -0.17852045408E+02 -0.53652447199E+03  0.53704727094E+03  0.47000000000E+01 0. -1.
        -13    1    4    4    0    0  0.12604224166E+02 -0.17633439803E+02 -0.32955754155E+02  0.39444725858E+02  0.00000000000E+00 0.  1.
         14    1    4    4    0    0 -0.66075912253E+02  0.32367629891E+02 -0.16286764833E+03  0.17871642487E+03  0.00000000000E+00 0. -1.
         -5    1    5    5    0  502 -0.41511350646E+02  0.21667300851E+01 -0.61315541418E+02  0.74226495075E+02  0.47000000000E+01 0.  1.
         13    1    6    6    0    0  0.30182235654E+02 -0.23669372737E+01 -0.89381466967E+02  0.94369573371E+02  0.00000000000E+00 0. -1.
        -14    1    6    6    0    0  0.79649259490E+02  0.33180625089E+01 -0.17533747552E+02  0.81623810125E+02  0.00000000000E+00 0.  1.
</event>
<event>
12    1  0.8052519E-002  0.2381515E+03  0.7818608E-02  0.1121800E+00
         21   -1    0    0  501  502  0.00000000000E+00  0.00000000000E+00  0.11646625402E+03  0.11646625402E+03  0.00000000000E+00 0. -1.
         21   -1    0    0  502  503 -0.00000000000E+00 -0.00000000000E+00 -0.55694393198E+03  0.55694393198E+03  0.00000000000E+00 0. -1.
         -6    2    1    2    0  503 -0.13717725320E+03 -0.79211760825E+02 -0.34537857038E+03  0.41697307074E+03  0.17172094512E+03 0.  0.
        -24    2    3    3    0    0 -0.11944872296E+03 -0.10043937229E+03 -0.18828334063E+03  0.25739264122E+03  0.80276338192E+02 0.  0.
          6    2    1    2  501    0  0.13717725320E+03  0.79211760825E+02 -0.95099107568E+02  0.25643711526E+03  0.17783152694E+03 0.  0.
         24    2    5    5    0    0  0.10567891010E+03 -0.19446250532E+01 -0.47989477319E+01  0.13091933384E+03  0.77104010699E+02 0.  0.
          5    1    5    5  501    0  0.31498343098E+02  0.81156385878E+02 -0.90300159836E+02  0.12551778142E+03  0.47000000000E+01 0. -1.
        -13    1    6    6    0    0  0.99923856289E+02 -0.12368999140E+02 -0.28287737680E+02  0.10458472785E+03  0.00000000000E+00 0.  1.
         14    1    6    6    0    0  0.57550538130E+01  0.10424374087E+02  0.23488789948E+02  0.26334605991E+02  0.00000000000E+00 0. -1.
         -5    1    3    3    0  503 -0.17728530242E+02  0.21227611470E+02 -0.15709522975E+03  0.15958042952E+03  0.47000000000E+01 0.  1.
         13    1    4    4    0    0 -0.54397667207E+02 -0.17813733756E+02 -0.11729010881E+03  0.13051208731E+03  0.00000000000E+00 0. -1.
        -14    1    4    4    0    0 -0.65051055750E+02 -0.82625638539E+02 -0.70993231819E+02  0.12688055392E+03  0.00000000000E+00 0.  1.
</event>
<event>
12    1  0.8052519E-002  0.1911528E+03  0.7818608E-02  0.1158483E+00
         21   -1    0    0  501  502  0.00000000000E+00  0.00000000000E+00  0.39570647303E+03  0.39570647303E+03  0.00000000000E+00 0.  1.
         21   -1    0    0  502  503 -0.00000000000E+00 -0.00000000000E+00 -0.22006017836E+03  0.22006017836E+03  0.00000000000E+00 0.  1.
         -6    2    1    2    0  503 -0.21372660617E+01  0.84312766850E+02 -0.14921698438E+03  0.23883754671E+03  0.16632635008E+03 0.  0.
        -24    2    3    3    0    0  0.60645996181E+01  0.11262257110E+03 -0.69999170492E+02  0.15418373608E+03  0.78435436577E+02 0.  0.
          6    2    1    2  501    0  0.21372660617E+01 -0.84312766850E+02  0.32486327906E+03  0.37692910468E+03  0.17154063459E+03 0.  0.
         24    2    5    5    0    0  0.56955279648E+02 -0.18962213015E+02  0.22230820159E+03  0.24345497455E+03  0.79031125111E+02 0.  0.
          5    1    5    5  501    0 -0.54818013586E+02 -0.65350553835E+02  0.10255507746E+03  0.13347413013E+03  0.47000000000E+01 0. -1.
        -13    1    6    6    0    0  0.34999856308E+02 -0.17244963738E+02  0.21742423248E+03  0.22089743228E+03  0.00000000000E+00 0.  1.
         14    1    6    6    0    0  0.21955423340E+02 -0.17172492768E+01  0.48839691077E+01  0.22557542272E+02  0.00000000000E+00 0. -1.
         -5    1    3    3    0  503 -0.82018656799E+01 -0.28309804251E+02 -0.79217813889E+02  0.84653810633E+02  0.47000000000E+01 0.  1.
         11    1    4    4    0    0 -0.23420575001E+01  0.26139934878E+02  0.16964673535E+02  0.31250305229E+02  0.00000000000E+00 0. -1.
        -12    1    4    4    0    0  0.84066571183E+01  0.86482636223E+02 -0.86963844027E+02  0.12293343085E+03  0.00000000000E+00 0.  1.
</event>
<event>
12    1  0.8052519E-002  0.4172313E+03  0.7818608E-02  0.1038094E+00
         21   -1    0    0  501  502  0.00000000000E+00  0.00000000000E+00  0.11766455484E+03  0.11766455484E+03  0.00000000000E+00 0.  1.
         21   -1    0    0  502  503 -0.00000000000E+00 -0.00000000000E+00 -0.24145721712E+04  0.24145721712E+04  0.00000000000E+00 0. -1.
         -6    2    1    2    0  503  0.37915493949E+03 -0.10477843786E+02 -0.19398563542E+04  0.19842188889E+04  0.17382080035E+03 0.  0.
        -24    2    3    3    0    0  0.36141935448E+03 -0.35263361577E+02 -0.18827604163E+04  0.19193273717E+04  0.84636400823E+02 0.  0.
          6    2    1    2  501    0 -0.37915493949E+03  0.10477843786E+02 -0.35705126213E+03  0.54801783715E+03  0.17020485508E+03 0.  0.
         24    2    5    5    0    0 -0.20254637066E+03  0.28411302223E+02 -0.11512640298E+03  0.24791464991E+03  0.79845792723E+02 0.  0.
          5    1    5    5  501    0 -0.17660856883E+03 -0.17933458436E+02 -0.24192485915E+03  0.30010318724E+03  0.47000000000E+01 0. -1.
        -11    1    6    6    0    0 -0.26874498183E+02 -0.11520427784E+02  0.72533064221E+01  0.30125891903E+02  0.00000000000E+00 0.  1.
         12    1    6    6    0    0 -0.17567187248E+03  0.39931730007E+02 -0.12237970940E+03  0.21778875801E+03  0.00000000000E+00 0. -1.
         -5    1    3    3    0  503  0.17735585013E+02  0.24785517791E+02 -0.57095937975E+02  0.64891517174E+02  0.47000000000E+01 0. -1.
         11    1    4    4    0    0  0.22660968783E+03  0.19252734037E+02 -0.11596399923E+04  0.11817307351E+04  0.00000000000E+00 0. -1.
        -12    1    4    4    0    0  0.13480966665E+03 -0.54516095615E+02 -0.72312042392E+03  0.73759663664E+03  0.00000000000E+00 0.  1.
</event>
<event>
12    1  0.8052519E-002  0.2034670E+03  0.7818608E-02  0.1146930E+00
         21   -1    0    0  503  502  0.00000000000E+00  0.00000000000E+00  0.31000496206E+04  0.31000496206E+04  0.00000000000E+00 0. -1.
         21   -1    0    0  501  503 -0.00000000000E+00 -0.00000000000E+00 -0.26152628112E+02  0.26152628112E+02  0.00000000000E+00 0. -1.
          6    2    1    2  501    0 -0.89302609763E+02  0.59616988776E+02  0.26323318311E+04  0.26401836486E+04  0.17282849312E+03 0.  0.
         24    2    3    3    0    0 -0.89820118843E+02  0.78754995565E+02  0.13413311816E+04  0.13490324963E+04  0.80307747530E+02 0.  0.
         -6    2    1    2    0  502  0.89302609763E+02 -0.59616988776E+02  0.44156516141E+03  0.48601860010E+03  0.17235181000E+03 0.  0.
        -24    2    5    5    0    0  0.49915466588E+02 -0.62563847852E+02  0.43023578771E+03  0.44466070201E+03  0.78832214393E+02 0.  0.
          5    1    3    3  501    0  0.51750907966E+00 -0.19138006790E+02  0.12910006494E+04  0.12911511523E+04  0.47000000000E+01 0. -1.
        -13    1    4    4    0    0  0.14176531518E+02  0.12808506642E+01  0.12529193730E+03  0.12609791503E+03  0.00000000000E+00 0.  1.
         14    1    4    4    0    0 -0.10399665036E+03  0.77474144901E+02  0.12160392443E+04  0.12229345813E+04  0.00000000000E+00 0. -1.
         -5    1    5    5    0  502  0.39387143175E+02  0.29468590768E+01  0.11329373705E+02  0.41357898090E+02  0.47000000000E+01 0.  1.
         13    1    6    6    0    0 -0.20017825357E+02 -0.18638311177E+02  0.71774773429E+02  0.76809622290E+02  0.00000000000E+00 0. -1.
        -14    1    6    6    0    0  0.69933291945E+02 -0.43925536676E+02  0.35846101428E+03  0.36785107972E+03  0.00000000000E+00 0.  1.
</event>
<event>
12    1  0.8052519E-002  0.1798520E+03  0.7818608E-02  0.1168289E+00
         21   -1    0    0  503  502  0.00000000000E+00  0.00000000000E+00  0.80961634642E+02  0.80961634642E+02  0.00000000000E+00 0. -1.
         21   -1    0    0  501  503 -0.00000000000E+00 -0.00000000000E+00 -0.13563161211E+04  0.13563161211E+04  0.00000000000E+00 0. -1.
          6    2    1    2  501    0  0.42346587705E+02 -0.23922270736E+02 -0.12429744610E+04  0.12559188839E+04  0.17315086998E+03 0.  0.
         24    2    3    3    0    0  0.16024859109E+02  0.54532672929E+02 -0.63293494498E+03  0.64027425211E+03  0.78191206718E+02 0.  0.
         -6    2    1    2    0  502 -0.42346587705E+02  0.23922270736E+02 -0.32380025485E+02  0.18135887184E+03  0.17168886341E+03 0.  0.
        -24    2    5    5    0    0 -0.57942796308E+02  0.29928345001E+02  0.37567327443E+02  0.10928920532E+03  0.79244891508E+02 0.  0.
          5    1    3    3  501    0  0.26321728596E+02 -0.78454943664E+02 -0.61003951598E+03  0.61564463178E+03  0.47000000000E+01 0. -1.
        -11    1    4    4    0    0 -0.27068900577E+02  0.42807508556E+02 -0.38917406663E+03  0.39245593677E+03  0.00000000000E+00 0.  1.
         12    1    4    4    0    0  0.43093759686E+02  0.11725164373E+02 -0.24376087836E+03  0.24781831535E+03  0.00000000000E+00 0. -1.
         -5    1    5    5    0  502  0.15596208603E+02 -0.60060742652E+01 -0.69947352927E+02  0.72069666520E+02  0.47000000000E+01 0.  1.
         13    1    6    6    0    0 -0.34613831229E+02 -0.11379174812E+02  0.48445276216E+02  0.60618047802E+02  0.00000000000E+00 0. -1.
        -14    1    6    6    0    0 -0.23328965079E+02  0.41307519813E+02 -0.10877948773E+02  0.48671157519E+02  0.00000000000E+00 0.  1.
</event>
<event>
12    1  0.8052519E-002  0.2981334E+03  0.7818608E-02  0.1086201E+00
         21   -1    0    0  503  502  0.00000000000E+00  0.00000000000E+00  0.49628140224E+03  0.49628140224E+03  0.00000000000E+00 0. -1.
         21   -1    0    0  501  503 -0.00000000000E+00 -0.00000000000E+00 -0.18226292644E+03  0.18226292644E+03  0.00000000000E+00 0.  1.
          6    2    1    2  501    0 -0.18027259911E+03 -0.16509284227E+03  0.11147851165E+03  0.31811967047E+03  0.17034908165E+03 0.  0.
         24    2    3    3    0    0 -0.23066092516E+02 -0.45944049124E+02  0.92105864989E+01  0.95878497103E+02  0.80404919185E+02 0.  0.
         -6    2    1    2    0  502  0.18027259911E+03  0.16509284227E+03  0.20253996415E+03  0.36042465821E+03  0.17067407715E+03 0.  0.
        -24    2    5    5    0    0  0.18021783353E+03  0.94628606504E+02  0.10220076778E+03  0.23772479737E+03  0.68081140275E+02 0.  0.
          5    1    3    3  501    0 -0.15720650659E+03 -0.11914879315E+03  0.10226792515E+03  0.22224117336E+03  0.47000000000E+01 0. -1.
        -13    1    4    4    0    0 -0.11718899910E+02  0.18292304472E+02 -0.14890572326E+02  0.26337618765E+02  0.00000000000E+00 0.  1.
         14    1    4    4    0    0 -0.11347192605E+02 -0.64236353596E+02  0.24101158825E+02  0.69540878338E+02  0.00000000000E+00 0. -1.
         -5    1    5    5    0  502  0.54765580146E-01  0.70464235768E+02  0.10033919637E+03  0.12269986084E+03  0.47000000000E+01 0.  1.
         13    1    6    6    0    0  0.52808711340E+02  0.59423351221E+02  0.57778829569E+02  0.98276588311E+02  0.00000000000E+00 0. -1.
        -14    1    6    6    0    0  0.12740912219E+03  0.35205255283E+02  0.44421938209E+02  0.13944820906E+03  0.00000000000E+00 0.  1.
</event>
<event>
12    1  0.8052519E-002  0.1942701E+03  0.7818608E-02  0.1155866E+00
         21   -1    0    0  503  502  0.00000000000E+00  0.00000000000E+00  0.49838829518E+03  0.49838829518E+03  0.00000000000E+00 0.  1.
         21   -1    0    0  501  503 -0.00000000000E+00 -0.00000000000E+00 -0.87185495534E+02  0.87185495534E+02  0.00000000000E+00 0.  1.
          6    2    1    2  501    0 -0.81144311029E+02 -0.91170362661E+01  0.92634424475E+02  0.21522545003E+03  0.17627631203E+03 0.  0.
         24    2    3    3    0    0 -0.10864752380E+03 -0.42275337111E+02  0.41485680943E+02  0.14818677767E+03  0.81527730224E+02 0.  0.
         -6    2    1    2    0  502  0.81144311029E+02  0.91170362661E+01  0.31856837517E+03  0.37034834068E+03  0.17030726415E+03 0.  0.
        -24    2    5    5    0    0 -0.45567251144E+01  0.44734688687E+02  0.19540851430E+03  0.21606377862E+03  0.80480512274E+02 0.  0.
          5    1    3    3  501    0  0.27503212775E+02  0.33158300845E+02  0.51148743532E+02  0.67038672367E+02  0.47000000000E+01 0. -1.
        -13    1    4    4    0    0 -0.43226308898E+02  0.23265296025E+02  0.20718560019E+02  0.53282703660E+02  0.00000000000E+00 0.  1.
         14    1    4    4    0    0 -0.65421214905E+02 -0.65540633136E+02  0.20767120924E+02  0.94904074006E+02  0.00000000000E+00 0. -1.
         -5    1    5    5    0  502  0.85701036143E+02 -0.35617652421E+02  0.12315986087E+03  0.15428456206E+03  0.47000000000E+01 0.  1.
         13    1    6    6    0    0  0.42340952014E+01  0.33824081320E+02  0.18855067146E+02  0.38955225534E+02  0.00000000000E+00 0. -1.
        -14    1    6    6    0    0 -0.87908203158E+01  0.10910607367E+02  0.17655344715E+03  0.17710855309E+03  0.00000000000E+00 0.  1.
</event>
<event>
12    1  0.8052519E-002  0.2230315E+03  0.7818608E-02  0.1131866E+00
         21   -1    0    0  501  502  0.00000000000E+00  0.00000000000E+00  0.73113971224E+02  0.73113971224E+02  0.00000000000E+00 0. -1.
         21   -1    0    0  502  503 -0.00000000000E+00 -0.00000000000E+00 -0.27824317204E+04  0.27824317204E+04  0.00000000000E+00 0. -1.
         -6    2    1    2    0  503 -0.39812714847E+02 -0.13596539117E+03 -0.25958496869E+04  0.26053097281E+04  0.17067964881E+03 0.  0.
        -24    2    3    3    0    0 -0.67001511934E+02 -0.13065424500E+03 -0.24954408105E+04  0.25010433796E+04  0.80208564597E+02 0.  0.
          6    2    1    2  501    0  0.39812714847E+02  0.13596539117E+03 -0.11346806230E+03  0.25023596355E+03  0.17225387203E+03 0.  0.
         24    2    5    5    0    0  0.22989935223E+02  0.84928521707E+02  0.63765803580E+01  0.11881071356E+03  0.79586016102E+02 0.  0.
          5    1    5    5  501    0  0.16822779624E+02  0.51036869463E+02 -0.11984464266E+03  0.13142524998E+03  0.47000000000E+01 0. -1.
        -11    1    6    6    0    0  0.13879170413E-01 -0.15367773859E+02 -0.23523644094E+01  0.15546777297E+02  0.00000000000E+00 0.  1.
         12    1    6    6    0    0  0.22976056053E+02  0.10029629557E+03  0.87289447675E+01  0.10326393626E+03  0.00000000000E+00 0. -1.
         -5    1    3    3    0  503  0.27188797087E+02 -0.53111461661E+01 -0.10040887641E+03  0.10426634847E+03  0.47000000000E+01 0.  1.
         11    1    4    4    0    0  0.15356476925E+02 -0.26536931847E+02 -0.71674688149E+03  0.71740234337E+03  0.00000000000E+00 0. -1.
        -12    1    4    4    0    0 -0.82357988860E+02 -0.10411731316E+03 -0.17786939290E+04  0.17836410363E+04  0.00000000000E+00 0.  1.
</event>
<event>
12    1  0.8052519E-002  0.2061733E+03  0.7818608E-02  0.1145537E+00
         21   -1    0    0  501  502  0.00000000000E+00  0.00000000000E+00  0.27050777287E+03  0.27050777287E+03  0.00000000000E+00 0. -1.
         21   -1    0    0  502  503 -0.00000000000E+00 -0.00000000000E+00 -0.20664265930E+03  0.20664265930E+03  0.00000000000E+00 0. -1.
         -6    2    1    2    0  503  0.50068825780E+02  0.96750635844E+02 -0.88964897620E+02  0.22050975536E+03  0.16982999249E+03 0.  0.
        -24    2    3    3    0    0  0.93671715808E+02  0.51234133363E+02 -0.36010081769E+02  0.13805209023E+03  0.79764195373E+02 0.  0.
          6    2    1    2  501    0 -0.50068825780E+02 -0.96750635844E+02  0.15283001119E+03  0.25664067682E+03  0.17504242864E+03 0.  0.
         24    2    5    5    0    0  0.29015853972E+02 -0.73088238407E+01  0.66171987786E+02  0.10904010999E+03  0.81336799370E+02 0.  0.
          5    1    5    5  501    0 -0.79084679753E+02 -0.89441812003E+02  0.86658023407E+02  0.14760056682E+03  0.47000000000E+01 0. -1.
        -11    1    6    6    0    0 -0.67724779761E+01  0.23731088082E+02  0.55122543724E+02  0.60394749988E+02  0.00000000000E+00 0.  1.
         12    1    6    6    0    0  0.35788331949E+02 -0.31039911923E+02  0.11049444063E+02  0.48645360004E+02  0.00000000000E+00 0. -1.
         -5    1    3    3    0  503 -0.43602890028E+02  0.45516502481E+02 -0.52954815851E+02  0.82457665130E+02  0.47000000000E+01 0.  1.
         11    1    4    4    0    0  0.72322060500E+02  0.25526067802E+02 -0.59614655976E+02  0.97138909710E+02  0.00000000000E+00 0. -1.
        -12    1    4    4    0    0  0.21349655308E+02  0.25708065561E+02  0.23604574207E+02  0.40913180519E+02  0.00000000000E+00 0.  1.
</event>
<event>
12    1  0.8052519E-002  0.1893654E+03  0.7818608E-02  0.1159186E+00
         21   -1    0    0  501  502  0.00000000000E+00  0.00000000000E+00  0.10363742053E+03  0.10363742053E+03  0.00000000000E+00 0. -1.
         21   -1    0    0  502  503 -0.00000000000E+00 -0.00000000000E+00 -0.39113800343E+03  0.39113800343E+03  0.00000000000E+00 0. -1.
         -6    2    1    2    0  503 -0.38046583015E+02 -0.65783495387E+02 -0.22868240279E+03  0.29648566855E+03  0.17272260872E+03 0.  0.
        -24    2    3    3    0    0 -0.83691851020E+02 -0.50636355157E+02 -0.20736160587E+03  0.24366907333E+03  0.82507062238E+02 0.  0.
          6    2    1    2  501    0  0.38046583015E+02  0.65783495387E+02 -0.58818180104E+02  0.19828975541E+03  0.17344808458E+03 0.  0.
         24    2    5    5    0    0 -0.13801322346E+02 -0.26955013749E+00  0.17035925419E+02  0.85032766937E+02  0.82157163670E+02 0.  0.
          5    1    5    5  501    0  0.51847905362E+02  0.66053045525E+02 -0.75854105523E+02  0.11325698847E+03  0.47000000000E+01 0. -1.
        -11    1    6    6    0    0 -0.44657534687E+02  0.10754661785E+02 -0.39790801306E+01  0.46106303615E+02  0.00000000000E+00 0.  1.
         12    1    6    6    0    0  0.30856212340E+02 -0.11024211922E+02  0.21015005549E+02  0.38926463322E+02  0.00000000000E+00 0. -1.
         -5    1    3    3    0  503  0.45645268005E+02 -0.15147140230E+02 -0.21320796922E+02  0.52816595212E+02  0.47000000000E+01 0.  1.
         11    1    4    4    0    0 -0.80141352515E+02 -0.62753406597E+02 -0.20741260335E+03  0.23104245162E+03  0.00000000000E+00 0. -1.
        -12    1    4    4    0    0 -0.35504985054E+01  0.12117051439E+02  0.50997475838E-01  0.12626621716E+02  0.00000000000E+00 0.  1.
</event>
<event>
12    1  0.8052519E-002  0.2172883E+03  0.7818608E-02  0.1137532E+00
         21   -1    0    0  501  502  0.00000000000E+00  0.00000000000E+00  0.41534231530E+02  0.41534231530E+02  0.00000000000E+00 0.  1.
         21   -1    0    0  502  503 -0.00000000000E+00 -0.00000000000E+00 -0.12329558826E+04  0.12329558826E+04  0.00000000000E+00 0.  1.
         -6    2    1    2    0  503 -0.62409677806E+02  0.10378784652E+03 -0.82024287681E+03  0.84853556201E+03  0.18040880815E+03 0.  0.
        -24    2    3    3    0    0 -0.68230087929E+01  0.90508476334E+01 -0.55998772663E+03  0.56601156315E+03  0.81574287355E+02 0.  0.
          6    2    1    2  501    0  0.62409677806E+02 -0.10378784652E+03 -0.37117877426E+03  0.42595455213E+03  0.17028421256E+03 0.  0.
         24    2    5    5    0    0 -0.93973840427E+01 -0.10798178740E+03 -0.27105503288E+03  0.30258236378E+03  0.79604514819E+02 0.  0.
          5    1    5    5  501    0  0.71807061849E+02  0.41939408821E+01 -0.10012374138E+03  0.12337218835E+03  0.47000000000E+01 0. -1.
        -13    1    6    6    0    0 -0.52999361480E+01 -0.67903663713E+02 -0.70522216150E+02  0.98042744961E+02  0.00000000000E+00 0.  1.
         14    1    6    6    0    0 -0.40974478947E+01 -0.40078123687E+02 -0.20053281673E+03  0.20453961881E+03  0.00000000000E+00 0. -1.
         -5    1    3    3    0  503 -0.55586669013E+02  0.94736998885E+02 -0.26025515019E+03  0.28252399886E+03  0.47000000000E+01 0.  1.
         11    1    4    4    0    0 -0.13390340973E+02 -0.28445579206E+02 -0.41229149269E+03  0.41348848491E+03  0.00000000000E+00 0. -1.
        -12    1    4    4    0    0  0.65673321797E+01  0.37496426840E+02 -0.14769623394E+03  0.15252307824E+03  0.00000000000E+00 0.  1.
</event>
<event>
12    1  0.8052519E-002  0.2452982E+03  0.7818608E-02  0.1116815E+00
         21   -1    0    0  503  502  0.00000000000E+00  0.00000000000E+00  0.43045581072E+02  0.43045581072E+02  0.00000000000E+00 0. -1.
         21   -1    0    0  501  503 -0.00000000000E+00 -0.00000000000E+00 -0.26724220924E+04  0.26724220924E+04  0.00000000000E+00 0.  1.
          6    2    1    2  501    0  0.75659999622E+02  0.15512454693E+03 -0.22630476907E+04  0.22763031506E+04  0.17430755160E+03 0.  0.
         24    2    3    3    0    0  0.41562572398E+02  0.17748461252E+03 -0.16596591814E+04  0.16715202224E+04  0.79265506264E+02 0.  0.
         -6    2    1    2    0  502 -0.75659999622E+02 -0.15512454693E+03 -0.36632882069E+03  0.43916452291E+03  0.16994296900E+03 0.  0.
        -24    2    5    5    0    0 -0.11720148394E+03 -0.10977821136E+03 -0.24345084813E+03  0.30167608264E+03  0.77153741659E+02 0.  0.
          5    1    3    3  501    0  0.34097427224E+02 -0.22360065588E+02 -0.60338850928E+03  0.60478292817E+03  0.47000000000E+01 0. -1.
        -13    1    4    4    0    0  0.30187632088E+02  0.17214857146E+02 -0.43122880085E+03  0.43262677116E+03  0.00000000000E+00 0.  1.
         14    1    4    4    0    0  0.11374940310E+02  0.16026975537E+03 -0.12284303805E+04  0.12388934512E+04  0.00000000000E+00 0. -1.
         -5    1    5    5    0  502  0.41541484320E+02 -0.45346335567E+02 -0.12287797255E+03  0.13748844027E+03  0.47000000000E+01 0.  1.
         11    1    6    6    0    0 -0.23949339152E+02 -0.71868285484E+02 -0.12569858129E+03  0.14676087572E+03  0.00000000000E+00 0. -1.
        -12    1    6    6    0    0 -0.93252144789E+02 -0.37909925879E+02 -0.11775226684E+03  0.15491520692E+03  0.00000000000E+00 0.  1.
</event>
<event>
12    1  0.8052519E-002  0.1735403E+03  0.7818608E-02  0.1174260E+00
         21   -1    0    0  503  502  0.00000000000E+00  0.00000000000E+00  0.58585659001E+03  0.58585659001E+03  0.00000000000E+00 0. -1.
         21   -1    0    0  501  503 -0.00000000000E+00 -0.00000000000E+00 -0.57776647133E+02  0.57776647133E+02  0.00000000000E+00 0. -1.
          6    2    1    2  501    0 -0.66277390635E+01 -0.20961770433E+02  0.15678847416E+03  0.23387790878E+03  0.17214217334E+03 0.  0.
         24    2    3    3    0    0  0.65649493364E+02 -0.20059004199E+02  0.72555990577E+02  0.12278328873E+03  0.71408294990E+02 0.  0.
         -6    2    1    2    0  502  0.66277390635E+01  0.20961770433E+02  0.37129146872E+03  0.40975532837E+03  0.17192658792E+03 0.  0.
        -24    2    5    5    0    0  0.57341361571E+02  0.17970764377E+02  0.32429205762E+03  0.34038781242E+03  0.84187553046E+02 0.  0.
          5    1    3    3  501    0 -0.72277232428E+02 -0.90276623449E+00  0.84232483580E+02  0.11109462005E+03  0.47000000000E+01 0. -1.
        -11    1    4    4    0    0  0.25349949295E+02 -0.43372980848E+02  0.50617273812E+02  0.71315803333E+02  0.00000000000E+00 0.  1.
         12    1    4    4    0    0  0.40299544070E+02  0.23313976649E+02  0.21938716765E+02  0.51467485393E+02  0.00000000000E+00 0. -1.
         -5    1    5    5    0  502 -0.50713622508E+02  0.29910060568E+01  0.46999411101E+02  0.69367515949E+02  0.47000000000E+01 0.  1.
         13    1    6    6    0    0  0.37967212770E+02 -0.31301883058E+02  0.18305443065E+03  0.18955274123E+03  0.00000000000E+00 0. -1.
        -14    1    6    6    0    0  0.19374148801E+02  0.49272647435E+02  0.14123762697E+03  0.15083507118E+03  0.00000000000E+00 0.  1.
</event>
<event>
12    1  0.8052519E-002  0.1976377E+03  0.7818608E-02  0.1152913E+00
         21   -1    0    0  501  502  0.00000000000E+00  0.00000000000E+00  0.63445821853E+03  0.63445821853E+03  0.00000000000E+00 0.  1.
         21   -1    0    0  502  503 -0.00000000000E+00 -0.00000000000E+00 -0.64055527224E+02  0.64055527224E+02  0.00000000000E+00 0.  1.
         -6    2    1    2    0  503  0.22603955723E+02  0.83614211519E+02  0.19998885103E+03  0.28116935943E+03  0.17764682087E+03 0.  0.
        -24    2    3    3    0    0 -0.32840056884E+02  0.18129564724E+02  0.16547370692E+03  0.18856448552E+03  0.82267047256E+02 0.  0.
          6    2    1    2  501    0 -0.22603955723E+02 -0.83614211519E+02  0.37041384028E+03  0.41734438632E+03  0.17166143580E+03 0.  0.
         24    2    5    5    0    0 -0.49799199789E+02 -0.35093970825E+02  0.96455997738E+02  0.13775757593E+03  0.77212972600E+02 0.  0.
          5    1    5    5  501    0  0.27195244067E+02 -0.48520240694E+02  0.27395784254E+03  0.27958681039E+03  0.47000000000E+01 0. -1.
        -11    1    6    6    0    0 -0.21217546789E+02  0.21121474253E+02  0.53968565706E+02  0.61716343465E+02  0.00000000000E+00 0.  1.
         12    1    6    6    0    0 -0.28581653001E+02 -0.56215445079E+02  0.42487432031E+02  0.76041232462E+02  0.00000000000E+00 0. -1.
         -5    1    3    3    0  503  0.55444012607E+02  0.65484646795E+02  0.34515144107E+02  0.92604873914E+02  0.47000000000E+01 0.  1.
         11    1    4    4    0    0 -0.18167998592E+02  0.49394177286E+02  0.12324342281E+03  0.13401045552E+03  0.00000000000E+00 0. -1.
        -12    1    4    4    0    0 -0.14672058292E+02 -0.31264612562E+02  0.42230284107E+02  0.54554029997E+02  0.00000000000E+00 0.  1.
</event>
<event>
12    1  0.8052519E-002  0.2110567E+03  0.7818608E-02  0.1140839E+00
         21   -1    0    0  501  502  0.00000000000E+00  0.00000000000E+00  0.14578407260E+03  0.14578407260E+03  0.00000000000E+00 0. -1.
         21   -1    0    0  502  503 -0.00000000000E+00 -0.00000000000E+00 -0.31524649501E+03  0.31524649501E+03  0.00000000000E+00 0. -1.
         -6    2    1    2    0  503  0.76137290131E+02 -0.93808424519E+02 -0.42592555163E+02  0.21477688901E+03  0.17238932344E+03 0.  0.
        -24    2    3    3    0    0  0.23351389110E+02 -0.11477738809E+03 -0.61759449851E+02  0.15464778930E+03  0.79891006359E+02 0.  0.
          6    2    1    2  501    0 -0.76137290131E+02  0.93808424519E+02 -0.12686986725E+03  0.24625367861E+03  0.17305491484E+03 0.  0.
         24    2    5    5    0    0 -0.92851350412E+02  0.16254706017E+02 -0.11345178875E+03  0.16565545347E+03  0.75397825913E+02 0.  0.
          5    1    5    5  501    0  0.16714060281E+02  0.77553718502E+02 -0.13418078498E+02  0.80598225136E+02  0.47000000000E+01 0. -1.
        -11    1    6    6    0    0 -0.65487626498E+01 -0.60530054645E+00  0.11271822622E+02  0.13050159624E+02  0.00000000000E+00 0.  1.
         12    1    6    6    0    0 -0.86302587762E+02  0.16860006563E+02 -0.12472361137E+03  0.15260529385E+03  0.00000000000E+00 0. -1.
         -5    1    3    3    0  503  0.52785901021E+02  0.20968963575E+02  0.19166894687E+02  0.60129099710E+02  0.47000000000E+01 0.  1.
         11    1    4    4    0    0  0.33373755777E+02 -0.11405904516E+02 -0.31852904304E+01  0.35412544496E+02  0.00000000000E+00 0. -1.
        -12    1    4    4    0    0 -0.10022366667E+02 -0.10337148358E+03 -0.58574159420E+02  0.11923524480E+03  0.00000000000E+00 0.  1.
</event>
<event>
12    1  0.8052519E-002  0.2110043E+03  0.7818608E-02  0.1141090E+00
         21   -1    0    0  503  502  0.00000000000E+00  0.00000000000E+00  0.24276666920E+03  0.24276666920E+03  0.00000000000E+00 0. -1.
         21   -1    0    0  501  503 -0.00000000000E+00 -0.00000000000E+00 -0.79339052694E+03  0.79339052694E+03  0.00000000000E+00 0. -1.
          6    2    1    2  501    0  0.10181928185E+03  0.64002749147E+02 -0.73034066298E+03  0.76021068476E+03  0.17337613208E+03 0.  0.
         24    2    3    3    0    0  0.97976500062E+02  0.28531639504E+02 -0.28338750729E+03  0.31181110852E+03  0.80648862949E+02 0.  0.
         -6    2    1    2    0  502 -0.10181928185E+03 -0.64002749147E+02  0.17971680524E+03  0.27594651138E+03  0.17142003675E+03 0.  0.
        -24    2    5    5    0    0 -0.11656144764E+03 -0.97508086503E+00  0.92808167212E+02  0.16747983546E+03  0.76476254652E+02 0.  0.
          5    1    3    3  501    0  0.38427817914E+01  0.35471109643E+02 -0.44695315569E+03  0.44839957624E+03  0.47000000000E+01 0. -1.
        -13    1    4    4    0    0  0.54107235352E+02  0.48572694361E+02 -0.11014568007E+03  0.13198094709E+03  0.00000000000E+00 0.  1.
         14    1    4    4    0    0  0.43869264710E+02 -0.20041054858E+02 -0.17324182722E+03  0.17983016144E+03  0.00000000000E+00 0. -1.
         -5    1    5    5    0  502  0.14742165787E+02 -0.63027668282E+02  0.86908638025E+02  0.10846667592E+03  0.47000000000E+01 0.  1.
         11    1    6    6    0    0 -0.29971824423E+02 -0.34658778624E+02  0.23018304036E+02  0.51277514718E+02  0.00000000000E+00 0. -1.
        -12    1    6    6    0    0 -0.86589623218E+02  0.33683697759E+02  0.69789863176E+02  0.11620232074E+03  0.00000000000E+00 0.  1.
</event>
<event>
12    1  0.8052519E-002  0.2138428E+03  0.7818608E-02  0.1138700E+00
         21   -1    0    0  503  502  0.00000000000E+00  0.00000000000E+00  0.39477214433E+02  0.39477214433E+02  0.00000000000E+00 0.  1.
         21   -1    0    0  501  503 -0.00000000000E+00 -0.00000000000E+00 -0.13684965448E+04  0.13684965448E+04  0.00000000000E+00 0.  1.
          6    2    1    2  501    0  0.38774319531E+02  0.11931903257E+03 -0.94199858471E+03  0.96580434399E+03  0.17226786671E+03 0.  0.
         24    2    3    3    0    0  0.91122007562E+02  0.65875592167E+02 -0.60968247928E+03  0.62513945633E+03  0.80273285778E+02 0.  0.
         -6    2    1    2    0  502 -0.38774319531E+02 -0.11931903257E+03 -0.38702074564E+03  0.44216941521E+03  0.17317117199E+03 0.  0.
        -24    2    5    5    0    0 -0.64317220606E+02 -0.35437174052E+02 -0.12448435708E+03  0.16533724349E+03  0.80296642249E+02 0.  0.
          5    1    3    3  501    0 -0.52347688031E+02  0.53443440403E+02 -0.33231610543E+03  0.34066488767E+03  0.47000000000E+01 0. -1.
        -11    1    4    4    0    0  0.82212540575E+02  0.77547627360E+02 -0.42160892986E+03  0.43649355788E+03  0.00000000000E+00 0.  1.
         12    1    4    4    0    0  0.89094669871E+01 -0.11672035192E+02 -0.18807354942E+03  0.18864589845E+03  0.00000000000E+00 0. -1.
         -5    1    5    5    0  502  0.25542901075E+02 -0.83881858518E+02 -0.26253638856E+03  0.27683217172E+03  0.47000000000E+01 0.  1.
         13    1    6    6    0    0  0.27966028336E+01 -0.21617247628E+02 -0.81693854252E+02  0.84551831471E+02  0.00000000000E+00 0. -1.
        -14    1    6    6    0    0 -0.67113823440E+02 -0.13819926424E+02 -0.42790502825E+02  0.80785412019E+02  0.00000000000E+00 0.  1.
</event>
<event>
12    1  0.8052519E-002  0.2138783E+03  0.7818608E-02  0.1139233E+00
         21   -1    0    0  503  502  0.00000000000E+00  0.00000000000E+00  0.11831774512E+03  0.11831774512E+03  0.00000000000E+00 0.  1.
         21   -1    0    0  501  503 -0.00000000000E+00 -0.00000000000E+00 -0.54501830445E+03  0.54501830445E+03  0.00000000000E+00 0. -1.
          6    2    1    2  501    0 -0.12782833583E+03  0.30878751173E+01 -0.39450482578E+03  0.44704805287E+03  0.16693796931E+03 0.  0.
         24    2    3    3    0    0 -0.10797052604E+03 -0.54715554260E+02 -0.23177161550E+03  0.27315223122E+03  0.79010336667E+02 0.  0.
         -6    2    1    2    0  502  0.12782833583E+03 -0.30878751173E+01 -0.32195733551E+02  0.21628799669E+03  0.17144770002E+03 0.  0.
        -24    2    5    5    0    0  0.32590870111E+02 -0.45912129010E+02 -0.48827313040E+02  0.11044475868E+03  0.81509814230E+02 0.  0.
          5    1    3    3  501    0 -0.19857809789E+02  0.57803429377E+02 -0.16273321028E+03  0.17389582165E+03  0.47000000000E+01 0. -1.
        -11    1    4    4    0    0  0.57702875309E+01 -0.66337148626E+01  0.17743456176E+01  0.89694310543E+01  0.00000000000E+00 0.  1.
         12    1    4    4    0    0 -0.11374081357E+03 -0.48081839397E+02 -0.23354596112E+03  0.26418280017E+03  0.00000000000E+00 0. -1.
         -5    1    5    5    0  502  0.95237465715E+02  0.42824253893E+02  0.16631579490E+02  0.10584323802E+03  0.47000000000E+01 0.  1.
         13    1    6    6    0    0  0.14496962997E+02  0.13665417900E+02 -0.43630400832E+02  0.47963709815E+02  0.00000000000E+00 0. -1.
        -14    1    6    6    0    0  0.18093907115E+02 -0.59577546910E+02 -0.51969122083E+01  0.62481048863E+02  0.00000000000E+00 0.  1.
</event>
<event>
12    1  0.8052519E-002  0.1736650E+03  0.7818608E-02  0.1174912E+00
         21   -1    0    0  503  502  0.00000000000E+00  0.00000000000E+00  0.55809078891E+02  0.55809078891E+02  0.00000000000E+00 0. -1.
         21   -1    0    0  501  503 -0.00000000000E+00 -0.00000000000E+00 -0.58412507662E+03  0.58412507662E+03  0.00000000000E+00 0. -1.
          6    2    1    2  501    0 -0.45756129182E+01  0.47231471876E+01 -0.35898926535E+03  0.39738299667E+03  0.17028420084E+03 0.  0.
         24    2    3    3    0    0  0.21008724795E+02 -0.44340234833E+02 -0.30822951896E+03  0.32214726284E+03  0.79787214858E+02 0.  0.
         -6    2    1    2    0  502  0.45756129182E+01 -0.47231471876E+01 -0.16932673238E+03  0.24255115884E+03  0.17354042182E+03 0.  0.
        -24    2    5    5    0    0 -0.59609998500E+02 -0.12836219385E+02 -0.12396328594E+03  0.16339595101E+03  0.87253768382E+02 0.  0.
          5    1    3    3  501    0 -0.25584337714E+02  0.49063382020E+02 -0.50759746387E+02  0.75235733829E+02  0.47000000000E+01 0. -1.
        -11    1    4    4    0    0 -0.39097987070E+01 -0.58413173700E+02 -0.25582125154E+03  0.26243455970E+03  0.00000000000E+00 0.  1.
         12    1    4    4    0    0  0.24918523502E+02  0.14072938868E+02 -0.52408267422E+02  0.59712703139E+02  0.00000000000E+00 0. -1.
         -5    1    5    5    0  502  0.64185611418E+02  0.81130721971E+01 -0.45363446445E+02  0.79155207832E+02  0.47000000000E+01 0.  1.
         11    1    6    6    0    0 -0.70468685567E+02 -0.28696865200E+01 -0.46347075743E+02  0.84392666602E+02  0.00000000000E+00 0. -1.
        -12    1    6    6    0    0  0.10858687067E+02 -0.99665328647E+01 -0.77616210198E+02  0.79003284410E+02  0.00000000000E+00 0.  1.
</event>
<event>
12    1  0.8052519E-002  0.2107077E+03  0.7818608E-02  0.1141795E+00
         21   -1    0    0  501  502  0.00000000000E+00  0.00000000000E+00  0.33012601384E+03  0.33012601384E+03  0.00000000000E+00 0.  1.
         21   -1    0    0  502  503 -0.00000000000E+00 -0.00000000000E+00 -0.22516868580E+03  0.22516868580E+03  0.00000000000E+00 0.  1.
         -6    2    1    2    0  503 -0.11613036996E+03  0.37427926422E+02 -0.12584714928E+03  0.24542866599E+03  0.17178653208E+03 0.  0.
        -24    2    3    3    0    0 -0.14907188107E+03  0.39168256036E+02 -0.87174605063E+02  0.19438135873E+03  0.80175575132E+02 0.  0.
          6    2    1    2  501    0  0.11613036996E+03 -0.37427926422E+02  0.23080447732E+03  0.30986603365E+03  0.16691057355E+03 0.  0.
         24    2    5    5    0    0  0.82984217744E+02 -0.37043460341E+02  0.56859242643E+02  0.13272809338E+03  0.78263496911E+02 0.  0.
          5    1    5    5  501    0  0.33146152212E+02 -0.38446608103E+00  0.17394523467E+03  0.17713794028E+03  0.47000000000E+01 0. -1.
        -13    1    6    6    0    0  0.69835200830E+02 -0.15114740064E+02  0.73273023355E+02  0.10234425530E+03  0.00000000000E+00 0.  1.
         14    1    6    6    0    0  0.13149016914E+02 -0.21928720277E+02 -0.16413780711E+02  0.30383838073E+02  0.00000000000E+00 0. -1.
         -5    1    3    3    0  503  0.32941511115E+02 -0.17403296136E+01 -0.38672544216E+02  0.51047307254E+02  0.47000000000E+01 0.  1.
         13    1    4    4    0    0 -0.60333708138E+02  0.20473604545E+02  0.64488066578E+01  0.64038362940E+02  0.00000000000E+00 0. -1.
        -14    1    4    4    0    0 -0.88738172933E+02  0.18694651491E+02 -0.93623411721E+02  0.13034299579E+03  0.00000000000E+00 0.  1.
</event>
<event>
12    1  0.8052519E-002  0.1797776E+03  0.7818608E-02  0.1168188E+00
         21   -1    0    0  503  502  0.00000000000E+00  0.00000000000E+00  0.51585006591E+02  0.51585006591E+02  0.00000000000E+00 0.  1.
         21   -1    0    0  501  503 -0.00000000000E+00 -0.00000000000E+00 -0.78261562669E+03  0.78261562669E+03  0.00000000000E+00 0.  1.
          6    2    1    2  501    0  0.48901737709E+02 -0.14474356721E+02 -0.55266091394E+03  0.58095029724E+03  0.17166326083E+03 0.  0.
         24    2    3    3    0    0 -0.26167308403E+02  0.25782850292E+02 -0.35604862576E+03  0.36662697545E+03  0.79342496975E+02 0.  0.
         -6    2    1    2    0  502 -0.48901737709E+02  0.14474356721E+02 -0.17836970616E+03  0.25325033604E+03  0.17239226686E+03 0.  0.
        -24    2    5    5    0    0  0.36301431363E+02 -0.22425037735E+02 -0.11748426887E+03  0.14211855928E+03  0.67634719071E+02 0.  0.
          5    1    3    3  501    0  0.75069046113E+02 -0.40257207013E+02 -0.19661228818E+03  0.21432332179E+03  0.47000000000E+01 0. -1.
        -13    1    4    4    0    0  0.15270888621E+02  0.36510468696E+02 -0.23321153107E+03  0.23654562475E+03  0.00000000000E+00 0.  1.
         14    1    4    4    0    0 -0.41438197024E+02 -0.10727618404E+02 -0.12283709469E+03  0.13008135070E+03  0.00000000000E+00 0. -1.
         -5    1    5    5    0  502 -0.85203169072E+02  0.36899394455E+02 -0.60885437292E+02  0.11113177676E+03  0.47000000000E+01 0.  1.
         13    1    6    6    0    0 -0.12222373680E+02  0.23806895625E+01 -0.65946209978E+02  0.67111524432E+02  0.00000000000E+00 0. -1.
        -14    1    6    6    0    0  0.48523805042E+02 -0.24805727297E+02 -0.51538058895E+02  0.75007034851E+02  0.00000000000E+00 0.  1.
</event>
<event>
12    1  0.8052519E-002  0.2265621E+03  0.7818608E-02  0.1129191E+00
         21   -1    0    0  503  502  0.00000000000E+00  0.00000000000E+00  0.74591246354E+02  0.74591246354E+02  0.00000000000E+00 0.  1.
         21   -1    0    0  501  503 -0.00000000000E+00 -0.00000000000E+00 -0.90160760852E+03  0.90160760852E+03  0.00000000000E+00 0.  1.
          6    2    1    2  501    0  0.10082596119E+03 -0.10498350455E+03 -0.65242818641E+03  0.69064674642E+03  0.17361733565E+03 0.  0.
         24    2    3    3    0    0  0.87119320098E+01 -0.10064753220E+03 -0.44396260794E+03  0.46264722353E+03  0.82059933569E+02 0.  0.
         -6    2    1    2    0  502 -0.10082596119E+03  0.10498350455E+03 -0.17458817576E+03  0.28555210846E+03  0.17283392275E+03 0.  0.
        -24    2    5    5    0    0 -0.78625223160E+02  0.23155181629E+02 -0.30453668079E+02  0.11826315633E+03  0.79628261889E+02 0.  0.
          5    1    3    3  501    0  0.92114029182E+02 -0.43359723463E+01 -0.20846557847E+03  0.22799952288E+03  0.47000000000E+01 0. -1.
        -13    1    4    4    0    0  0.19686207528E+02 -0.62275575561E+02 -0.39053472653E+03  0.39595854165E+03  0.00000000000E+00 0.  1.
         14    1    4    4    0    0 -0.10974275518E+02 -0.38371956644E+02 -0.53427881410E+02  0.66688681887E+02  0.00000000000E+00 0. -1.
         -5    1    5    5    0  502 -0.22200738032E+02  0.81828322921E+02 -0.14413450768E+03  0.16728895213E+03  0.47000000000E+01 0.  1.
         11    1    6    6    0    0 -0.63276967235E+02  0.48278436803E+01 -0.55015935469E+02  0.83988307595E+02  0.00000000000E+00 0. -1.
        -12    1    6    6    0    0 -0.15348255926E+02  0.18327337949E+02  0.24562267390E+02  0.34274848732E+02  0.00000000000E+00 0.  1.
</event>
<event>
12    1  0.8052519E-002  0.1947075E+03  0.7818608E-02  0.1154836E+00
         21   -1    0    0  503  502  0.00000000000E+00  0.00000000000E+00  0.21524260909E+03  0.21524260909E+03  0.00000000000E+00 0.  1.
         21   -1    0    0  501  503 -0.00000000000E+00 -0.00000000000E+00 -0.26647584896E+03  0.26647584896E+03  0.00000000000E+00 0. -1.
          6    2    1    2  501    0  0.82575891176E+02 -0.22461089344E+02 -0.16749929304E+03  0.25493923408E+03  0.17208928371E+03 0.  0.
         24    2    3    3    0    0  0.11290889123E+03 -0.10889916651E+02 -0.17301130610E+03  0.22167581246E+03  0.79625660362E+02 0.  0.
         -6    2    1    2    0  502 -0.82575891176E+02  0.22461089344E+02  0.11626605316E+03  0.22677922396E+03  0.17489351894E+03 0.  0.
        -24    2    5    5    0    0 -0.62140720380E+02 -0.11909143581E+02  0.62637915240E+01  0.10964043158E+03  0.89322406607E+02 0.  0.
          5    1    3    3  501    0 -0.30333000057E+02 -0.11571172693E+02  0.55120130644E+01  0.33263421621E+02  0.47000000000E+01 0. -1.
        -13    1    4    4    0    0  0.24441964814E+01  0.20171359120E+02 -0.10887265533E+02  0.23051906124E+02  0.00000000000E+00 0.  1.
         14    1    4    4    0    0  0.11046469475E+03 -0.31061275770E+02 -0.16212404057E+03  0.19862390634E+03  0.00000000000E+00 0. -1.
         -5    1    5    5    0  502 -0.20435170796E+02  0.34370232925E+02  0.11000226164E+03  0.11713879239E+03  0.47000000000E+01 0.  1.
         13    1    6    6    0    0 -0.14895946057E+02  0.33482144359E+02 -0.16624553376E+02  0.40240762602E+02  0.00000000000E+00 0. -1.
        -14    1    6    6    0    0 -0.47244774323E+02 -0.45391287940E+02  0.22888344900E+02  0.69399668975E+02  0.00000000000E+00 0.  1.
</event>
<event>
12    1  0.8052519E-002  0.2029086E+03  0.7818608E-02  0.1147473E+00
         21   -1    0    0  503  502  0.00000000000E+00  0.00000000000E+00  0.20628342916E+02  0.20628342916E+02  0.00000000000E+00 0. -1.
         21   -1    0    0  501  503 -0.00000000000E+00 -0.00000000000E+00 -0.26538057771E+04  0.26538057771E+04  0.00000000000E+00 0.  1.
          6    2    1    2  501    0 -0.10530056906E+03  0.22532323915E+02 -0.19882936354E+04  0.19986203990E+04  0.17197675239E+03 0.  0.
         24    2    3    3    0    0 -0.10473255059E+03  0.63948248418E+02 -0.17946249522E+04  0.18005162589E+04  0.78241895402E+02 0.  0.
         -6    2    1    2    0  502  0.10530056906E+03 -0.22532323915E+02 -0.64488379883E+03  0.67581372103E+03  0.17103554041E+03 0.  0.
        -24    2    5    5    0    0  0.12557672652E+03 -0.64880928539E+00 -0.61725372813E+03  0.63488058555E+03  0.79380462459E+02 0.  0.
          5    1    3    3  501    0 -0.56801847116E+00 -0.41415924504E+02 -0.19366868325E+03  0.19810414009E+03  0.47000000000E+01 0. -1.
        -11    1    4    4    0    0 -0.67593012720E+02  0.16632781065E+02 -0.13560819139E+04  0.13578673065E+04  0.00000000000E+00 0.  1.
         12    1    4    4    0    0 -0.37139537868E+02  0.47315467354E+02 -0.43854303824E+03  0.44264895245E+03  0.00000000000E+00 0. -1.
         -5    1    5    5    0  502 -0.20276157462E+02 -0.21883514629E+02 -0.27630070702E+02  0.40933135489E+02  0.47000000000E+01 0.  1.
         13    1    6    6    0    0  0.69104161685E+02  0.28303903139E+02 -0.21380011118E+03  0.22646629691E+03  0.00000000000E+00 0. -1.
        -14    1    6    6    0    0  0.56472564837E+02 -0.28952712424E+02 -0.40345361695E+03  0.40841428864E+03  0.00000000000E+00 0.  1.
</event>
<event>
12    1  0.8052519E-002  0.1832102E+03  0.7818608E-02  0.1164913E+00
         21   -1    0    0  503  502  0.00000000000E+00  0.00000000000E+00  0.30541940746E+02  0.30541940746E+02  0.00000000000E+00 0. -1.
         21   -1    0    0  501  503 -0.00000000000E+00 -0.00000000000E+00 -0.11967305026E+04  0.11967305026E+04  0.00000000000E+00 0. -1.
          6    2    1    2  501    0 -0.50964112979E+02  0.27899562674E+02 -0.76138835790E+03  0.78294242148E+03  0.17294761460E+03 0.  0.
         24    2    3    3    0    0 -0.68069741102E+02 -0.28909127781E+02 -0.33174574677E+03  0.34919745825E+03  0.80089930873E+02 0.  0.
         -6    2    1    2    0  502  0.50964112979E+02 -0.27899562674E+02 -0.40480020395E+03  0.44433002186E+03  0.17375337926E+03 0.  0.
        -24    2    5    5    0    0  0.29459273587E+02  0.88027099554E+01 -0.80034506848E+02  0.11675657522E+03  0.79254268450E+02 0.  0.
          5    1    3    3  501    0  0.17105628123E+02  0.56808690455E+02 -0.42964261113E+03  0.43374496322E+03  0.47000000000E+01 0. -1.
        -11    1    4    4    0    0 -0.33517419490E+01 -0.11838217411E+02 -0.16846509048E+01  0.12418357952E+02  0.00000000000E+00 0.  1.
         12    1    4    4    0    0 -0.64717999153E+02 -0.17070910370E+02 -0.33006109587E+03  0.33677910030E+03  0.00000000000E+00 0. -1.
         -5    1    5    5    0  502  0.21504839392E+02 -0.36702272630E+02 -0.32476569710E+03  0.32757344664E+03  0.47000000000E+01 0.  1.
         13    1    6    6    0    0 -0.18489401055E+01 -0.26217026730E+02 -0.60350064572E+02  0.65824625817E+02  0.00000000000E+00 0. -1.
        -14    1    6    6    0    0  0.31308213692E+02  0.35019736686E+02 -0.19684442276E+02  0.50931949401E+02  0.00000000000E+00 0.  1.
</event>
<event>
12    1  0.8052519E-002  0.1840245E+03  0.7818608E-02  0.1164752E+00
         21   -1    0    0  503  502  0.00000000000E+00  0.00000000000E+00  0.27886683714E+03  0.27886683714E+03  0.00000000000E+00 0.  1.
         21   -1    0    0  501  503 -0.00000000000E+00 -0.00000000000E+00 -0.17928275884E+03  0.17928275884E+03  0.00000000000E+00 0. -1.
          6    2    1    2  501    0 -0.39844137789E+02  0.41842503950E+02 -0.83054882523E+02  0.19887751815E+03  0.17121858328E+03 0.  0.
         24    2    3    3    0    0  0.18150936346E+02 -0.19017932760E+02 -0.11726286970E+02  0.88526804855E+02  0.83715895235E+02 0.  0.
         -6    2    1    2    0  502  0.39844137789E+02 -0.41842503950E+02  0.18263896083E+03  0.25927207783E+03  0.17471883092E+03 0.  0.
        -24    2    5    5    0    0  0.26203549862E+02 -0.95449158910E+02  0.13865933628E+03  0.18844809552E+03  0.80554982501E+02 0.  0.
          5    1    3    3  501    0 -0.57995074135E+02  0.60860436709E+02 -0.71328595553E+02  0.11035071329E+03  0.47000000000E+01 0. -1.
        -13    1    4    4    0    0  0.34624498771E+02 -0.93843842728E-01 -0.38537281267E+02  0.51807207696E+02  0.00000000000E+00 0.  1.
         14    1    4    4    0    0 -0.16473562425E+02 -0.18924088917E+02  0.26810994297E+02  0.36719597159E+02  0.00000000000E+00 0. -1.
         -5    1    5    5    0  502  0.13640587927E+02  0.53606654961E+02  0.43979624544E+02  0.70823982309E+02  0.47000000000E+01 0.  1.
         13    1    6    6    0    0 -0.10434928849E+02 -0.63332347325E+02  0.33169687847E+02  0.72250274391E+02  0.00000000000E+00 0. -1.
        -14    1    6    6    0    0  0.36638478712E+02 -0.32116811586E+02  0.10548964843E+03  0.11619782113E+03  0.00000000000E+00 0.  1.
</event>
<event>
12    1  0.8052519E-002  0.1865850E+03  0.7818608E-02  0.1161593E+00
         21   -1    0    0  501  502  0.00000000000E+00  0.00000000000E+00  0.43872019475E+03  0.43872019475E+03  0.00000000000E+00 0.  1.
         21   -1    0    0  502  503 -0.00000000000E+00 -0.00000000000E+00 -0.86594053988E+02  0.86594053988E+02  0.00000000000E+00 0.  1.
         -6    2    1    2    0  503 -0.94516837514E+01 -0.71791168732E+02  0.99937450585E+02  0.21160560029E+03  0.17188987699E+03 0.  0.
        -24    2    3    3    0    0 -0.56898075630E+02 -0.87090946153E+02  0.92306075438E+02  0.16095413261E+03  0.81016031316E+02 0.  0.
          6    2    1    2  501    0  0.94516837514E+01  0.71791168732E+02  0.25218869017E+03  0.31370864844E+03  0.17196125849E+03 0.  0.
         24    2    5    5    0    0 -0.64046071992E+01 -0.27588182615E+02  0.12821742025E+03  0.15396309075E+03  0.80391539627E+02 0.  0.
          5    1    5    5  501    0  0.15856290951E+02  0.99379351347E+02  0.12397126992E+03  0.15974555770E+03  0.47000000000E+01 0. -1.
        -13    1    6    6    0    0  0.24882769100E+02 -0.18627705902E+01  0.10360221048E+03  0.10656472272E+03  0.00000000000E+00 0.  1.
         14    1    6    6    0    0 -0.31287376299E+02 -0.25725412025E+02  0.24615209771E+02  0.47398368027E+02  0.00000000000E+00 0. -1.
         -5    1    3    3    0  503  0.47446391878E+02  0.15299777422E+02  0.76313751474E+01  0.50651467679E+02  0.47000000000E+01 0.  1.
         11    1    4    4    0    0  0.13515739417E+02 -0.40566631420E+01  0.35398610890E+02  0.38107655147E+02  0.00000000000E+00 0. -1.
        -12    1    4    4    0    0 -0.70413815046E+02 -0.83034283012E+02  0.56907464548E+02  0.12284647747E+03  0.00000000000E+00 0.  1.
</event>
<event>
12    1  0.8052519E-002  0.1874568E+03  0.7818608E-02  0.1161805E+00
         21   -1    0    0  503  502  0.00000000000E+00  0.00000000000E+00  0.13792910314E+04  0.13792910314E+04  0.00000000000E+00 0. -1.
         21   -1    0    0  501  503 -0.00000000000E+00 -0.00000000000E+00 -0.44327026492E+02  0.44327026492E+02  0.00000000000E+00 0. -1.
          6    2    1    2  501    0 -0.82073673897E+01  0.61337155955E+02  0.19152611395E+03  0.26491609253E+03  0.17224597579E+03 0.  0.
         24    2    3    3    0    0  0.26066913258E+02  0.57840849638E+02  0.20332807819E+03  0.22819652238E+03  0.81891987346E+02 0.  0.
         -6    2    1    2    0  502  0.82073673897E+01 -0.61337155955E+02  0.11434378910E+04  0.11587019654E+04  0.17694752464E+03 0.  0.
        -24    2    5    5    0    0  0.49209028677E+02  0.24802931790E+02  0.54475296760E+03  0.55244543682E+03  0.73508169781E+02 0.  0.
          5    1    3    3  501    0 -0.34274280648E+02  0.34963063171E+01 -0.11801964244E+02  0.36719570148E+02  0.47000000000E+01 0. -1.
        -11    1    4    4    0    0  0.94420371861E+01 -0.14877544895E+02  0.84747403795E+01  0.19552867637E+02  0.00000000000E+00 0.  1.
         12    1    4    4    0    0  0.16624876072E+02  0.72718394533E+02  0.19485333781E+03  0.20864365474E+03  0.00000000000E+00 0. -1.
         -5    1    5    5    0  502 -0.41001661287E+02 -0.86140087744E+02  0.59868492336E+03  0.60625652854E+03  0.47000000000E+01 0.  1.
         13    1    6    6    0    0  0.26896273815E+02  0.36306021541E+02  0.49149694113E+03  0.49356942762E+03  0.00000000000E+00 0. -1.
        -14    1    6    6    0    0  0.22312754862E+02 -0.11503089751E+02  0.53256026473E+02  0.58876009198E+02  0.00000000000E+00 0.  1.
</event>
<event>
12    1  0.8052519E-002  0.1959612E+03  0.7818608E-02  0.1153513E+00
         21   -1    0    0  501  502  0.00000000000E+00  0.00000000000E+00  0.12794284972E+03  0.12794284972E+03  0.00000000000E+00 0. -1.
         21   -1    0    0  502  503 -0.00000000000E+00 -0.00000000000E+00 -0.57404132871E+03  0.57404132871E+03  0.00000000000E+00 0. -1.
         -6    2    1    2    0  503 -0.10245494113E+01 -0.91966854696E+02 -0.46693373875E+03  0.50638710792E+03  0.17303709030E+03 0.  0.
        -24    2    3    3    0    0 -0.50723718486E+02 -0.94019462619E+02 -0.40590805009E+03  0.42751730836E+03  0.81222834541E+02 0.  0.
          6    2    1    2  501    0  0.10245494113E+01  0.91966854696E+02  0.20835259758E+02  0.19559707051E+03  0.17136263851E+03 0.  0.
         24    2    5    5    0    0  0.74483071897E+01  0.14712444807E+01 -0.27142470043E+02  0.92861133812E+02  0.88480702147E+02 0.  0.
          5    1    5    5  501    0 -0.64237577784E+01  0.90495610216E+02  0.47977729801E+02  0.10273593670E+03  0.47000000000E+01 0. -1.
        -13    1    6    6    0    0 -0.38103856116E+02 -0.50836567611E+00 -0.27950551992E+02  0.47258815508E+02  0.00000000000E+00 0.  1.
         14    1    6    6    0    0  0.45552163306E+02  0.19796101568E+01  0.80808194952E+00  0.45602318303E+02  0.00000000000E+00 0. -1.
         -5    1    3    3    0  503  0.49699169075E+02  0.20526079224E+01 -0.61025688656E+02  0.78869799556E+02  0.47000000000E+01 0.  1.
         11    1    4    4    0    0 -0.61767366698E+02 -0.45738966627E+02 -0.17151114548E+03  0.18794502835E+03  0.00000000000E+00 0. -1.
        -12    1    4    4    0    0  0.11043648212E+02 -0.48280495991E+02 -0.23439690461E+03  0.23957228001E+03  0.00000000000E+00 0.  1.
</event>
<event>
12    1  0.8052519E-002  0.1749413E+03  0.7818608E-02  0.1172969E+00
         21   -1    0    0  501  502  0.00000000000E+00  0.00000000000E+00  0.78786127081E+03  0.78786127081E+03  0.00000000000E+00 0.  1.
         21   -1    0    0  502  503 -0.00000000000E+00 -0.00000000000E+00 -0.25431529200E+03  0.25431529200E+03  0.00000000000E+00 0.  1.
         -6    2    1    2    0  503  0.28585304158E+02 -0.17537574053E+01 -0.21296308489E+03  0.27560430661E+03  0.17258117805E+03 0.  0.
        -24    2    3    3    0    0  0.17117931954E+02  0.19961255732E+02 -0.28252557336E+02  0.89209265342E+02  0.80427673733E+02 0.  0.
          6    2    1    2  501    0 -0.28585304158E+02  0.17537574053E+01  0.74650906370E+03  0.76657225621E+03  0.17186345312E+03 0.  0.
         24    2    5    5    0    0 -0.68572853959E+02  0.41003148419E+02  0.58489243999E+03  0.59545375372E+03  0.77990460823E+02 0.  0.
          5    1    5    5  501    0  0.39987549801E+02 -0.39249391013E+02  0.16161662371E+03  0.17111850248E+03  0.47000000000E+01 0. -1.
        -11    1    6    6    0    0 -0.66990190193E+02  0.36377137125E+02  0.58557602351E+03  0.59051694387E+03  0.00000000000E+00 0.  1.
         12    1    6    6    0    0 -0.15826637655E+01  0.46260112933E+01 -0.68358351722E+00  0.49368098511E+01  0.00000000000E+00 0. -1.
         -5    1    3    3    0  503  0.11467372204E+02 -0.21715013138E+02 -0.18471052755E+03  0.18639504127E+03  0.47000000000E+01 0.  1.
         13    1    4    4    0    0  0.29884948216E+02 -0.14635887065E+02  0.11289721425E+02  0.35139395696E+02  0.00000000000E+00 0. -1.
        -14    1    4    4    0    0 -0.12767016262E+02  0.34597142797E+02 -0.39542278760E+02  0.54069869646E+02  0.00000000000E+00 0.  1.
</event>
<event>
12    1  0.8052519E-002  0.1796260E+03  0.7818608E-02  0.1168954E+00
         21   -1    0    0  501  502  0.00000000000E+00  0.00000000000E+00  0.63606945387E+03  0.63606945387E+03  0.00000000000E+00 0. -1.
         21   -1    0    0  502  503 -0.00000000000E+00 -0.00000000000E+00 -0.12318415897E+03  0.12318415897E+03  0.00000000000E+00 0. -1.
         -6    2    1    2    0  503  0.50446968959E+02 -0.13168909696E+02 -0.35580509334E+02  0.18311598433E+03  0.17189291495E+03 0.  0.
        -24    2    3    3    0    0  0.28415866225E+02  0.50044529739E+02  0.77127445543E+01  0.10325545437E+03  0.85383171750E+02 0.  0.
          6    2    1    2  501    0 -0.50446968959E+02  0.13168909696E+02  0.54846580424E+03  0.57613762851E+03  0.16852748059E+03 0.  0.
         24    2    5    5    0    0 -0.28358477803E+02 -0.32364160599E+02  0.49178604648E+03  0.50000716896E+03  0.79385208624E+02 0.  0.
          5    1    5    5  501    0 -0.22088491156E+02  0.45533070295E+02  0.56679757760E+02  0.76130459553E+02  0.47000000000E+01 0. -1.
        -11    1    6    6    0    0  0.11204130597E+02  0.11620894318E+02  0.26898261151E+02  0.31370275423E+02  0.00000000000E+00 0.  1.
         12    1    6    6    0    0 -0.39562608400E+02 -0.43985054917E+02  0.46488778532E+03  0.46863689354E+03  0.00000000000E+00 0. -1.
         -5    1    3    3    0  503  0.22031102734E+02 -0.63213439435E+02 -0.43293253888E+02  0.79860529957E+02  0.47000000000E+01 0.  1.
         11    1    4    4    0    0  0.13005397091E+01  0.48785714090E+02 -0.29626857027E+02  0.57091925525E+02  0.00000000000E+00 0. -1.
        -12    1    4    4    0    0  0.27115326516E+02  0.12588156484E+01  0.37339601582E+02  0.46163528843E+02  0.00000000000E+00 0.  1.
</event>
<event>
12    1  0.8052519E-002  0.1799885E+03  0.7818608E-02  0.1168107E+00
         21   -1    0    0  503  502  0.00000000000E+00  0.00000000000E+00  0.30767399255E+03  0.30767399255E+03  0.00000000000E+00 0. -1.
         21   -1    0    0  501  503 -0.00000000000E+00 -0.00000000000E+00 -0.11385876217E+03  0.11385876217E+03  0.00000000000E+00 0. -1.
          6    2    1    2  501    0  0.25871666609E+02  0.45892325831E+02  0.37069661235E+02  0.18376617091E+03  0.17210577295E+03 0.  0.
         24    2    3    3    0    0 -0.33654439859E+02 -0.19762239932E+02  0.42176797184E+01  0.89134135922E+02  0.80024608184E+02 0.  0.
         -6    2    1    2    0  502 -0.25871666609E+02 -0.45892325831E+02  0.15674556914E+03  0.23776658381E+03  0.17084591370E+03 0.  0.
        -24    2    5    5    0    0 -0.33590881964E+02  0.20321735650E+02  0.14394039546E+03  0.16972284276E+03  0.80905411553E+02 0.  0.
          5    1    3    3  501    0  0.59526106468E+02  0.65654565763E+02  0.32851981516E+02  0.94632034990E+02  0.47000000000E+01 0. -1.
        -11    1    4    4    0    0 -0.34226986892E+02  0.23558863641E+02  0.15526886992E+02  0.44357534956E+02  0.00000000000E+00 0.  1.
         12    1    4    4    0    0  0.57254703272E+00 -0.43321103573E+02 -0.11309207273E+02  0.44776600965E+02  0.00000000000E+00 0. -1.
         -5    1    5    5    0  502  0.77192153547E+01 -0.66214061481E+02  0.12805173687E+02  0.68043741054E+02  0.47000000000E+01 0.  1.
         13    1    6    6    0    0 -0.29072068154E+02  0.30771725182E+01  0.14847712738E+03  0.15132782788E+03  0.00000000000E+00 0. -1.
        -14    1    6    6    0    0 -0.45188138091E+01  0.17244563132E+02 -0.45367319181E+01  0.18395014877E+02  0.00000000000E+00 0.  1.
</event>
<event>
12    1  0.8052519E-002  0.1953831E+03  0.7818608E-02  0.1154251E+00
         21   -1    0    0  503  502  0.00000000000E+00  0.00000000000E+00  0.81872169050E+02  0.81872169050E+02  0.00000000000E+00 0.  1.
         21   -1    0    0  501  503 -0.00000000000E+00 -0.00000000000E+00 -0.55531783117E+03  0.55531783117E+03  0.00000000000E+00 0.  1.
          6    2    1    2  501    0  0.90888967578E+02  0.12844887138E+02 -0.36985071113E+03  0.41828710399E+03  0.17247828063E+03 0.  0.
         24    2    3    3    0    0  0.89643042514E+02  0.27679528918E+02 -0.38012641527E+03  0.39959756089E+03  0.79875451101E+02 0.  0.
         -6    2    1    2    0  502 -0.90888967578E+02 -0.12844887138E+02 -0.10359495098E+03  0.21890289622E+03  0.16959000133E+03 0.  0.
        -24    2    5    5    0    0 -0.38638614536E+02 -0.24775471424E+02 -0.12838199135E+03  0.15966671130E+03  0.83094864323E+02 0.  0.
          5    1    3    3  501    0  0.12459250642E+01 -0.14834641779E+02  0.10275704138E+02  0.18689543106E+02  0.47000000000E+01 0. -1.
        -13    1    4    4    0    0  0.68413754469E+02  0.24487255936E+02 -0.13312699540E+03  0.15166695226E+03  0.00000000000E+00 0.  1.
         14    1    4    4    0    0  0.21229288045E+02  0.31922729818E+01 -0.24699941987E+03  0.24793060863E+03  0.00000000000E+00 0. -1.
         -5    1    5    5    0  502 -0.52250353041E+02  0.11930584286E+02  0.24787040364E+02  0.59236184924E+02  0.47000000000E+01 0.  1.
         13    1    6    6    0    0 -0.24712525350E+02  0.11393870974E+01 -0.12787156176E+03  0.13024263288E+03  0.00000000000E+00 0. -1.
        -14    1    6    6    0    0 -0.13926089187E+02 -0.25914858522E+02 -0.51042958302E+00  0.29424078416E+02  0.00000000000E+00 0.  1.
</event>
<event>
12    1  0.8052519E-002  0.2325845E+03  0.7818608E-02  0.1125162E+00
         21   -1    0    0  503  502  0.00000000000E+00  0.00000000000E+00  0.64546049021E+03  0.64546049021E+03  0.00000000000E+00 0. -1.
         21   -1    0    0  501  503 -0.00000000000E+00 -0.00000000000E+00 -0.93769530114E+02  0.93769530114E+02  0.00000000000E+00 0.  1.
          6    2    1    2  501    0  0.42433401546E+02  0.15158231302E+03  0.39934237520E+03  0.46119111149E+03  0.16865680390E+03 0.  0.
         24    2    3    3    0    0 -0.38385651230E+02  0.53992524181E+02  0.19042241035E+03  0.21680386164E+03  0.79715551626E+02 0.  0.
         -6    2    1    2    0  502 -0.42433401546E+02 -0.15158231302E+03  0.15234858490E+03  0.27803890884E+03  0.17122427492E+03 0.  0.
        -24    2    5    5    0    0 -0.14954150143E+02 -0.10334987809E+03  0.18864634009E+02  0.13339613445E+03  0.80832112203E+02 0.  0.
          5    1    3    3  501    0  0.80819052775E+02  0.97589788835E+02  0.20891996485E+03  0.24438724985E+03  0.47000000000E+01 0. -1.
        -11    1    4    4    0    0  0.13545869897E+02 -0.11899125723E+02  0.20514139704E+02  0.27311347679E+02  0.00000000000E+00 0.  1.
         12    1    4    4    0    0 -0.51931521127E+02  0.65891649904E+02  0.16990827064E+03  0.18949251396E+03  0.00000000000E+00 0. -1.
         -5    1    5    5    0  502 -0.27479251402E+02 -0.48232434928E+02  0.13348395089E+03  0.14464277439E+03  0.47000000000E+01 0.  1.
         13    1    6    6    0    0  0.23725147960E+02 -0.50391846431E+01 -0.57365477547E+01  0.24923563304E+02  0.00000000000E+00 0. -1.
        -14    1    6    6    0    0 -0.38679298103E+02 -0.98310693445E+02  0.24601181764E+02  0.10847257115E+03  0.00000000000E+00 0.  1.
</event>
<event>
12    1  0.8052519E-002  0.2144435E+03  0.7818608E-02  0.1138232E+00
         21   -1    0    0  503  502  0.00000000000E+00  0.00000000000E+00  0.20385306591E+03  0.20385306591E+03  0.00000000000E+00 0. -1.
         21   -1    0    0  501  503 -0.00000000000E+00 -0.00000000000E+00 -0.33212376564E+03  0.33212376564E+03  0.00000000000E+00 0. -1.
          6    2    1    2  501    0 -0.12332108790E+03 -0.30443012927E+02 -0.21637652222E+03  0.30413929762E+03  0.17189253978E+03 0.  0.
         24    2    3    3    0    0 -0.72093366884E+02 -0.20622403171E+02 -0.35751953575E+02  0.11607534952E+03  0.81071249660E+02 0.  0.
         -6    2    1    2    0  502  0.12332108790E+03  0.30443012927E+02  0.88105822484E+02  0.23183753392E+03  0.17277481999E+03 0.  0.
        -24    2    5    5    0    0  0.14265181820E+03  0.62075083195E+02  0.64357281308E+02  0.18756171421E+03  0.82672122209E+02 0.  0.
          5    1    3    3  501    0 -0.51227721019E+02 -0.98206097550E+01 -0.18062456864E+03  0.18806394810E+03  0.47000000000E+01 0. -1.
        -13    1    4    4    0    0  0.88266283348E+01 -0.15500280256E+02 -0.29856959778E+02  0.34779391929E+02  0.00000000000E+00 0.  1.
         14    1    4    4    0    0 -0.80919995219E+02 -0.51221229160E+01 -0.58949937969E+01  0.81295957595E+02  0.00000000000E+00 0. -1.
         -5    1    5    5    0  502 -0.19330730296E+02 -0.31632070269E+02  0.23748541176E+02  0.44275819713E+02  0.47000000000E+01 0.  1.
         13    1    6    6    0    0  0.35946066488E+02 -0.11319978331E+02 -0.89621591497E+01  0.38737345057E+02  0.00000000000E+00 0. -1.
        -14    1    6    6    0    0  0.10670575171E+03  0.73395061527E+02  0.73319440458E+02  0.14882436915E+03  0.00000000000E+00 0.  1.
</event>
<event>
12    1  0.8052519E-002  0.1747392E+03  0.7818608E-02  0.1173072E+00
         21   -1    0    0  503  502  0.00000000000E+00  0.00000000000E+00  0.43371862952E+02  0.43371862952E+02  0.00000000000E+00 0.  1.
         21   -1    0    0  501  503 -0.00000000000E+00 -0.00000000000E+00 -0.90811587876E+03  0.90811587876E+03  0.00000000000E+00 0.  1.
          6    2    1    2  501    0  0.63065003466E+01  0.27626846591E+02 -0.20643234560E+03  0.27045903820E+03  0.17242611007E+03 0.  0.
         24    2    3    3    0    0 -0.46320315525E+02 -0.18148057279E+02 -0.15838521287E+03  0.18563250617E+03  0.83057980211E+02 0.  0.
         -6    2    1    2    0  502 -0.63065003466E+01 -0.27626846591E+02 -0.65831167021E+03  0.68102870352E+03  0.17211282716E+03 0.  0.
        -24    2    5    5    0    0 -0.51032246568E+02  0.29811852449E+02 -0.34451714512E+03  0.35886618164E+03  0.81239376584E+02 0.  0.
          5    1    3    3  501    0  0.52626815872E+02  0.45774903870E+02 -0.48047132727E+02  0.84826532031E+02  0.47000000000E+01 0. -1.
        -13    1    4    4    0    0  0.17657468875E+02 -0.18528158320E+02 -0.82483997039E+02  0.86363699696E+02  0.00000000000E+00 0.  1.
         14    1    4    4    0    0 -0.63977784400E+02  0.38010104062E+00 -0.75901215830E+02  0.99268806470E+02  0.00000000000E+00 0. -1.
         -5    1    5    5    0  502  0.44725746222E+02 -0.57438699040E+02 -0.31379452510E+03  0.32216252188E+03  0.47000000000E+01 0.  1.
         11    1    6    6    0    0  0.18463601179E+02  0.21125389492E+02 -0.13717489909E+03  0.14001478347E+03  0.00000000000E+00 0. -1.
        -12    1    6    6    0    0 -0.69495847747E+02  0.86864629570E+01 -0.20734224603E+03  0.21885139817E+03  0.00000000000E+00 0.  1.
</event>
<event>
12    1  0.8052519E-002  0.2206266E+03  0.7818608E-02  0.1134567E+00
         21   -1    0    0  503  502  0.00000000000E+00  0.00000000000E+00  0.79169681848E+03  0.79169681848E+03  0.00000000000E+00 0. -1.
         21   -1    0    0  501  503 -0.00000000000E+00 -0.00000000000E+00 -0.23005235762E+03  0.23005235762E+03  0.00000000000E+00 0.  1.
          6    2    1    2  501    0 -0.12728767373E+03  0.63285551332E+02 -0.15763852100E+03  0.27115676560E+03  0.16872722168E+03 0.  0.
         24    2    3    3    0    0 -0.12583062673E+03 -0.35967847484E+01 -0.84386822857E+02  0.17184276282E+03  0.81009356126E+02 0.  0.
         -6    2    1    2    0  502  0.12728767373E+03 -0.63285551332E+02  0.71928298186E+03  0.75059241050E+03  0.16066656722E+03 0.  0.
        -24    2    5    5    0    0  0.15438001949E+03 -0.48061201173E+02  0.56170382967E+03  0.58990932104E+03  0.79616237666E+02 0.  0.
          5    1    3    3  501    0 -0.14570469974E+01  0.66882336081E+02 -0.73251698147E+02  0.99314002774E+02  0.47000000000E+01 0. -1.
        -13    1    4    4    0    0 -0.31029886776E+02 -0.28572202234E+02 -0.55363600611E+02  0.69601385665E+02  0.00000000000E+00 0.  1.
         14    1    4    4    0    0 -0.94800739952E+02  0.24975417486E+02 -0.29023222246E+02  0.10224137716E+03  0.00000000000E+00 0. -1.
         -5    1    5    5    0  502 -0.27092345767E+02 -0.15224350159E+02  0.15757915219E+03  0.16068308947E+03  0.47000000000E+01 0.  1.
         11    1    6    6    0    0  0.58244702849E+02  0.18924899606E+02  0.15489534753E+03  0.16656279873E+03  0.00000000000E+00 0. -1.
        -12    1    6    6    0    0  0.96135316643E+02 -0.66986100779E+02  0.40680848215E+03  0.42334652231E+03  0.00000000000E+00 0.  1.
</event>
<event>
12    1  0.8052519E-002  0.1994660E+03  0.7818608E-02  0.1153113E+00
         21   -1    0    0  501  502  0.00000000000E+00  0.00000000000E+00  0.52992089582E+03  0.52992089582E+03  0.00000000000E+00 0.  1.
         21   -1    0    0  502  503 -0.00000000000E+00 -0.00000000000E+00 -0.70414265799E+02  0.70414265799E+02  0.00000000000E+00 0.  1.
         -6    2    1    2    0  503 -0.61534885328E+02 -0.82240963020E+02  0.25584751153E+03  0.32441432309E+03  0.17098709237E+03 0.  0.
        -24    2    3    3    0    0 -0.10594913820E+03 -0.56512651790E+02  0.22410176273E+03  0.26387958576E+03  0.70653634160E+02 0.  0.
          6    2    1    2  501    0  0.61534885328E+02  0.82240963020E+02  0.20365911849E+03  0.27592083853E+03  0.15525834754E+03 0.  0.
         24    2    5    5    0    0  0.47817471548E+01  0.11149467241E+02  0.14991094172E+03  0.17015753691E+03  0.79580909721E+02 0.  0.
          5    1    5    5  501    0  0.56753138173E+02  0.71091495779E+02  0.53748176766E+02  0.10576330162E+03  0.47000000000E+01 0. -1.
        -11    1    6    6    0    0  0.22440842331E+02  0.46485884633E+01  0.14959188816E+03  0.15133715268E+03  0.00000000000E+00 0.  1.
         12    1    6    6    0    0 -0.17659095176E+02  0.65008787775E+01  0.31905356954E+00  0.18820384228E+02  0.00000000000E+00 0. -1.
         -5    1    3    3    0  503  0.44414252875E+02 -0.25728311230E+02  0.31745748792E+02  0.60534737329E+02  0.47000000000E+01 0.  1.
         11    1    4    4    0    0  0.80985021577E+01  0.51906188294E+01  0.14040312521E+02  0.17019360644E+02  0.00000000000E+00 0. -1.
        -12    1    4    4    0    0 -0.11404764036E+03 -0.61703270619E+02  0.21006145021E+03  0.24686022511E+03  0.00000000000E+00 0.  1.
</event>
<event>
12    1  0.8052519E-002  0.2318415E+03  0.7818608E-02  0.1125508E+00
         21   -1    0    0  503  502  0.00000000000E+00  0.00000000000E+00  0.29472699618E+03  0.29472699618E+03  0.00000000000E+00 0.  1.
         21   -1    0    0  501  503 -0.00000000000E+00 -0.00000000000E+00 -0.33781957755E+03  0.33781957755E+03  0.00000000000E+00 0. -1.
          6    2    1    2  501    0 -0.15470858627E+03 -0.80934507743E+01 -0.23660028872E+03  0.33125542311E+03  0.17248248639E+03 0.  0.
         24    2    3    3    0    0 -0.93841313082E+02  0.12244687157E+01 -0.46524032722E+02  0.13139867026E+03  0.79331163864E+02 0.  0.
         -6    2    1    2    0  502  0.15470858627E+03  0.80934507743E+01  0.19350770734E+03  0.30129115062E+03  0.17126258794E+03 0.  0.
        -24    2    5    5    0    0  0.69103692685E+02  0.69487518554E+01  0.18896236637E+02  0.10676412462E+03  0.78853693964E+02 0.  0.
          5    1    3    3  501    0 -0.60867273185E+02 -0.93179194900E+01 -0.19007625600E+03  0.19985675286E+03  0.47000000000E+01 0. -1.
        -13    1    4    4    0    0 -0.30182521682E+02 -0.27131000751E+02  0.98509961982E+01  0.41762638122E+02  0.00000000000E+00 0.  1.
         14    1    4    4    0    0 -0.63658791399E+02  0.28355469466E+02 -0.56375028920E+02  0.89636032134E+02  0.00000000000E+00 0. -1.
         -5    1    5    5    0  502  0.85604893582E+02  0.11446989189E+01  0.17461147071E+03  0.19452702600E+03  0.47000000000E+01 0.  1.
         13    1    6    6    0    0  0.81591965027E+02  0.22473627625E+02  0.11042654372E+02  0.85347834835E+02  0.00000000000E+00 0. -1.
        -14    1    6    6    0    0 -0.12488272342E+02 -0.15524875769E+02  0.78535822647E+01  0.21416289784E+02  0.00000000000E+00 0.  1.
</event>
<event>
12    1  0.8052519E-002  0.1965034E+03  0.7818608E-02  0.1154120E+00
         21   -1    0    0  503  502  0.00000000000E+00  0.00000000000E+00  0.11121146148E+03  0.11121146148E+03  0.00000000000E+00 0. -1.
         21   -1    0    0  501  503 -0.00000000000E+00 -0.00000000000E+00 -0.45251223150E+03  0.45251223150E+03  0.00000000000E+00 0. -1.
          6    2    1    2  501    0 -0.75810699702E+02 -0.53614461207E+02 -0.31153721766E+03  0.36497899318E+03  0.16592906568E+03 0.  0.
         24    2    3    3    0    0  0.83093210720E+00  0.20911644651E+02 -0.15036547306E+03  0.17151969142E+03  0.79820058420E+02 0.  0.
         -6    2    1    2    0  502  0.75810699702E+02  0.53614461207E+02 -0.29763552367E+02  0.19874469980E+03  0.17318144823E+03 0.  0.
        -24    2    5    5    0    0  0.10066693983E+03 -0.97800104869E+01 -0.17727678853E+02  0.12943637443E+03  0.78803699466E+02 0.  0.
          5    1    3    3  501    0 -0.76641631810E+02 -0.74526105858E+02 -0.16117174460E+03  0.19345930176E+03  0.47000000000E+01 0. -1.
        -11    1    4    4    0    0  0.18386446667E+02 -0.25158414610E+02 -0.40509634921E+02  0.51108098851E+02  0.00000000000E+00 0.  1.
         12    1    4    4    0    0 -0.17555514560E+02  0.46070059262E+02 -0.10985583814E+03  0.12041159257E+03  0.00000000000E+00 0. -1.
         -5    1    5    5    0  502 -0.24856240124E+02  0.63394471694E+02 -0.12035873514E+02  0.69308325371E+02  0.47000000000E+01 0.  1.
         13    1    6    6    0    0  0.69824477397E+02  0.22477624608E+01  0.26042581851E+02  0.74556865206E+02  0.00000000000E+00 0. -1.
        -14    1    6    6    0    0  0.30842462429E+02 -0.12027772948E+02 -0.43770260704E+02  0.54879509226E+02  0.00000000000E+00 0.  1.
</event>
<event>
12    1  0.8052519E-002  0.1810201E+03  0.7818608E-02  0.1167102E+00
         21   -1    0    0  503  502  0.00000000000E+00  0.00000000000E+00  0.77026274662E+02  0.77026274662E+02  0.00000000000E+00 0. -1.
         21   -1    0    0  501  503 -0.00000000000E+00 -0.00000000000E+00 -0.42267500632E+03  0.42267500632E+03  0.00000000000E+00 0. -1.
          6    2    1    2  501    0  0.47957920533E+02 -0.21258450264E+02 -0.17447584711E+03  0.25141620969E+03  0.17325243265E+03 0.  0.
         24    2    3    3    0    0 -0.24425472132E+02 -0.35154826565E+01 -0.15180434393E+03  0.17337612070E+03  0.80035979944E+02 0.  0.
         -6    2    1    2    0  502 -0.47957920533E+02  0.21258450264E+02 -0.17117288454E+03  0.24828507129E+03  0.17202742913E+03 0.  0.
        -24    2    5    5    0    0 -0.93168611301E+02 -0.12074607414E+02 -0.11106180423E+03  0.16588039139E+03  0.79720722598E+02 0.  0.
          5    1    3    3  501    0  0.72383392665E+02 -0.17742967607E+02 -0.22671503188E+02  0.78040088993E+02  0.47000000000E+01 0. -1.
        -11    1    4    4    0    0 -0.38152659114E+01 -0.26853274202E+02 -0.11164313985E+02  0.29330811378E+02  0.00000000000E+00 0.  1.
         12    1    4    4    0    0 -0.20610206220E+02  0.23337791545E+02 -0.14064002994E+03  0.14404530932E+03  0.00000000000E+00 0. -1.
         -5    1    5    5    0  502  0.45210690767E+02  0.33333057678E+02 -0.60111080311E+02  0.82404679903E+02  0.47000000000E+01 0.  1.
         11    1    6    6    0    0 -0.58741710907E+02 -0.16036493011E+02 -0.11586888892E+03  0.13089445033E+03  0.00000000000E+00 0. -1.
        -12    1    6    6    0    0 -0.34426900394E+02  0.39618855968E+01  0.48070846891E+01  0.34985941054E+02  0.00000000000E+00 0.  1.
</event>
<event>
12    1  0.8052519E-002  0.2020400E+03  0.7818608E-02  0.1148173E+00
         21   -1    0    0  503  502  0.00000000000E+00  0.00000000000E+00  0.26717091578E+03  0.26717091578E+03  0.00000000000E+00 0. -1.
         21   -1    0    0  501  503 -0.00000000000E+00 -0.00000000000E+00 -0.15554146185E+03  0.15554146185E+03  0.00000000000E+00 0. -1.
          6    2    1    2  501    0  0.12263266057E+02 -0.10588548349E+03  0.25047795699E+02  0.20290211393E+03  0.17082081975E+03 0.  0.
         24    2    3    3    0    0  0.31799356890E+02 -0.13285162492E+03  0.44871016952E+02  0.16386518616E+03  0.78597949906E+02 0.  0.
         -6    2    1    2    0  502 -0.12263266057E+02  0.10588548349E+03  0.86581658227E+02  0.21981026371E+03  0.17163346172E+03 0.  0.
        -24    2    5    5    0    0 -0.54072705108E+02  0.12214257123E+03  0.58897138565E+02  0.16688725619E+03  0.80869142471E+02 0.  0.
          5    1    3    3  501    0 -0.19536090833E+02  0.26966141434E+02 -0.19823221253E+02  0.39036927770E+02  0.47000000000E+01 0. -1.
        -13    1    4    4    0    0 -0.21332422905E+02 -0.12943300662E+02  0.15786244172E+02  0.29526374720E+02  0.00000000000E+00 0.  1.
         14    1    4    4    0    0  0.53131779795E+02 -0.11990832426E+03  0.29084772780E+02  0.13433881144E+03  0.00000000000E+00 0. -1.
         -5    1    5    5    0  502  0.41809439051E+02 -0.16257087743E+02  0.27684519662E+02  0.52923007516E+02  0.47000000000E+01 0.  1.
         11    1    6    6    0    0 -0.25202883084E+01  0.34198666395E+02  0.55071951673E+02  0.64875422907E+02  0.00000000000E+00 0. -1.
        -12    1    6    6    0    0 -0.51552416800E+02  0.87943904834E+02  0.38251868926E+01  0.10201183329E+03  0.00000000000E+00 0.  1.
</event>
<event>
12    1  0.8052519E-002  0.1921238E+03  0.7818608E-02  0.1156659E+00
         21   -1    0    0  501  502  0.00000000000E+00  0.00000000000E+00  0.97108087172E+03  0.97108087172E+03  0.00000000000E+00 0.  1.
         21   -1    0    0  502  503 -0.00000000000E+00 -0.00000000000E+00 -0.28767283075E+03  0.28767283075E+03  0.00000000000E+00 0.  1.
         -6    2    1    2    0  503 -0.58277002823E+02 -0.59992718970E+02 -0.24467127947E+03  0.31108777840E+03  0.17296310441E+03 0.  0.
        -24    2    3    3    0    0 -0.19341552802E+01 -0.13614860906E+02 -0.32907560096E+02  0.87053439453E+02  0.79412142742E+02 0.  0.
          6    2    1    2  501    0  0.58277002823E+02  0.59992718970E+02  0.92807932043E+03  0.94766592407E+03  0.17246490437E+03 0.  0.
         24    2    5    5    0    0  0.40681330004E+02  0.10898733814E+03  0.63998472867E+03  0.65486793191E+03  0.75751863527E+02 0.  0.
          5    1    5    5  501    0  0.17595672819E+02 -0.48994619168E+02  0.28809459176E+03  0.29279799216E+03  0.47000000000E+01 0. -1.
        -11    1    6    6    0    0  0.33975045394E+01 -0.10154085197E+02  0.10337467818E+03  0.10392772764E+03  0.00000000000E+00 0.  1.
         12    1    6    6    0    0  0.37283825464E+02  0.11914142334E+03  0.53661005049E+03  0.55094020427E+03  0.00000000000E+00 0. -1.
         -5    1    3    3    0  503 -0.56342847543E+02 -0.46377858064E+02 -0.21176371937E+03  0.22403433895E+03  0.47000000000E+01 0.  1.
         11    1    4    4    0    0 -0.23722581317E+02 -0.27446347948E+02  0.94181140844E+01  0.37480178134E+02  0.00000000000E+00 0. -1.
        -12    1    4    4    0    0  0.21788426037E+02  0.13831487041E+02 -0.42325674181E+02  0.49573261319E+02  0.00000000000E+00 0.  1.
</event>
<event>
12    1  0.8052519E-002  0.2189796E+03  0.7818608E-02  0.1134687E+00
         21   -1    0    0  503  502  0.00000000000E+00  0.00000000000E+00  0.37923915569E+03  0.37923915569E+03  0.00000000000E+00 0.  1.
         21   -1    0    0  501  503 -0.00000000000E+00 -0.00000000000E+00 -0.12966584256E+03  0.12966584256E+03  0.00000000000E+00 0.  1.
          6    2    1    2  501    0 -0.51926997150E+02  0.12704449653E+03  0.83955346877E+02  0.23452195096E+03  0.17063214257E+03 0.  0.
         24    2    3    3    0    0  0.23946196038E+01  0.11335262590E+03  0.99460708907E+01  0.14158235606E+03  0.84214530926E+02 0.  0.
         -6    2    1    2    0  502  0.51926997150E+02 -0.12704449653E+03  0.16561796625E+03  0.27438304730E+03  0.17035265999E+03 0.  0.
        -24    2    5    5    0    0  0.14878572188E+02 -0.14145090550E+03  0.16800426391E+03  0.23428423400E+03  0.80211838480E+02 0.  0.
          5    1    3    3  501    0 -0.54321616753E+02  0.13691870632E+02  0.74009275987E+02  0.92939594900E+02  0.47000000000E+01 0. -1.
        -13    1    4    4    0    0 -0.21956050972E+02  0.92504769310E+02 -0.20624711738E+02  0.97286069165E+02  0.00000000000E+00 0.  1.
         14    1    4    4    0    0  0.24350670576E+02  0.20847856592E+02  0.30570782629E+02  0.44296286893E+02  0.00000000000E+00 0. -1.
         -5    1    5    5    0  502  0.37048424961E+02  0.14406408961E+02 -0.23862976599E+01  0.40098813296E+02  0.47000000000E+01 0.  1.
         13    1    6    6    0    0  0.21429374406E+02 -0.22392777788E+01  0.10481801299E+02  0.23960396718E+02  0.00000000000E+00 0. -1.
        -14    1    6    6    0    0 -0.65508022179E+01 -0.13921162772E+03  0.15752246262E+03  0.21032383728E+03  0.00000000000E+00 0.  1.
</event>
<event>
12    1  0.8052519E-002  0.1739498E+03  0.7818608E-02  0.1174108E+00
         21   -1    0    0  503  502  0.00000000000E+00  0.00000000000E+00  0.70882181513E+02  0.70882181513E+02  0.00000000000E+00 0.  1.
         21   -1    0    0  501  503 -0.00000000000E+00 -0.00000000000E+00 -0.42428897049E+03  0.42428897049E+03  0.00000000000E+00 0.  1.
          6    2    1    2  501    0  0.22486477771E+01  0.23823880429E+02 -0.16909860227E+03  0.24259609148E+03  0.17229594485E+03 0.  0.
         24    2    3    3    0    0  0.58757203154E+02 -0.20103880856E+02 -0.96444936730E+02  0.14050049823E+03  0.81130692315E+02 0.  0.
         -6    2    1    2    0  502 -0.22486477771E+01 -0.23823880429E+02 -0.18430818671E+03  0.25257506053E+03  0.17103221866E+03 0.  0.
        -24    2    5    5    0    0  0.63270906038E+02 -0.27476292779E+01 -0.92398271743E+02  0.13765533740E+03  0.80004964079E+02 0.  0.
          5    1    3    3  501    0 -0.56508555377E+02  0.43927761285E+02 -0.72653665544E+02  0.10209559324E+03  0.47000000000E+01 0. -1.
        -13    1    4    4    0    0 -0.20092280596E+02  0.14540112395E+01 -0.15067717621E+02  0.25156510142E+02  0.00000000000E+00 0.  1.
         14    1    4    4    0    0  0.78849483750E+02 -0.21557892095E+02 -0.81377219108E+02  0.11534398809E+03  0.00000000000E+00 0. -1.
         -5    1    5    5    0  502 -0.65519553815E+02 -0.21076251151E+02 -0.91909914964E+02  0.11491972313E+03  0.47000000000E+01 0.  1.
         13    1    6    6    0    0  0.59008718519E+02  0.11006090552E+02 -0.10338222375E+03  0.11954516752E+03  0.00000000000E+00 0. -1.
        -14    1    6    6    0    0  0.42621875186E+01 -0.13753719830E+02  0.10983952004E+02  0.18110169884E+02  0.00000000000E+00 0.  1.
</event>
<event>
12    1  0.8052519E-002  0.1798798E+03  0.7818608E-02  0.1168462E+00
         21   -1    0    0  501  502  0.00000000000E+00  0.00000000000E+00  0.57174496566E+03  0.57174496566E+03  0.00000000000E+00 0.  1.
         21   -1    0    0  502  503 -0.00000000000E+00 -0.00000000000E+00 -0.56049377873E+02  0.56049377873E+02  0.00000000000E+00 0.  1.
         -6    2    1    2    0  503 -0.58098569971E+02 -0.45617715991E+01  0.23975407445E+03  0.29840028002E+03  0.16782269605E+03 0.  0.
        -24    2    3    3    0    0 -0.10503335092E+03  0.23978551778E+01  0.17432379496E+03  0.21744028039E+03  0.76509708725E+02 0.  0.
          6    2    1    2  501    0  0.58098569971E+02  0.45617715991E+01  0.27594151333E+03  0.32939406351E+03  0.17017777969E+03 0.  0.
         24    2    5    5    0    0 -0.51797190289E+01 -0.36352724086E+02  0.78451811611E+02  0.11796461877E+03  0.80078801803E+02 0.  0.
          5    1    5    5  501    0  0.63278289000E+02  0.40914495685E+02  0.19748970172E+03  0.21142944474E+03  0.47000000000E+01 0. -1.
        -13    1    6    6    0    0  0.16243170182E+02 -0.56235806143E+02  0.47389132944E+02  0.75312923136E+02  0.00000000000E+00 0.  1.
         14    1    6    6    0    0 -0.21422889211E+02  0.19883082057E+02  0.31062678667E+02  0.42651695631E+02  0.00000000000E+00 0. -1.
         -5    1    3    3    0  503  0.46934780949E+02 -0.69596267769E+01  0.65430279489E+02  0.80959999640E+02  0.47000000000E+01 0.  1.
         11    1    4    4    0    0  0.84743118409E+01 -0.84792955466E+01  0.37288124178E+02  0.39167800791E+02  0.00000000000E+00 0. -1.
        -12    1    4    4    0    0 -0.11350766276E+03  0.10877150724E+02  0.13703567078E+03  0.17827247959E+03  0.00000000000E+00 0.  1.
</event>
<event>
12    1  0.8052519E-002  0.1733491E+03  0.7818608E-02  0.1174530E+00
         21   -1    0    0  503  502  0.00000000000E+00  0.00000000000E+00  0.19605595220E+03  0.19605595220E+03  0.00000000000E+00 0.  1.
         21   -1    0    0  501  503 -0.00000000000E+00 -0.00000000000E+00 -0.16255829461E+03  0.16255829461E+03  0.00000000000E+00 0.  1.
          6    2    1    2  501    0  0.12512435587E+02 -0.23883005983E+02 -0.27114336742E+02  0.17545686115E+03  0.17123949266E+03 0.  0.
         24    2    3    3    0    0 -0.32975054565E+02 -0.33870278487E+02 -0.66654995561E+02  0.11418361191E+03  0.79752484645E+02 0.  0.
         -6    2    1    2    0  502 -0.12512435587E+02  0.23883005983E+02  0.60611994333E+02  0.18315738567E+03  0.17072157172E+03 0.  0.
        -24    2    5    5    0    0 -0.34065498463E+02 -0.46942764476E+02  0.35278411706E+02  0.10476921890E+03  0.79799383299E+02 0.  0.
          5    1    3    3  501    0  0.45487490152E+02  0.99872725040E+01  0.39540658819E+02  0.61273249238E+02  0.47000000000E+01 0. -1.
        -13    1    4    4    0    0  0.14520047248E+02 -0.33940792346E+02 -0.53319235751E+02  0.64851754473E+02  0.00000000000E+00 0.  1.
         14    1    4    4    0    0 -0.47495101812E+02  0.70513859175E-01 -0.13335759810E+02  0.49331857436E+02  0.00000000000E+00 0. -1.
         -5    1    5    5    0  502  0.21553062876E+02  0.70825770459E+02  0.25333582627E+02  0.78388166767E+02  0.47000000000E+01 0.  1.
         11    1    6    6    0    0  0.24963959701E+02 -0.79290563212E+01  0.11667277862E+01  0.26218895321E+02  0.00000000000E+00 0. -1.
        -12    1    6    6    0    0 -0.59029458164E+02 -0.39013708155E+02  0.34111683920E+02  0.78550323583E+02  0.00000000000E+00 0.  1.
</event>
<event>
12    1  0.8052519E-002  0.3947148E+03  0.7818608E-02  0.1045643E+00
         21   -1    0    0  503  502  0.00000000000E+00  0.00000000000E+00  0.23259074727E+04  0.23259074727E+04  0.00000000000E+00 0. -1.
         21   -1    0    0  501  503 -0.00000000000E+00 -0.00000000000E+00 -0.27951713418E+03  0.27951713418E+03  0.00000000000E+00 0.  1.
          6    2    1    2  501    0  0.20220314459E+03 -0.29217013665E+03 -0.11290618610E+03  0.41034801618E+03  0.17142983140E+03 0.  0.
         24    2    3    3    0    0  0.15612821526E+03 -0.29812261714E+03 -0.11132642402E+03  0.36362632117E+03  0.81101259642E+02 0.  0.
         -6    2    1    2    0  502 -0.20220314459E+03  0.29217013665E+03  0.21592965246E+04  0.21950765907E+04  0.17190188291E+03 0.  0.
        -24    2    5    5    0    0 -0.15529700857E+03  0.11326247685E+03  0.10437953248E+04  0.10643364998E+04  0.79736787131E+02 0.  0.
          5    1    3    3  501    0  0.46074929324E+02  0.59524804856E+01 -0.15797620814E+01  0.46721695008E+02  0.47000000000E+01 0. -1.
        -13    1    4    4    0    0  0.54020292382E+02 -0.16068031238E+03 -0.23326072530E+02  0.17111534249E+03  0.00000000000E+00 0.  1.
         14    1    4    4    0    0  0.10210792288E+03 -0.13744230476E+03 -0.88000351490E+02  0.19251097869E+03  0.00000000000E+00 0. -1.
         -5    1    5    5    0  502 -0.46906136012E+02  0.17890765980E+03  0.11155011999E+04  0.11307400909E+04  0.47000000000E+01 0.  1.
         13    1    6    6    0    0 -0.12727262841E+03  0.86647912863E+02  0.95725332426E+03  0.96955665619E+03  0.00000000000E+00 0. -1.
        -14    1    6    6    0    0 -0.28024380161E+02  0.26614563991E+02  0.86542000499E+02  0.94779843586E+02  0.00000000000E+00 0.  1.
</event>
<event>
12    1  0.8052519E-002  0.3094706E+03  0.7818608E-02  0.1080723E+00
         21   -1    0    0  501  502  0.00000000000E+00  0.00000000000E+00  0.17925200601E+03  0.17925200601E+03  0.00000000000E+00 0.  1.
         21   -1    0    0  502  503 -0.00000000000E+00 -0.00000000000E+00 -0.77545596899E+03  0.77545596899E+03  0.00000000000E+00 0.  1.
         -6    2    1    2    0  503  0.23641035968E+03  0.10133407710E+03 -0.56494192810E+03  0.64366241725E+03  0.17024532861E+03 0.  0.
        -24    2    3    3    0    0  0.16925747914E+03  0.80192023845E+02 -0.25937360811E+03  0.33005345061E+03  0.81128026833E+02 0.  0.
          6    2    1    2  501    0 -0.23641035968E+03 -0.10133407710E+03 -0.31262034885E+02  0.31104555775E+03  0.17208594024E+03 0.  0.
         24    2    5    5    0    0 -0.37535209446E+02 -0.38488601237E+02  0.12260789270E+02  0.97932429489E+02  0.80933116947E+02 0.  0.
          5    1    5    5  501    0 -0.19887515023E+03 -0.62845475862E+02 -0.43522824155E+02  0.21311312826E+03  0.47000000000E+01 0. -1.
        -13    1    6    6    0    0  0.51487727104E+01 -0.43306480259E+02 -0.16067709547E+02  0.46477224346E+02  0.00000000000E+00 0.  1.
         14    1    6    6    0    0 -0.42683982157E+02  0.48178790223E+01  0.28328498816E+02  0.51455205142E+02  0.00000000000E+00 0. -1.
         -5    1    3    3    0  503  0.67152880532E+02  0.21142053254E+02 -0.30556831999E+03  0.31360896664E+03  0.47000000000E+01 0.  1.
         11    1    4    4    0    0  0.50938263772E+02  0.68111072834E+02 -0.11382129112E+03  0.14208839246E+03  0.00000000000E+00 0. -1.
        -12    1    4    4    0    0  0.11831921537E+03  0.12080951010E+02 -0.14555231699E+03  0.18796505815E+03  0.00000000000E+00 0.  1.
</event>
<event>
12    1  0.8052519E-002  0.1771684E+03  0.7818608E-02  0.1170791E+00
         21   -1    0    0  501  502  0.00000000000E+00  0.00000000000E+00  0.18965967960E+04  0.18965967960E+04  0.00000000000E+00 0. -1.
         21   -1    0    0  502  503 -0.00000000000E+00 -0.00000000000E+00 -0.17897958123E+02  0.17897958123E+02  0.00000000000E+00 0. -1.
         -6    2    1    2    0  503  0.30741282025E+02 -0.26252679719E+02  0.66656546080E+03  0.68948211170E+03  0.17158624423E+03 0.  0.
        -24    2    3    3    0    0  0.96717212400E+01 -0.11023354439E+02  0.13617873153E+03  0.15843782793E+03  0.79641960438E+02 0.  0.
          6    2    1    2  501    0 -0.30741282025E+02  0.26252679719E+02  0.12121333770E+04  0.12250126424E+04  0.17249469748E+03 0.  0.
         24    2    5    5    0    0 -0.87105979957E+02  0.30926758000E+01  0.79615388557E+03  0.80456717353E+03  0.76617953729E+02 0.  0.
          5    1    5    5  501    0  0.56364697932E+02  0.23160003919E+02  0.41597949146E+03  0.42044546884E+03  0.47000000000E+01 0. -1.
        -13    1    6    6    0    0 -0.36033530506E+02  0.39131919181E+02  0.39716432292E+03  0.40071089556E+03  0.00000000000E+00 0.  1.
         14    1    6    6    0    0 -0.51072449451E+02 -0.36039243381E+02  0.39898956265E+03  0.40385627797E+03  0.00000000000E+00 0. -1.
         -5    1    3    3    0  503  0.21069560785E+02 -0.15229325280E+02  0.53038672927E+03  0.53104428378E+03  0.47000000000E+01 0.  1.
         13    1    4    4    0    0 -0.24198605675E+02  0.18163635642E+02  0.86312929907E+02  0.91462626496E+02  0.00000000000E+00 0. -1.
        -14    1    4    4    0    0  0.33870326915E+02 -0.29186990081E+02  0.49865801621E+02  0.66975201430E+02  0.00000000000E+00 0.  1.
</event>
<event>
12    1  0.8052519E-002  0.2070084E+03  0.7818608E-02  0.1144114E+00
         21   -1    0    0  503  502  0.00000000000E+00  0.00000000000E+00  0.47103956545E+03  0.47103956545E+03  0.00000000000E+00 0.  1.
         21   -1    0    0  501  503 -0.00000000000E+00 -0.00000000000E+00 -0.17981195649E+03  0.17981195649E+03  0.00000000000E+00 0.  1.
          6    2    1    2  501    0  0.48369583712E+02  0.10352295486E+03 -0.83425925737E+02  0.22318687326E+03  0.17261482121E+03 0.  0.
         24    2    3    3    0    0  0.93020776244E+02  0.58594376768E+02 -0.28021726556E+02  0.13890151623E+03  0.80138930920E+02 0.  0.
         -6    2    1    2    0  502 -0.48369583712E+02 -0.10352295486E+03  0.37465353470E+03  0.42766464868E+03  0.17168331851E+03 0.  0.
        -24    2    5    5    0    0  0.13544628674E+02 -0.64258925309E+02  0.99575042028E+02  0.14294496049E+03  0.78774401215E+02 0.  0.
          5    1    3    3  501    0 -0.44651192532E+02  0.44928578090E+02 -0.55404199181E+02  0.84285357036E+02  0.47000000000E+01 0. -1.
        -13    1    4    4    0    0  0.59995556378E+02  0.68052975770E+02 -0.44214152922E+02  0.10092356323E+03  0.00000000000E+00 0.  1.
         14    1    4    4    0    0  0.33025219866E+02 -0.94585990021E+01  0.16192426366E+02  0.37977952998E+02  0.00000000000E+00 0. -1.
         -5    1    5    5    0  502 -0.61914212385E+02 -0.39264029548E+02  0.27507849267E+03  0.28471968819E+03  0.47000000000E+01 0.  1.
         11    1    6    6    0    0  0.17596500566E+02 -0.69591093150E+02  0.10952482257E+03  0.13095130331E+03  0.00000000000E+00 0. -1.
        -12    1    6    6    0    0 -0.40518718923E+01  0.53321678408E+01 -0.99497805458E+01  0.11993657183E+02  0.00000000000E+00 0.  1.
</event>
<event>
12    1  0.8052519E-002  0.2458377E+03  0.7818608E-02  0.1116013E+00
         21   -1    0    0  503  502  0.00000000000E+00  0.00000000000E+00  0.15220972812E+04  0.15220972812E+04  0.00000000000E+00 0. -1.
         21   -1    0    0  501  503 -0.00000000000E+00 -0.00000000000E+00 -0.56817206905E+02  0.56817206905E+02  0.00000000000E+00 0.  1.
          6    2    1    2  501    0  0.10370292704E+03 -0.13872171629E+03  0.29909455218E+03  0.38716108222E+03  0.17446529969E+03 0.  0.
         24    2    3    3    0    0  0.58649077585E+02 -0.14899258207E+03  0.15541875957E+03  0.23616385239E+03  0.77329622629E+02 0.  0.
         -6    2    1    2    0  502 -0.10370292704E+03  0.13872171629E+03  0.11661855222E+04  0.11917534059E+04  0.17403877960E+03 0.  0.
        -24    2    5    5    0    0 -0.61322911807E+02  0.16647185132E+03  0.92227297834E+03  0.94259170198E+03  0.80114251284E+02 0.  0.
          5    1    3    3  501    0  0.45053849458E+02  0.10270865779E+02  0.14367579261E+03  0.15099722983E+03  0.47000000000E+01 0. -1.
        -13    1    4    4    0    0  0.30543360581E+02 -0.28756679240E+02  0.60795705482E+01  0.42388732637E+02  0.00000000000E+00 0.  1.
         14    1    4    4    0    0  0.28105717004E+02 -0.12023590283E+03  0.14933918902E+03  0.19377511975E+03  0.00000000000E+00 0. -1.
         -5    1    5    5    0  502 -0.42380015236E+02 -0.27750135037E+02  0.24391254381E+03  0.24916170394E+03  0.47000000000E+01 0.  1.
         13    1    6    6    0    0  0.14164367151E+02  0.25424963592E+02  0.24289926251E+03  0.24463668939E+03  0.00000000000E+00 0. -1.
        -14    1    6    6    0    0 -0.75487278958E+02  0.14104688773E+03  0.67937371584E+03  0.69795501259E+03  0.00000000000E+00 0.  1.
</event>
<event>
12    1  0.8052519E-002  0.1831128E+03  0.7818608E-02  0.1165702E+00
         21   -1    0    0  501  502  0.00000000000E+00  0.00000000000E+00  0.41970840996E+03  0.41970840996E+03  0.00000000000E+00 0.  1.
         21   -1    0    0  502  503 -0.00000000000E+00 -0.00000000000E+00 -0.23810800366E+03  0.23810800366E+03  0.00000000000E+00 0.  1.
         -6    2    1    2    0  503  0.93811002070E+01  0.60456895649E+02 -0.17835119741E+03  0.25561579998E+03  0.17258982098E+03 0.  0.
        -24    2    3    3    0    0  0.30758367825E+02 -0.29883307810E+02 -0.64492119491E+02  0.10863172071E+03  0.76174326329E+02 0.  0.
          6    2    1    2  501    0 -0.93811002070E+01 -0.60456895649E+02  0.35995160372E+03  0.40220061364E+03  0.16869242817E+03 0.  0.
         24    2    5    5    0    0  0.33948057902E+02 -0.81323240116E+02  0.31222446756E+03  0.33428309160E+03  0.80592351817E+02 0.  0.
          5    1    5    5  501    0 -0.43329158109E+02  0.20866344467E+02  0.47727136156E+02  0.67917522036E+02  0.47000000000E+01 0. -1.
        -11    1    6    6    0    0  0.58688857233E+01 -0.81277917580E+02  0.16071830891E+03  0.18019688822E+03  0.00000000000E+00 0.  1.
         12    1    6    6    0    0  0.28079172178E+02 -0.45322536069E-01  0.15150615865E+03  0.15408620338E+03  0.00000000000E+00 0. -1.
         -5    1    3    3    0  503 -0.21377267618E+02  0.90340203459E+02 -0.11385907792E+03  0.14698407926E+03  0.47000000000E+01 0.  1.
         11    1    4    4    0    0  0.39628495526E+02  0.12309648587E+02 -0.18021966258E+02  0.45240870613E+02  0.00000000000E+00 0. -1.
        -12    1    4    4    0    0 -0.88701277007E+01 -0.42192956398E+02 -0.46470153233E+02  0.63390850101E+02  0.00000000000E+00 0.  1.
</event>
<event>
12    1  0.8052519E-002  0.1784169E+03  0.7818608E-02  0.1169658E+00
         21   -1    0    0  501  502  0.00000000000E+00  0.00000000000E+00  0.11653150822E+02  0.11653150822E+02  0.00000000000E+00 0. -1.
         21   -1    0    0  502  503 -0.00000000000E+00 -0.00000000000E+00 -0.37519540300E+04  0.37519540300E+04  0.00000000000E+00 0. -1.
         -6    2    1    2    0  503  0.44936925721E+02  0.96826235881E+01 -0.28656777813E+04  0.28712265209E+04  0.17239346787E+03 0.  0.
        -24    2    3    3    0    0  0.90678719279E+02 -0.26012384899E+01 -0.24552160507E+04  0.24580145569E+04  0.74298786369E+02 0.  0.
          6    2    1    2  501    0 -0.44936925721E+02 -0.96826235881E+01 -0.87462309786E+03  0.89238065987E+03  0.17106898700E+03 0.  0.
         24    2    5    5    0    0  0.31548268791E+02 -0.31574149469E+02 -0.34487873241E+03  0.35667513758E+03  0.79269120870E+02 0.  0.
          5    1    5    5  501    0 -0.76485194513E+02  0.21891525881E+02 -0.52974436545E+03  0.53570552229E+03  0.47000000000E+01 0. -1.
        -13    1    6    6    0    0 -0.13244774992E+02 -0.40501577625E+02 -0.12382133416E+03  0.13094855726E+03  0.00000000000E+00 0.  1.
         14    1    6    6    0    0  0.44793043783E+02  0.89274281564E+01 -0.22105739824E+03  0.22572658032E+03  0.00000000000E+00 0. -1.
         -5    1    3    3    0  503 -0.45741793558E+02  0.12283862078E+02 -0.41046173057E+03  0.41321196401E+03  0.47000000000E+01 0.  1.
         13    1    4    4    0    0  0.88891694294E+02 -0.26578811329E+02 -0.18588771685E+04  0.18611911493E+04  0.00000000000E+00 0. -1.
        -14    1    4    4    0    0  0.17870249858E+01  0.23977572839E+02 -0.59633888219E+03  0.59682340761E+03  0.00000000000E+00 0.  1.
</event>
<event>
12    1  0.8052519E-002  0.1985429E+03  0.7818608E-02  0.1151046E+00
         21   -1    0    0  501  502  0.00000000000E+00  0.00000000000E+00  0.24102949458E+03  0.24102949458E+03  0.00000000000E+00 0.  1.
         21   -1    0    0  502  503 -0.00000000000E+00 -0.00000000000E+00 -0.22540860877E+03  0.22540860877E+03  0.00000000000E+00 0.  1.
         -6    2    1    2    0  503 -0.99297457698E+02  0.47793541329E+01 -0.11463794068E+03  0.22926217085E+03  0.17186174155E+03 0.  0.
        -24    2    3    3    0    0 -0.90657682644E+02 -0.50844115264E+02 -0.11607731901E+03  0.17275749962E+03  0.74614142150E+02 0.  0.
          6    2    1    2  501    0  0.99297457698E+02 -0.47793541329E+01  0.13025882649E+03  0.23717593250E+03  0.17147079561E+03 0.  0.
         24    2    5    5    0    0  0.83039118953E+02 -0.66237236630E+02  0.75199465339E+02  0.15294394244E+03  0.80336935144E+02 0.  0.
          5    1    5    5  501    0  0.16258338745E+02  0.61457882497E+02  0.55059361148E+02  0.84231990062E+02  0.47000000000E+01 0. -1.
        -13    1    6    6    0    0  0.14443854282E+02  0.31071126253E+01  0.50091302416E+02  0.52224684328E+02  0.00000000000E+00 0.  1.
         14    1    6    6    0    0  0.68595264671E+02 -0.69344349255E+02  0.25108162923E+02  0.10071925811E+03  0.00000000000E+00 0. -1.
         -5    1    3    3    0  503 -0.86397750538E+01  0.55623469396E+02  0.14393783283E+01  0.56504671229E+02  0.47000000000E+01 0.  1.
         13    1    4    4    0    0 -0.13539147580E+01 -0.29180379675E+02 -0.68276664327E+01  0.29999077854E+02  0.00000000000E+00 0. -1.
        -14    1    4    4    0    0 -0.89303767886E+02 -0.21663735588E+02 -0.10924965258E+03  0.14275842177E+03  0.00000000000E+00 0.  1.
</event>
<event>
12    1  0.8052519E-002  0.3929393E+03  0.7818608E-02  0.1046266E+00
         21   -1    0    0  503  502  0.00000000000E+00  0.00000000000E+00  0.80937560832E+03  0.80937560832E+03  0.00000000000E+00 0. -1.
         21   -1    0    0  501  503 -0.00000000000E+00 -0.00000000000E+00 -0.19082960582E+03  0.19082960582E+03  0.00000000000E+00 0. -1.
          6    2    1    2  501    0 -0.35326620117E+03  0.28486466646E+01  0.32270169742E+03  0.50834637964E+03  0.17168148560E+03 0.  0.
         24    2    3    3    0    0 -0.30366534772E+03 -0.44060160397E+02  0.29927842376E+03  0.43601781964E+03  0.79937619264E+02 0.  0.
         -6    2    1    2    0  502  0.35326620117E+03 -0.28486466646E+01  0.29584430508E+03  0.49185883450E+03  0.17203527703E+03 0.  0.
        -24    2    5    5    0    0  0.10388603871E+03 -0.13011493782E+01  0.16599469137E+03  0.21065450956E+03  0.77634288870E+02 0.  0.
          5    1    3    3  501    0 -0.49600853454E+02  0.46908807062E+02  0.23423273659E+02  0.72328560004E+02  0.47000000000E+01 0. -1.
        -13    1    4    4    0    0 -0.18878845614E+02 -0.19308752851E+02  0.86280202710E+01  0.28349276572E+02  0.00000000000E+00 0.  1.
         14    1    4    4    0    0 -0.28478650211E+03 -0.24751407546E+02  0.29065040349E+03  0.40766854306E+03  0.00000000000E+00 0. -1.
         -5    1    5    5    0  502  0.24938016247E+03 -0.15474972864E+01  0.12984961371E+03  0.28120432494E+03  0.47000000000E+01 0.  1.
         11    1    6    6    0    0  0.10773726002E+03 -0.13550213274E+02  0.16532598149E+03  0.19779687973E+03  0.00000000000E+00 0. -1.
        -12    1    6    6    0    0 -0.38512213166E+01  0.12249063895E+02  0.66870988209E+00  0.12857629830E+02  0.00000000000E+00 0.  1.
</event>
<event>
12    1  0.8052519E-002  0.3618472E+03  0.7818608E-02  0.1057867E+00
         21   -1    0    0  501  502  0.00000000000E+00  0.00000000000E+00  0.28382970709E+03  0.28382970709E+03  0.00000000000E+00 0. -1.
         21   -1    0    0  502  503 -0.00000000000E+00 -0.00000000000E+00 -0.10018086141E+04  0.10018086141E+04  0.00000000000E+00 0.  1.
         -6    2    1    2    0  503 -0.31559521261E+03  0.44163697979E+02 -0.83124877385E+03  0.90659138613E+03  0.17141367197E+03 0.  0.
        -24    2    3    3    0    0 -0.60084550642E+02  0.40136791566E+02 -0.25436013910E+03  0.27562030814E+03  0.77758334822E+02 0.  0.
          6    2    1    2  501    0  0.31559521261E+03 -0.44163697979E+02  0.11326986686E+03  0.37904693504E+03  0.17116000053E+03 0.  0.
         24    2    5    5    0    0  0.18314561119E+03 -0.61644022778E+02  0.11832988887E+03  0.24527043301E+03  0.93879296271E+02 0.  0.
          5    1    5    5  501    0  0.13244960142E+03  0.17480324800E+02 -0.50600220084E+01  0.13377650203E+03  0.47000000000E+01 0. -1.
        -11    1    6    6    0    0  0.17145889231E+02 -0.13533703540E+02 -0.15414021493E+02  0.26734522768E+02  0.00000000000E+00 0.  1.
         12    1    6    6    0    0  0.16599972196E+03 -0.48110319238E+02  0.13374391037E+03  0.21853591024E+03  0.00000000000E+00 0. -1.
         -5    1    3    3    0  503 -0.25551066196E+03  0.40269064125E+01 -0.57688863475E+03  0.63097107798E+03  0.47000000000E+01 0.  1.
         13    1    4    4    0    0 -0.58505581632E+02  0.75682514507E+01 -0.87011219351E+02  0.10512437303E+03  0.00000000000E+00 0. -1.
        -14    1    4    4    0    0 -0.15789690099E+01  0.32568540116E+02 -0.16734891975E+03  0.17049593511E+03  0.00000000000E+00 0.  1.
</event>
<event>
12    1  0.8052519E-002  0.2466418E+03  0.7818608E-02  0.1115502E+00
         21   -1    0    0  501  502  0.00000000000E+00  0.00000000000E+00  0.71200371378E+02  0.71200371378E+02  0.00000000000E+00 0. -1.
         21   -1    0    0  502  503 -0.00000000000E+00 -0.00000000000E+00 -0.88401742055E+03  0.88401742055E+03  0.00000000000E+00 0. -1.
         -6    2    1    2    0  503 -0.91606641898E+02  0.15062240769E+03 -0.49535474836E+03  0.55320474359E+03  0.17198917139E+03 0.  0.
        -24    2    3    3    0    0 -0.97236243907E+02  0.15589283099E+03 -0.50278571177E+03  0.54150948824E+03  0.81741005734E+02 0.  0.
          6    2    1    2  501    0  0.91606641898E+02 -0.15062240769E+03 -0.31746230081E+03  0.40201304833E+03  0.17249142603E+03 0.  0.
         24    2    5    5    0    0  0.84903400766E+02 -0.70003442629E+02 -0.28421463716E+03  0.31442396164E+03  0.77300700100E+02 0.  0.
          5    1    5    5  501    0  0.67032411329E+01 -0.80618965060E+02 -0.33247663649E+02  0.87589086690E+02  0.47000000000E+01 0. -1.
        -11    1    6    6    0    0  0.25008078106E+02 -0.67992724403E+02 -0.12755013483E+03  0.14668827982E+03  0.00000000000E+00 0.  1.
         12    1    6    6    0    0  0.59895322660E+02 -0.20107182255E+01 -0.15666450233E+03  0.16773568182E+03  0.00000000000E+00 0. -1.
         -5    1    3    3    0  503  0.56296020084E+01 -0.52704233048E+01  0.74309634058E+01  0.11695255351E+02  0.47000000000E+01 0.  1.
         11    1    4    4    0    0 -0.73014221147E+02  0.14849384894E+03 -0.35629558423E+03  0.39284608055E+03  0.00000000000E+00 0. -1.
        -12    1    4    4    0    0 -0.24222022760E+02  0.73989820582E+01 -0.14649012753E+03  0.14866340769E+03  0.00000000000E+00 0.  1.
</event>
<event>
12    1  0.8052519E-002  0.1871032E+03  0.7818608E-02  0.1161205E+00
         21   -1    0    0  503  502  0.00000000000E+00  0.00000000000E+00  0.68493282144E+03  0.68493282144E+03  0.00000000000E+00 0.  1.
         21   -1    0    0  501  503 -0.00000000000E+00 -0.00000000000E+00 -0.13682248705E+03  0.13682248705E+03  0.00000000000E+00 0.  1.
          6    2    1    2  501    0 -0.27663671726E+02 -0.67151155197E+02 -0.51507382572E+02  0.19362394558E+03  0.17193796982E+03 0.  0.
         24    2    3    3    0    0 -0.36258095261E+02 -0.10090674434E+03 -0.73301280237E+02  0.15226735131E+03  0.79469793410E+02 0.  0.
         -6    2    1    2    0  502  0.27663671726E+02  0.67151155197E+02  0.59961771696E+03  0.62813136290E+03  0.17243272947E+03 0.  0.
        -24    2    5    5    0    0  0.24892296951E+02 -0.28784371720E+02  0.24208417860E+03  0.25791031151E+03  0.80404059300E+02 0.  0.
          5    1    3    3  501    0  0.85944235357E+01  0.33755589144E+02  0.21793897666E+02  0.41356594273E+02  0.47000000000E+01 0. -1.
        -11    1    4    4    0    0 -0.28831995793E+02 -0.35618570740E+02 -0.73432504662E+02  0.86558068971E+02  0.00000000000E+00 0.  1.
         12    1    4    4    0    0 -0.74260994685E+01 -0.65288173601E+02  0.13122442517E+00  0.65709282338E+02  0.00000000000E+00 0. -1.
         -5    1    5    5    0  502  0.27713747743E+01  0.95935526917E+02  0.35753353836E+03  0.37022105139E+03  0.47000000000E+01 0.  1.
         11    1    6    6    0    0  0.42567498771E+02 -0.16472009186E+01  0.20167398495E+03  0.20612399527E+03  0.00000000000E+00 0. -1.
        -12    1    6    6    0    0 -0.17675201819E+02 -0.27137170801E+02  0.40410193654E+02  0.51786316239E+02  0.00000000000E+00 0.  1.
</event>
<event>
12    1  0.8052519E-002  0.1825145E+03  0.7818608E-02  0.1165456E+00
         21   -1    0    0  503  502  0.00000000000E+00  0.00000000000E+00  0.36813687468E+02  0.36813687468E+02  0.00000000000E+00 0.  1.
         21   -1    0    0  501  503 -0.00000000000E+00 -0.00000000000E+00 -0.12478752204E+04  0.12478752204E+04  0.00000000000E+00 0.  1.
          6    2    1    2  501    0  0.41865107409E+02 -0.44154481086E+02 -0.94263657087E+03  0.96009145030E+03  0.17178353470E+03 0.  0.
         24    2    3    3    0    0  0.42856007311E+02 -0.59027769712E+02 -0.33027866143E+03  0.34753410944E+03  0.79843898129E+02 0.  0.
         -6    2    1    2    0  502 -0.41865107409E+02  0.44154481086E+02 -0.26842496202E+03  0.32459745752E+03  0.17207336742E+03 0.  0.
        -24    2    5    5    0    0 -0.60286407974E+02  0.47063781244E+02 -0.28018886913E+03  0.30205221740E+03  0.82947508484E+02 0.  0.
          5    1    3    3  501    0 -0.99089990256E+00  0.14873288625E+02 -0.61235790944E+03  0.61255734086E+03  0.47000000000E+01 0. -1.
        -13    1    4    4    0    0  0.27331659413E+02 -0.20802096591E+02 -0.28175766646E+03  0.28384349462E+03  0.00000000000E+00 0.  1.
         14    1    4    4    0    0  0.15524347899E+02 -0.38225673121E+02 -0.48520994967E+02  0.63690614817E+02  0.00000000000E+00 0. -1.
         -5    1    5    5    0  502  0.18421300565E+02 -0.29093001574E+01  0.11763907101E+02  0.22545240123E+02  0.47000000000E+01 0.  1.
         13    1    6    6    0    0 -0.42480677964E+02 -0.17162091582E+02 -0.12618020527E+03  0.13424078959E+03  0.00000000000E+00 0. -1.
        -14    1    6    6    0    0 -0.17805730010E+02  0.64225872826E+02 -0.15400866385E+03  0.16781142781E+03  0.00000000000E+00 0.  1.
</event>
<event>
12    1  0.8052519E-002  0.1820835E+03  0.7818608E-02  0.1166381E+00
         21   -1    0    0  503  502  0.00000000000E+00  0.00000000000E+00  0.11422203815E+02  0.11422203815E+02  0.00000000000E+00 0. -1.
         21   -1    0    0  501  503 -0.00000000000E+00 -0.00000000000E+00 -0.28945948587E+04  0.28945948587E+04  0.00000000000E+00 0. -1.
          6    2    1    2  501    0  0.15612057147E+02  0.50737002377E+02 -0.15998555000E+04  0.16101838469E+04  0.17417353518E+03 0.  0.
         24    2    3    3    0    0  0.68219888463E+02  0.17628907615E+02 -0.73273512759E+03  0.74082571585E+03  0.83410086317E+02 0.  0.
         -6    2    1    2    0  502 -0.15612057147E+02 -0.50737002377E+02 -0.12833171549E+04  0.12958332156E+04  0.17164737925E+03 0.  0.
        -24    2    5    5    0    0  0.27523879227E+02 -0.86099766047E+02 -0.74297448450E+03  0.75259889641E+03  0.78887772380E+02 0.  0.
          5    1    3    3  501    0 -0.52607831317E+02  0.33108094762E+02 -0.86712037241E+03  0.86935813109E+03  0.47000000000E+01 0. -1.
        -11    1    4    4    0    0  0.32214437364E+02  0.33757312237E+02 -0.61267820826E+03  0.61445253110E+03  0.00000000000E+00 0.  1.
         12    1    4    4    0    0  0.36005451099E+02 -0.16128404622E+02 -0.12005691933E+03  0.12637318475E+03  0.00000000000E+00 0. -1.
         -5    1    5    5    0  502 -0.43135936374E+02  0.35362763670E+02 -0.54034267042E+03  0.54323431918E+03  0.47000000000E+01 0.  1.
         11    1    6    6    0    0  0.41500741626E+02 -0.85235946952E+02 -0.71558194680E+03  0.72183446911E+03  0.00000000000E+00 0. -1.
        -12    1    6    6    0    0 -0.13976862399E+02 -0.86381909534E+00 -0.27392537692E+02  0.30764427301E+02  0.00000000000E+00 0.  1.
</event>
<event>
12    1  0.8052519E-002  0.2105629E+03  0.7818608E-02  0.1141606E+00
         21   -1    0    0  501  502  0.00000000000E+00  0.00000000000E+00  0.10488210439E+03  0.10488210439E+03  0.00000000000E+00 0. -1.
         21   -1    0    0  502  503 -0.00000000000E+00 -0.00000000000E+00 -0.46415896344E+03  0.46415896344E+03  0.00000000000E+00 0. -1.
         -6    2    1    2    0  503  0.64044385287E+02 -0.10223008910E+03 -0.27045778887E+03  0.34275960604E+03  0.17258058284E+03 0.  0.
        -24    2    3    3    0    0  0.35484720026E+02 -0.40619003713E+02 -0.44436933579E+02  0.10671067606E+03  0.80644023343E+02 0.  0.
          6    2    1    2  501    0 -0.64044385287E+02  0.10223008910E+03 -0.88819070186E+02  0.22628146179E+03  0.16959303735E+03 0.  0.
         24    2    5    5    0    0 -0.20005451312E+02  0.13098219725E+03 -0.76127597337E+02  0.17197423472E+03  0.78887085459E+02 0.  0.
          5    1    5    5  501    0 -0.44038933976E+02 -0.28752108152E+02 -0.12691472849E+02  0.54307227070E+02  0.47000000000E+01 0. -1.
        -11    1    6    6    0    0 -0.16613906770E+02  0.89629401256E+02 -0.90122965649E+02  0.12818580423E+03  0.00000000000E+00 0.  1.
         12    1    6    6    0    0 -0.33915445416E+01  0.41352795992E+02  0.13995368312E+02  0.43788430492E+02  0.00000000000E+00 0. -1.
         -5    1    3    3    0  503  0.28559665261E+02 -0.61611085383E+02 -0.22602085529E+03  0.23604892999E+03  0.47000000000E+01 0.  1.
         13    1    4    4    0    0  0.54902461649E+02 -0.43488789085E+02 -0.50294118880E+02  0.86226756086E+02  0.00000000000E+00 0. -1.
        -14    1    4    4    0    0 -0.19417741622E+02  0.28697853720E+01  0.58571853011E+01  0.20483919973E+02  0.00000000000E+00 0.  1.
</event>
<event>
12    1  0.8052519E-002  0.2024226E+03  0.7818608E-02  0.1147739E+00
         21   -1    0    0  503  502  0.00000000000E+00  0.00000000000E+00  0.41449119835E+02  0.41449119835E+02  0.00000000000E+00 0. -1.
         21   -1    0    0  501  503 -0.00000000000E+00 -0.00000000000E+00 -0.99567788550E+03  0.99567788550E+03  0.00000000000E+00 0.  1.
          6    2    1    2  501    0  0.95086614211E+02 -0.50791923623E+02 -0.52280423523E+03  0.56057477235E+03  0.17116811417E+03 0.  0.
         24    2    3    3    0    0  0.60493068296E+02 -0.98718453784E+02 -0.40606849006E+03  0.42964353119E+03  0.79354904312E+02 0.  0.
         -6    2    1    2    0  502 -0.95086614211E+02  0.50791923623E+02 -0.43142453043E+03  0.47655223299E+03  0.17132898645E+03 0.  0.
        -24    2    5    5    0    0 -0.44347233821E+02  0.27269643698E+02 -0.91430199130E+02  0.13195679237E+03  0.79641717239E+02 0.  0.
          5    1    3    3  501    0  0.34593545915E+02  0.47926530161E+02 -0.11673574517E+03  0.13093124116E+03  0.47000000000E+01 0. -1.
        -11    1    4    4    0    0  0.52216579529E+02 -0.11216209732E+03 -0.34306870215E+03  0.36469582071E+03  0.00000000000E+00 0.  1.
         12    1    4    4    0    0  0.82764887671E+01  0.13443643541E+02 -0.62999787917E+02  0.64947710472E+02  0.00000000000E+00 0. -1.
         -5    1    5    5    0  502 -0.50739380390E+02  0.23522279925E+02 -0.33999433130E+03  0.34459544061E+03  0.47000000000E+01 0.  1.
         11    1    6    6    0    0 -0.66003391229E+02  0.17495082722E+02 -0.51633387050E+02  0.85606846872E+02  0.00000000000E+00 0. -1.
        -12    1    6    6    0    0  0.21656157408E+02  0.97745609761E+01 -0.39796812081E+02  0.46349945499E+02  0.00000000000E+00 0.  1.
</event>
<event>
12    1  0.8052519E-002  0.2423553E+03  0.7818608E-02  0.1119346E+00
         21   -1    0    0  501  502  0.00000000000E+00  0.00000000000E+00  0.33334611393E+03  0.33334611393E+03  0.00000000000E+00 0. -1.
         21   -1    0    0  502  503 -0.00000000000E+00 -0.00000000000E+00 -0.10518774634E+04  0.10518774634E+04  0.00000000000E+00 0.  1.
         -6    2    1    2    0  503 -0.34413947793E+02 -0.16713030630E+03 -0.99211823160E+03  0.10197295571E+04  0.16258205650E+03 0.  0.
        -24    2    3    3    0    0 -0.83442351429E+02 -0.12989136361E+03 -0.73639644647E+03  0.75665875941E+03  0.80114664477E+02 0.  0.
          6    2    1    2  501    0  0.34413947793E+02  0.16713030630E+03  0.27358688213E+03  0.36549402022E+03  0.17210240456E+03 0.  0.
         24    2    5    5    0    0  0.36067708449E+02  0.12864711078E+02  0.10173382608E+03  0.13450447139E+03  0.79216797910E+02 0.  0.
          5    1    5    5  501    0 -0.16537606566E+01  0.15426559522E+03  0.17185305605E+03  0.23098954883E+03  0.47000000000E+01 0. -1.
        -13    1    6    6    0    0  0.21736495089E+02  0.38632194893E+02  0.21985558292E+02  0.49480162433E+02  0.00000000000E+00 0.  1.
         14    1    6    6    0    0  0.14331213360E+02 -0.25767483814E+02  0.79748267785E+02  0.85024308955E+02  0.00000000000E+00 0. -1.
         -5    1    3    3    0  503  0.49028403637E+02 -0.37238942695E+02 -0.25572178513E+03  0.26307079771E+03  0.47000000000E+01 0.  1.
         13    1    4    4    0    0 -0.67452972964E+02 -0.63019054432E+02 -0.27289039237E+03  0.28808066758E+03  0.00000000000E+00 0. -1.
        -14    1    4    4    0    0 -0.15989378466E+02 -0.66872309175E+02 -0.46350605410E+03  0.46857809183E+03  0.00000000000E+00 0.  1.
</event>
<event>
12    1  0.8052519E-002  0.2022389E+03  0.7818608E-02  0.1148237E+00
         21   -1    0    0  503  502  0.00000000000E+00  0.00000000000E+00  0.14323462637E+03  0.14323462637E+03  0.00000000000E+00 0.  1.
         21   -1    0    0  501  503 -0.00000000000E+00 -0.00000000000E+00 -0.30542282670E+03  0.30542282670E+03  0.00000000000E+00 0.  1.
          6    2    1    2  501    0 -0.54169375182E+02  0.90292076500E+02 -0.14216952008E+03  0.24720992856E+03  0.17266614044E+03 0.  0.
         24    2    3    3    0    0  0.28048738239E+02  0.76156059238E+02 -0.57274762483E+02  0.12809294813E+03  0.80876003046E+02 0.  0.
         -6    2    1    2    0  502  0.54169375182E+02 -0.90292076500E+02 -0.20018680249E+02  0.20144752451E+03  0.17056780847E+03 0.  0.
        -24    2    5    5    0    0 -0.15772760954E+02 -0.58806894014E+02  0.32998974189E+02  0.10808703605E+03  0.82987012798E+02 0.  0.
          5    1    3    3  501    0 -0.82218113421E+02  0.14136017262E+02 -0.84894757601E+02  0.11911698043E+03  0.47000000000E+01 0. -1.
        -13    1    4    4    0    0  0.48938496499E+02  0.16951600379E+02 -0.26255332077E+02  0.58066131759E+02  0.00000000000E+00 0.  1.
         14    1    4    4    0    0 -0.20889758260E+02  0.59204458858E+02 -0.31019430406E+02  0.70026816375E+02  0.00000000000E+00 0. -1.
         -5    1    5    5    0  502  0.69942136136E+02 -0.31485182486E+02 -0.53017654437E+02  0.93360488460E+02  0.47000000000E+01 0.  1.
         13    1    6    6    0    0 -0.32164026718E+01  0.21343920816E+02  0.41380056120E+01  0.21977972891E+02  0.00000000000E+00 0. -1.
        -14    1    6    6    0    0 -0.12556358282E+02 -0.80150814830E+02  0.28860968576E+02  0.86109063161E+02  0.00000000000E+00 0.  1.
</event>
<event>
12    1  0.8052519E-002  0.1824671E+03  0.7818608E-02  0.1167925E+00
         21   -1    0    0  503  502  0.00000000000E+00  0.00000000000E+00  0.95557181689E+02  0.95557181689E+02  0.00000000000E+00 0.  1.
         21   -1    0    0  501  503 -0.00000000000E+00 -0.00000000000E+00 -0.74936209694E+03  0.74936209694E+03  0.00000000000E+00 0.  1.
          6    2    1    2  501    0  0.92006041772E+01  0.17050454459E+02 -0.63902993876E+03  0.66185492709E+03  0.17122299133E+03 0.  0.
         24    2    3    3    0    0 -0.13597722358E+02  0.78725373268E+01 -0.13752019585E+03  0.15972136906E+03  0.79700919519E+02 0.  0.
         -6    2    1    2    0  502 -0.92006041772E+01 -0.17050454459E+02 -0.14774976490E+02  0.18306435154E+03  0.18143562980E+03 0.  0.
        -24    2    5    5    0    0 -0.71305680302E+02 -0.42534765450E+02 -0.40593090852E+01  0.11492180892E+03  0.79352617224E+02 0.  0.
          5    1    3    3  501    0  0.22798326535E+02  0.91779171323E+01 -0.50150974292E+03  0.50213355802E+03  0.47000000000E+01 0. -1.
        -13    1    4    4    0    0 -0.88836347316E+01  0.13801021401E+02 -0.14681593969E+03  0.14773052259E+03  0.00000000000E+00 0.  1.
         14    1    4    4    0    0 -0.47140876262E+01 -0.59284840746E+01  0.92957438420E+01  0.11990846473E+02  0.00000000000E+00 0. -1.
         -5    1    5    5    0  502  0.62105076124E+02  0.25484310991E+02 -0.10715667405E+02  0.68142542622E+02  0.47000000000E+01 0.  1.
         13    1    6    6    0    0 -0.39347925865E+02 -0.35426099759E+02 -0.39961378644E+02  0.66333849558E+02  0.00000000000E+00 0. -1.
        -14    1    6    6    0    0 -0.31957754436E+02 -0.71086656906E+01  0.35902069558E+02  0.48587959363E+02  0.00000000000E+00 0.  1.
</event>
<event>
12    1  0.8052519E-002  0.2120749E+03  0.7818608E-02  0.1140776E+00
         21   -1    0    0  501  502  0.00000000000E+00  0.00000000000E+00  0.37129666815E+03  0.37129666815E+03  0.00000000000E+00 0. -1.
         21   -1    0    0  502  503 -0.00000000000E+00 -0.00000000000E+00 -0.12951058497E+03  0.12951058497E+03  0.00000000000E+00 0.  1.
         -6    2    1    2    0  503 -0.12296266700E+03  0.41430231419E+01  0.19208309097E+03  0.28298589946E+03  0.16747573954E+03 0.  0.
        -24    2    3    3    0    0 -0.24421719265E+02  0.39727998575E+02  0.53761875149E+02  0.10940174809E+03  0.83088320620E+02 0.  0.
          6    2    1    2  501    0  0.12296266700E+03 -0.41430231419E+01  0.49702992209E+02  0.21782135366E+03  0.17273903022E+03 0.  0.
         24    2    5    5    0    0  0.60423836984E+02  0.38735840387E+02 -0.24680778291E+02  0.11149761449E+03  0.81676629546E+02 0.  0.
          5    1    5    5  501    0  0.62538830018E+02 -0.42878863529E+02  0.74383770500E+02  0.10632373917E+03  0.47000000000E+01 0. -1.
        -13    1    6    6    0    0  0.30423388033E+02 -0.24704855467E+00 -0.48180279606E+02  0.56982303528E+02  0.00000000000E+00 0.  1.
         14    1    6    6    0    0  0.30000448951E+02  0.38982888942E+02  0.23499501315E+02  0.54515310965E+02  0.00000000000E+00 0. -1.
         -5    1    3    3    0  503 -0.98540947737E+02 -0.35584975434E+02  0.13832121583E+03  0.17358415136E+03  0.47000000000E+01 0.  1.
         13    1    4    4    0    0 -0.38478387252E+02  0.46433971304E+01  0.59664624775E+02  0.71147838140E+02  0.00000000000E+00 0. -1.
        -14    1    4    4    0    0  0.14056667987E+02  0.35084601445E+02 -0.59027496262E+01  0.38253909952E+02  0.00000000000E+00 0.  1.
</event>
<event>
12    1  0.8052519E-002  0.2360230E+03  0.7818608E-02  0.1122596E+00
         21   -1    0    0  501  502  0.00000000000E+00  0.00000000000E+00  0.11371203046E+03  0.11371203046E+03  0.00000000000E+00 0.  1.
         21   -1    0    0  502  503 -0.00000000000E+00 -0.00000000000E+00 -0.78468793474E+03  0.78468793474E+03  0.00000000000E+00 0.  1.
         -6    2    1    2    0  503 -0.13769151206E+03 -0.82021572330E+02 -0.61120078362E+03  0.65492528703E+03  0.17226213419E+03 0.  0.
        -24    2    3    3    0    0 -0.37396142512E+02  0.60343146875E+01 -0.35749589684E+03  0.36821766599E+03  0.79662091721E+02 0.  0.
          6    2    1    2  501    0  0.13769151206E+03  0.82021572330E+02 -0.59775120660E+02  0.24347467817E+03  0.17326385382E+03 0.  0.
         24    2    5    5    0    0  0.12010669047E+03  0.68027456260E+02 -0.10627031360E+03  0.19161955113E+03  0.79820554497E+02 0.  0.
          5    1    5    5  501    0  0.17584821584E+02  0.13994116070E+02  0.46495192938E+02  0.51855127047E+02  0.47000000000E+01 0. -1.
        -13    1    6    6    0    0  0.89606021122E+02  0.79965424153E+02 -0.58216651025E+02  0.13346492625E+03  0.00000000000E+00 0.  1.
         14    1    6    6    0    0  0.30500669349E+02 -0.11937967894E+02 -0.48053662573E+02  0.58154624880E+02  0.00000000000E+00 0. -1.
         -5    1    3    3    0  503 -0.10029536954E+03 -0.88055887018E+02 -0.25370488677E+03  0.28670762104E+03  0.47000000000E+01 0.  1.
         11    1    4    4    0    0 -0.27311572776E+02  0.17226424327E+02 -0.45149156772E+02  0.55507819808E+02  0.00000000000E+00 0. -1.
        -12    1    4    4    0    0 -0.10084569736E+02 -0.11192109639E+02 -0.31234674007E+03  0.31270984618E+03  0.00000000000E+00 0.  1.
</event>
<event>
12    1  0.8052519E-002  0.2170198E+03  0.7818608E-02  0.1138056E+00
         21   -1    0    0  501  502  0.00000000000E+00  0.00000000000E+00  0.12170486561E+03  0.12170486561E+03  0.00000000000E+00 0.  1.
         21   -1    0    0  502  503 -0.00000000000E+00 -0.00000000000E+00 -0.47211053933E+03  0.47211053933E+03  0.00000000000E+00 0. -1.
         -6    2    1    2    0  503  0.10210086641E+03  0.82215587190E+02 -0.31681963423E+03  0.38402120322E+03  0.17295552662E+03 0.  0.
        -24    2    3    3    0    0  0.64319306923E+02  0.12329528344E+03 -0.24981626008E+03  0.29669119790E+03  0.79238897943E+02 0.  0.
          6    2    1    2  501    0 -0.10210086641E+03 -0.82215587190E+02 -0.33586039494E+02  0.20979420173E+03  0.16031717105E+03 0.  0.
         24    2    5    5    0    0 -0.90105900076E+02 -0.23609980381E+02  0.22649726519E+02  0.12755645039E+03  0.84149471313E+02 0.  0.
          5    1    5    5  501    0 -0.11994966337E+02 -0.58605606809E+02 -0.56235766013E+02  0.82237751343E+02  0.47000000000E+01 0. -1.
        -11    1    6    6    0    0 -0.40615305021E+02 -0.32427477287E+02 -0.25549314253E+02  0.57912966975E+02  0.00000000000E+00 0.  1.
         12    1    6    6    0    0 -0.49490595056E+02  0.88174969056E+01  0.48199040772E+02  0.69643483414E+02  0.00000000000E+00 0. -1.
         -5    1    3    3    0  503  0.37781559490E+02 -0.41079696254E+02 -0.67003374147E+02  0.87330005318E+02  0.47000000000E+01 0.  1.
         11    1    4    4    0    0  0.33325655095E+02  0.88160307574E+02 -0.90632486382E+02  0.13075582858E+03  0.00000000000E+00 0. -1.
        -12    1    4    4    0    0  0.30993651828E+02  0.35134975870E+02 -0.15918377370E+03  0.16593536932E+03  0.00000000000E+00 0.  1.
</event>
<event>
12    1  0.8052519E-002  0.1946169E+03  0.7818608E-02  0.1154569E+00
         21   -1    0    0  503  502  0.00000000000E+00  0.00000000000E+00  0.25567140312E+03  0.25567140312E+03  0.00000000000E+00 0.  1.
         21   -1    0    0  501  503 -0.00000000000E+00 -0.00000000000E+00 -0.16118016841E+03  0.16118016841E+03  0.00000000000E+00 0.  1.
          6    2    1    2  501    0  0.88099696967E+02 -0.24384846224E+01 -0.13541875986E+02  0.19508746033E+03  0.17351723822E+03 0.  0.
         24    2    3    3    0    0  0.84956194133E+02  0.20144098435E+02  0.49117548041E+02  0.12824325275E+03  0.80065340364E+02 0.  0.
         -6    2    1    2    0  502 -0.88099696967E+02  0.24384846224E+01  0.10803311069E+03  0.22176411120E+03  0.17245482075E+03 0.  0.
        -24    2    5    5    0    0 -0.11840276846E+03 -0.31691660937E+02  0.62190099441E+02  0.15690414930E+03  0.75681745798E+02 0.  0.
          5    1    3    3  501    0  0.31435028342E+01 -0.22582583057E+02 -0.62659424027E+02  0.66844207580E+02  0.47000000000E+01 0. -1.
        -13    1    4    4    0    0  0.19421308188E+01  0.31367322154E+02  0.58977646732E+00  0.31432922351E+02  0.00000000000E+00 0.  1.
         14    1    4    4    0    0  0.83014063314E+02 -0.11223223719E+02  0.48527771574E+02  0.96810330402E+02  0.00000000000E+00 0. -1.
         -5    1    5    5    0  502  0.30303071491E+02  0.34130145560E+02  0.45843011251E+02  0.64859961904E+02  0.47000000000E+01 0.  1.
         13    1    6    6    0    0 -0.77865309573E+02 -0.26278700386E+02 -0.34773619055E+00  0.82180882505E+02  0.00000000000E+00 0. -1.
        -14    1    6    6    0    0 -0.40537458885E+02 -0.54129605516E+01  0.62537835631E+02  0.74723266793E+02  0.00000000000E+00 0.  1.
</event>
<event>
12    1  0.8052519E-002  0.2054554E+03  0.7818608E-02  0.1146602E+00
         21   -1    0    0  503  502  0.00000000000E+00  0.00000000000E+00  0.11037312149E+03  0.11037312149E+03  0.00000000000E+00 0.  1.
         21   -1    0    0  501  503 -0.00000000000E+00 -0.00000000000E+00 -0.46760968586E+03  0.46760968586E+03  0.00000000000E+00 0. -1.
          6    2    1    2  501    0 -0.69314520609E+02  0.88354472987E+02 -0.44335293571E+02  0.20365793948E+03  0.16401195808E+03 0.  0.
         24    2    3    3    0    0 -0.15424097404E+02 -0.57481907145E+01  0.11196178355E+02  0.81734506934E+02  0.79273140072E+02 0.  0.
         -6    2    1    2    0  502  0.69314520609E+02 -0.88354472987E+02 -0.31290127080E+03  0.37432486787E+03  0.17204907956E+03 0.  0.
        -24    2    5    5    0    0  0.38708130210E+02 -0.49578710357E+02 -0.64617701243E+02  0.12113100576E+03  0.80875863996E+02 0.  0.
          5    1    3    3  501    0 -0.53890423205E+02  0.94102663701E+02 -0.55531471927E+02  0.12192343254E+03  0.47000000000E+01 0. -1.
        -11    1    4    4    0    0  0.27504143687E+02  0.44696445363E+01  0.22915434681E+02  0.36077316819E+02  0.00000000000E+00 0.  1.
         12    1    4    4    0    0 -0.42928241091E+02 -0.10217835251E+02 -0.11719256326E+02  0.45657190115E+02  0.00000000000E+00 0. -1.
         -5    1    5    5    0  502  0.30606390399E+02 -0.38775762630E+02 -0.24828356956E+03  0.25319386212E+03  0.47000000000E+01 0.  1.
         13    1    6    6    0    0  0.30030725932E+02 -0.51901138471E+02 -0.81987926928E+02  0.10157555236E+03  0.00000000000E+00 0. -1.
        -14    1    6    6    0    0  0.86774042788E+01  0.23224281144E+01  0.17370225686E+02  0.19555453401E+02  0.00000000000E+00 0.  1.
</event>
<event>
12    1  0.8052519E-002  0.2062966E+03  0.7818608E-02  0.1144661E+00
         21   -1    0    0  501  502  0.00000000000E+00  0.00000000000E+00  0.62580171923E+03  0.62580171923E+03  0.00000000000E+00 0. -1.
         21   -1    0    0  502  503 -0.00000000000E+00 -0.00000000000E+00 -0.18004219572E+03  0.18004219572E+03  0.00000000000E+00 0. -1.
         -6    2    1    2    0  503 -0.91645536671E+02 -0.66012554587E+02 -0.95130021649E+02  0.22717396226E+03  0.17263176519E+03 0.  0.
        -24    2    3    3    0    0 -0.11067732351E+03 -0.46778373908E+02 -0.17543859517E+02  0.14487046798E+03  0.79006197740E+02 0.  0.
          6    2    1    2  501    0  0.91645536671E+02  0.66012554587E+02  0.54088954517E+03  0.57866995269E+03  0.17187452494E+03 0.  0.
         24    2    5    5    0    0  0.18854320875E+02 -0.16746424837E+02  0.16300270591E+03  0.18500999402E+03  0.83802670573E+02 0.  0.
          5    1    5    5  501    0  0.72791215796E+02  0.82758979424E+02  0.37788683926E+03  0.39365995867E+03  0.47000000000E+01 0. -1.
        -11    1    6    6    0    0  0.47676659045E+02  0.89731876493E+01  0.82206417928E+02  0.95454057341E+02  0.00000000000E+00 0.  1.
         12    1    6    6    0    0 -0.28822338170E+02 -0.25719612487E+02  0.80796287977E+02  0.89555936682E+02  0.00000000000E+00 0. -1.
         -5    1    3    3    0  503  0.19031786835E+02 -0.19234180679E+02 -0.77586162131E+02  0.82303494280E+02  0.47000000000E+01 0.  1.
         11    1    4    4    0    0 -0.28494960231E+02 -0.25592179618E+01 -0.39717537386E+02  0.48948903268E+02  0.00000000000E+00 0. -1.
        -12    1    4    4    0    0 -0.82182363275E+02 -0.44219155946E+02  0.22173677869E+02  0.95921564709E+02  0.00000000000E+00 0.  1.
</event>
<event>
12    1  0.8052519E-002  0.1796994E+03  0.7818608E-02  0.1168240E+00
         21   -1    0    0  501  502  0.00000000000E+00  0.00000000000E+00  0.74363996840E+03  0.74363996840E+03  0.00000000000E+00 0. -1.
         21   -1    0    0  502  503 -0.00000000000E+00 -0.00000000000E+00 -0.51445379334E+02  0.51445379334E+02  0.00000000000E+00 0. -1.
         -6    2    1    2    0  503  0.27836329689E+02 -0.41982318213E+02  0.18722001750E+03  0.25908983601E+03  0.17186864717E+03 0.  0.
        -24    2    3    3    0    0  0.81369692224E+02 -0.21505037144E+02  0.93082413868E+02  0.14877610903E+03  0.79915589285E+02 0.  0.
          6    2    1    2  501    0 -0.27836329689E+02  0.41982318213E+02  0.50497457157E+03  0.53599551172E+03  0.17249491111E+03 0.  0.
         24    2    5    5    0    0 -0.15495775481E+02 -0.22825240095E+02  0.41891595367E+03  0.42745757086E+03  0.80425667553E+02 0.  0.
          5    1    5    5  501    0 -0.12340554208E+02  0.64807558308E+02  0.86058617898E+02  0.10853794086E+03  0.47000000000E+01 0. -1.
        -11    1    6    6    0    0 -0.30598094732E+02  0.15365726295E+02  0.29345873788E+03  0.29544945386E+03  0.00000000000E+00 0.  1.
         12    1    6    6    0    0  0.15102319251E+02 -0.38190966390E+02  0.12545721579E+03  0.13200811700E+03  0.00000000000E+00 0. -1.
         -5    1    3    3    0  503 -0.53533362535E+02 -0.20477281069E+02  0.94137603628E+02  0.11031372698E+03  0.47000000000E+01 0.  1.
         11    1    4    4    0    0  0.14014808987E+02 -0.27054634718E+02  0.71676793635E+02  0.77884086157E+02  0.00000000000E+00 0. -1.
        -12    1    4    4    0    0  0.67354883237E+02  0.55495975747E+01  0.21405620233E+02  0.70892022871E+02  0.00000000000E+00 0.  1.
</event>
<event>
12    1  0.8052519E-002  0.2385261E+03  0.7818608E-02  0.1122231E+00
         21   -1    0    0  503  502  0.00000000000E+00  0.00000000000E+00  0.32772281109E+02  0.32772281109E+02  0.00000000000E+00 0.  1.
         21   -1    0    0  501  503 -0.00000000000E+00 -0.00000000000E+00 -0.19605200864E+04  0.19605200864E+04  0.00000000000E+00 0.  1.
          6    2    1    2  501    0 -0.97334775804E+02 -0.11899818974E+03 -0.13293475500E+04  0.13491048513E+04  0.17112674659E+03 0.  0.
         24    2    3    3    0    0 -0.79094616406E+02 -0.70981943880E+02 -0.47899244817E+03  0.49718692540E+03  0.80415661927E+02 0.  0.
         -6    2    1    2    0  502  0.97334775804E+02  0.11899818974E+03 -0.59840025532E+03  0.64418751623E+03  0.18237341569E+03 0.  0.
        -24    2    5    5    0    0  0.13043933780E+03  0.51599106113E+02 -0.36948888826E+03  0.40322890470E+03  0.79966383199E+02 0.  0.
          5    1    3    3  501    0 -0.18240159399E+02 -0.48016245862E+02 -0.85035510185E+03  0.85191792593E+03  0.47000000000E+01 0. -1.
        -13    1    4    4    0    0 -0.10676247093E+02 -0.62924591404E+02 -0.25308806746E+03  0.26101160194E+03  0.00000000000E+00 0.  1.
         14    1    4    4    0    0 -0.68418369313E+02 -0.80573524754E+01 -0.22590438070E+03  0.23617532346E+03  0.00000000000E+00 0. -1.
         -5    1    5    5    0  502 -0.33104561994E+02  0.67399083629E+02 -0.22891136706E+03  0.24095861153E+03  0.47000000000E+01 0.  1.
         11    1    6    6    0    0  0.13906714858E+02 -0.12607681827E+02 -0.11029179098E+03  0.11187774362E+03  0.00000000000E+00 0. -1.
        -12    1    6    6    0    0  0.11653262294E+03  0.64206787940E+02 -0.25919709728E+03  0.29135116109E+03  0.00000000000E+00 0.  1.
</event>
<event>
12    1  0.8052519E-002  0.1741677E+03  0.7818608E-02  0.1175021E+00
         21   -1    0    0  503  502  0.00000000000E+00  0.00000000000E+00  0.66308107270E+03  0.66308107270E+03  0.00000000000E+00 0. -1.
         21   -1    0    0  501  503 -0.00000000000E+00 -0.00000000000E+00 -0.80090334280E+02  0.80090334280E+02  0.00000000000E+00 0. -1.
          6    2    1    2  501    0  0.26472238752E+02 -0.11020083104E+02  0.45689394061E+02  0.18006088646E+03  0.17179109536E+03 0.  0.
         24    2    3    3    0    0  0.25264193234E+02 -0.35228029389E+02  0.90897735942E+02  0.12855003117E+03  0.79896299035E+02 0.  0.
         -6    2    1    2    0  502 -0.26472238752E+02  0.11020083104E+02  0.53730134436E+03  0.56311052052E+03  0.16606776332E+03 0.  0.
        -24    2    5    5    0    0 -0.33857473680E+02  0.14765511360E+02  0.54425845732E+03  0.55131809292E+03  0.79812419879E+02 0.  0.
          5    1    3    3  501    0  0.12080455175E+01  0.24207946285E+02 -0.45208341880E+02  0.51510855292E+02  0.47000000000E+01 0. -1.
        -13    1    4    4    0    0 -0.21362002041E+02 -0.33851418112E+02  0.61609634557E+02  0.73471087576E+02  0.00000000000E+00 0.  1.
         14    1    4    4    0    0  0.46626195275E+02 -0.13766112778E+01  0.29288101385E+02  0.55078943591E+02  0.00000000000E+00 0. -1.
         -5    1    5    5    0  502  0.73852349287E+01 -0.37454282556E+01 -0.69571129664E+01  0.11792427596E+02  0.47000000000E+01 0.  1.
         13    1    6    6    0    0 -0.15490232973E+02  0.37781331832E+02  0.13596773785E+03  0.14196690491E+03  0.00000000000E+00 0. -1.
        -14    1    6    6    0    0 -0.18367240708E+02 -0.23015820472E+02  0.40829071947E+03  0.40935118802E+03  0.00000000000E+00 0.  1.
</event>
<event>
12    1  0.8052519E-002  0.1758311E+03  0.7818608E-02  0.1172301E+00
         21   -1    0    0  503  502  0.00000000000E+00  0.00000000000E+00  0.15608928606E+03  0.15608928606E+03  0.00000000000E+00 0. -1.
         21   -1    0    0  501  503 -0.00000000000E+00 -0.00000000000E+00 -0.24628863734E+03  0.24628863734E+03  0.00000000000E+00 0. -1.
          6    2    1    2  501    0 -0.32107707626E+02  0.14039983871E+02 -0.13559961314E+03  0.22078010552E+03  0.17067095205E+03 0.  0.
         24    2    3    3    0    0  0.28883973796E-01 -0.31352803584E+02 -0.14033074185E+02  0.87012474661E+02  0.79945259075E+02 0.  0.
         -6    2    1    2    0  502  0.32107707626E+02 -0.14039983871E+02  0.45400261863E+02  0.18159781788E+03  0.17230367856E+03 0.  0.
        -24    2    5    5    0    0 -0.29051164786E+02  0.27340601340E+02 -0.55152521897E+01  0.91780001838E+02  0.82472250325E+02 0.  0.
          5    1    3    3  501    0 -0.32136591600E+02  0.45392787455E+02 -0.12156653895E+03  0.13376763086E+03  0.47000000000E+01 0. -1.
        -13    1    4    4    0    0 -0.18148457330E+02 -0.22252450750E+02  0.28134601655E+02  0.40200670120E+02  0.00000000000E+00 0.  1.
         14    1    4    4    0    0  0.18177341303E+02 -0.91003528339E+01 -0.42167675840E+02  0.46811804540E+02  0.00000000000E+00 0. -1.
         -5    1    5    5    0  502  0.61158872412E+02 -0.41380585211E+02  0.50915514053E+02  0.89817816041E+02  0.47000000000E+01 0.  1.
         11    1    6    6    0    0 -0.75523920991E+01  0.14199202521E+02  0.38130310470E+02  0.41383288356E+02  0.00000000000E+00 0. -1.
        -12    1    6    6    0    0 -0.21498772687E+02  0.13141398819E+02 -0.43645562659E+02  0.50396713482E+02  0.00000000000E+00 0.  1.
</event>
<event>
12    1  0.8052519E-002  0.2730195E+03  0.7818608E-02  0.1099691E+00
         21   -1    0    0  501  502  0.00000000000E+00  0.00000000000E+00  0.51588767338E+03  0.51588767338E+03  0.00000000000E+00 0. -1.
         21   -1    0    0  502  503 -0.00000000000E+00 -0.00000000000E+00 -0.16662114050E+03  0.16662114050E+03  0.00000000000E+00 0.  1.
         -6    2    1    2    0  503  0.18345125625E+03 -0.10450523979E+03  0.48672649463E+02  0.27643451090E+03  0.17167208116E+03 0.  0.
        -24    2    3    3    0    0  0.27367400959E+02 -0.74553975515E+02  0.15854081869E+02  0.11408181923E+03  0.80349484547E+02 0.  0.
          6    2    1    2  501    0 -0.18345125625E+03  0.10450523979E+03  0.30059388342E+03  0.40607430298E+03  0.17310097696E+03 0.  0.
         24    2    5    5    0    0 -0.14129299524E+03  0.14174263407E+03  0.22586842543E+03  0.31242641685E+03  0.80864303143E+02 0.  0.
          5    1    5    5  501    0 -0.42158261003E+02 -0.37237394279E+02  0.74725457992E+02  0.93647886125E+02  0.47000000000E+01 0. -1.
        -11    1    6    6    0    0 -0.88238010664E+02  0.54957124821E+02  0.66633104328E+02  0.12347551452E+03  0.00000000000E+00 0.  1.
         12    1    6    6    0    0 -0.53054984581E+02  0.86785509251E+02  0.15923532110E+03  0.18895090233E+03  0.00000000000E+00 0. -1.
         -5    1    3    3    0  503  0.15608385529E+03 -0.29951264277E+02  0.32818567594E+02  0.16235269167E+03  0.47000000000E+01 0.  1.
         13    1    4    4    0    0 -0.22515741106E+02 -0.11498543470E+02 -0.13289366078E+02  0.28561903827E+02  0.00000000000E+00 0. -1.
        -14    1    4    4    0    0  0.49883142064E+02 -0.63055432045E+02  0.29143447947E+02  0.85519915405E+02  0.00000000000E+00 0.  1.
</event>
<event>
12    1  0.8052519E-002  0.1929093E+03  0.7818608E-02  0.1156143E+00
         21   -1    0    0  503  502  0.00000000000E+00  0.00000000000E+00  0.87320887598E+03  0.87320887598E+03  0.00000000000E+00 0.  1.
         21   -1    0    0  501  503 -0.00000000000E+00 -0.00000000000E+00 -0.47780698774E+02  0.47780698774E+02  0.00000000000E+00 0.  1.
          6    2    1    2  501    0 -0.73387027276E+02 -0.43679500721E+02  0.25851739043E+03  0.32256047013E+03  0.17297531957E+03 0.  0.
         24    2    3    3    0    0 -0.27918495344E+02 -0.43005691895E+02  0.25972905064E+03  0.27682864822E+03  0.80907285302E+02 0.  0.
         -6    2    1    2    0  502  0.73387027276E+02  0.43679500721E+02  0.56691078678E+03  0.59842910463E+03  0.17156922377E+03 0.  0.
        -24    2    5    5    0    0 -0.16461201450E+00  0.77600211787E+01  0.43988594314E+03  0.44724228790E+03  0.80410049633E+02 0.  0.
          5    1    3    3  501    0 -0.45468531932E+02 -0.67380882599E+00 -0.12116602061E+01  0.45731821906E+02  0.47000000000E+01 0. -1.
        -13    1    4    4    0    0 -0.34826391510E+02 -0.14753444829E+02  0.23677639801E+03  0.23977823991E+03  0.00000000000E+00 0.  1.
         14    1    4    4    0    0  0.69078961661E+01 -0.28252247065E+02  0.22952652631E+02  0.37050408317E+02  0.00000000000E+00 0. -1.
         -5    1    5    5    0  502  0.73551639291E+02  0.35919479542E+02  0.12702484363E+03  0.15118681673E+03  0.47000000000E+01 0.  1.
         13    1    6    6    0    0 -0.35461849818E+02  0.22781995046E+02  0.24859316691E+03  0.25214108100E+03  0.00000000000E+00 0. -1.
        -14    1    6    6    0    0  0.35297237804E+02 -0.15021973867E+02  0.19129277623E+03  0.19510120690E+03  0.00000000000E+00 0.  1.
</event>
<event>
12    1  0.8052519E-002  0.2578440E+03  0.7818608E-02  0.1108462E+00
         21   -1    0    0  503  502  0.00000000000E+00  0.00000000000E+00  0.53091625055E+03  0.53091625055E+03  0.00000000000E+00 0. -1.
         21   -1    0    0  501  503 -0.00000000000E+00 -0.00000000000E+00 -0.17192316454E+03  0.17192316454E+03  0.00000000000E+00 0. -1.
          6    2    1    2  501    0  0.24266361422E+01  0.19162742713E+03 -0.37315887240E+01  0.25787101296E+03  0.17250094255E+03 0.  0.
         24    2    3    3    0    0 -0.14096560233E+02  0.16299042274E+03 -0.60785437216E+02  0.19176257427E+03  0.79457061343E+02 0.  0.
         -6    2    1    2    0  502 -0.24266361422E+01 -0.19162742713E+03  0.36272467474E+03  0.44496840212E+03  0.17233899685E+03 0.  0.
        -24    2    5    5    0    0  0.55121505534E+02 -0.14974830880E+03  0.30331799663E+03  0.35214118324E+03  0.80862039864E+02 0.  0.
          5    1    3    3  501    0  0.16523196375E+02  0.28637004390E+02  0.57053848492E+02  0.66108438695E+02  0.47000000000E+01 0. -1.
        -11    1    4    4    0    0 -0.21959552162E+01  0.12709746456E+03 -0.87215783679E+01  0.12741528027E+03  0.00000000000E+00 0.  1.
         12    1    4    4    0    0 -0.11900605016E+02  0.35892958176E+02 -0.52063858848E+02  0.64347293996E+02  0.00000000000E+00 0. -1.
         -5    1    5    5    0  502 -0.57548141677E+02 -0.41879118327E+02  0.59406678107E+02  0.92827218885E+02  0.47000000000E+01 0.  1.
         11    1    6    6    0    0  0.30162752806E+02 -0.13561508761E+03  0.19077522371E+03  0.23600091022E+03  0.00000000000E+00 0. -1.
        -12    1    6    6    0    0  0.24958752729E+02 -0.14133221188E+02  0.11254277292E+03  0.11614027301E+03  0.00000000000E+00 0.  1.
</event>
<event>
12    1  0.8052519E-002  0.2087765E+03  0.7818608E-02  0.1143893E+00
         21   -1    0    0  503  502  0.00000000000E+00  0.00000000000E+00  0.84286222100E+02  0.84286222100E+02  0.00000000000E+00 0.  1.
         21   -1    0    0  501  503 -0.00000000000E+00 -0.00000000000E+00 -0.68342426657E+03  0.68342426657E+03  0.00000000000E+00 0. -1.
          6    2    1    2  501    0 -0.87430424710E+02  0.67086036641E+02 -0.50156920249E+03  0.54328563475E+03  0.17732174306E+03 0.  0.
         24    2    3    3    0    0 -0.11228312263E+02  0.21157227035E+02 -0.88773292689E+02  0.12098388168E+03  0.78630139771E+02 0.  0.
         -6    2    1    2    0  502  0.87430424710E+02 -0.67086036641E+02 -0.97568841978E+02  0.22442485392E+03  0.16941729739E+03 0.  0.
        -24    2    5    5    0    0  0.62117515717E+02  0.22090182200E+02 -0.72576007567E+02  0.12830059507E+03  0.82747833273E+02 0.  0.
          5    1    3    3  501    0 -0.76202112447E+02  0.45928809605E+02 -0.41279590980E+03  0.42230175306E+03  0.47000000000E+01 0. -1.
        -11    1    4    4    0    0 -0.42187156578E+02  0.26679460102E+02 -0.45880480605E+02  0.67797996076E+02  0.00000000000E+00 0.  1.
         12    1    4    4    0    0  0.30958844315E+02 -0.55222330665E+01 -0.42892812084E+02  0.53185885607E+02  0.00000000000E+00 0. -1.
         -5    1    5    5    0  502  0.25312908992E+02 -0.89176218841E+02 -0.24992834411E+02  0.96124258854E+02  0.47000000000E+01 0.  1.
         11    1    6    6    0    0 -0.17587934392E+02  0.34744174140E+01 -0.32611681016E+02  0.37214630876E+02  0.00000000000E+00 0. -1.
        -12    1    6    6    0    0  0.79705450110E+02  0.18615764786E+02 -0.39964326551E+02  0.91085964190E+02  0.00000000000E+00 0.  1.
</event>
<event>
12    1  0.8052519E-002  0.1746811E+03  0.7818608E-02  0.1173077E+00
         21   -1    0    0  503  502  0.00000000000E+00  0.00000000000E+00  0.48357309177E+02  0.48357309177E+02  0.00000000000E+00 0.  1.
         21   -1    0    0  501  503 -0.00000000000E+00 -0.00000000000E+00 -0.66623253103E+03  0.66623253103E+03  0.00000000000E+00 0.  1.
          6    2    1    2  501    0 -0.71009591794E+01  0.29821245531E+02 -0.39143626521E+03  0.42860366753E+03  0.17186920547E+03 0.  0.
         24    2    3    3    0    0 -0.70401548896E+02  0.36299721272E+02 -0.27452357125E+03  0.29541356536E+03  0.75046222922E+02 0.  0.
         -6    2    1    2    0  502  0.71009591794E+01 -0.29821245531E+02 -0.22643895664E+03  0.28598617268E+03  0.17197022874E+03 0.  0.
        -24    2    5    5    0    0  0.13923624742E+02 -0.27115417390E+02 -0.31269018087E+02  0.90621730708E+02  0.79406759146E+02 0.  0.
          5    1    3    3  501    0  0.63300589717E+02 -0.64784757411E+01 -0.11691269396E+03  0.13319010217E+03  0.47000000000E+01 0. -1.
        -11    1    4    4    0    0 -0.41397365377E+02  0.99077459399E+00 -0.44064710282E+02  0.60468356904E+02  0.00000000000E+00 0.  1.
         12    1    4    4    0    0 -0.29004183519E+02  0.35308946678E+02 -0.23045886097E+03  0.23494520846E+03  0.00000000000E+00 0. -1.
         -5    1    5    5    0  502 -0.68226655625E+01 -0.27058281406E+01 -0.19516993855E+03  0.19536444197E+03  0.47000000000E+01 0.  1.
         13    1    6    6    0    0 -0.24041743429E+02 -0.27576058518E+02  0.63970507453E+01  0.37139826181E+02  0.00000000000E+00 0. -1.
        -14    1    6    6    0    0  0.37965368171E+02  0.46064112779E+00 -0.37666068832E+02  0.53481904527E+02  0.00000000000E+00 0.  1.
</event>
<event>
12    1  0.8052519E-002  0.3092528E+03  0.7818608E-02  0.1080829E+00
         21   -1    0    0  503  502  0.00000000000E+00  0.00000000000E+00  0.30343731724E+03  0.30343731724E+03  0.00000000000E+00 0.  1.
         21   -1    0    0  501  503 -0.00000000000E+00 -0.00000000000E+00 -0.34158548653E+03  0.34158548653E+03  0.00000000000E+00 0.  1.
          6    2    1    2  501    0 -0.24214458437E+03  0.85912852739E+02  0.72390222117E+02  0.31660842334E+03  0.17025137728E+03 0.  0.
         24    2    3    3    0    0 -0.25587513565E+03  0.96132693732E+02  0.82085669489E+02  0.29638307073E+03  0.79945529136E+02 0.  0.
         -6    2    1    2    0  502  0.24214458437E+03 -0.85912852739E+02 -0.11053839141E+03  0.32841438043E+03  0.17211115970E+03 0.  0.
        -24    2    5    5    0    0  0.11278197161E+03  0.22925287740E+02 -0.51001689294E+02  0.14911815821E+03  0.79935667009E+02 0.  0.
          5    1    3    3  501    0  0.13730551285E+02 -0.10219840993E+02 -0.96954473720E+01  0.20225352612E+02  0.47000000000E+01 0. -1.
        -13    1    4    4    0    0 -0.10986974869E+03  0.55258315744E+02 -0.20185368931E+01  0.12299966515E+03  0.00000000000E+00 0.  1.
         14    1    4    4    0    0 -0.14600538696E+03  0.40874377988E+02  0.84104206382E+02  0.17338340558E+03  0.00000000000E+00 0. -1.
         -5    1    5    5    0  502  0.12936261276E+03 -0.10883814048E+03 -0.59536702112E+02  0.17929622222E+03  0.47000000000E+01 0.  1.
         11    1    6    6    0    0  0.64377178141E+02  0.24133964564E+02 -0.69052651013E+02  0.97442998327E+02  0.00000000000E+00 0. -1.
        -12    1    6    6    0    0  0.48404793466E+02 -0.12086768237E+01  0.18050961719E+02  0.51675159885E+02  0.00000000000E+00 0.  1.
</event>
<event>
12    1  0.8052519E-002  0.1734001E+03  0.7818608E-02  0.1174599E+00
         21   -1    0    0  503  502  0.00000000000E+00  0.00000000000E+00  0.16832486214E+02  0.16832486214E+02  0.00000000000E+00 0.  1.
         21   -1    0    0  501  503 -0.00000000000E+00 -0.00000000000E+00 -0.17804194204E+04  0.17804194204E+04  0.00000000000E+00 0.  1.
          6    2    1    2  501    0  0.55171239559E+01 -0.14134339269E+02 -0.84031123953E+03  0.85801548440E+03  0.17273498196E+03 0.  0.
         24    2    3    3    0    0  0.11018536877E+02 -0.75632910237E+02 -0.49023937754E+03  0.50250917175E+03  0.79618309087E+02 0.  0.
         -6    2    1    2    0  502 -0.55171239559E+01  0.14134339269E+02 -0.92327569467E+03  0.93923642223E+03  0.17174641266E+03 0.  0.
        -24    2    5    5    0    0  0.54974106397E+02  0.29267072891E+02 -0.42569677956E+03  0.43774359542E+03  0.80765049818E+02 0.  0.
          5    1    3    3  501    0 -0.55014129212E+01  0.61498570968E+02 -0.35007186199E+03  0.35550631264E+03  0.47000000000E+01 0. -1.
        -13    1    4    4    0    0 -0.18388943300E+02  0.55277534220E+01 -0.44161868589E+02  0.48155788135E+02  0.00000000000E+00 0.  1.
         14    1    4    4    0    0  0.29407480177E+02 -0.81160663659E+02 -0.44607750895E+03  0.45435338362E+03  0.00000000000E+00 0. -1.
         -5    1    5    5    0  502 -0.60491230353E+02 -0.15132733622E+02 -0.49757891511E+03  0.50149282680E+03  0.47000000000E+01 0.  1.
         13    1    6    6    0    0  0.31701377671E+02 -0.14055456281E+02 -0.64651864359E+02  0.73364819652E+02  0.00000000000E+00 0. -1.
        -14    1    6    6    0    0  0.23272728726E+02  0.43322529172E+02 -0.36104491521E+03  0.36437877577E+03  0.00000000000E+00 0.  1.
</event>
<event>
12    1  0.8052519E-002  0.3069850E+03  0.7818608E-02  0.1081900E+00
         21   -1    0    0  503  502  0.00000000000E+00  0.00000000000E+00  0.93063058662E+02  0.93063058662E+02  0.00000000000E+00 0. -1.
         21   -1    0    0  501  503 -0.00000000000E+00 -0.00000000000E+00 -0.12972820509E+04  0.12972820509E+04  0.00000000000E+00 0.  1.
          6    2    1    2  501    0  0.40009535839E+01 -0.25581473115E+03 -0.92865608972E+03  0.97782272137E+03  0.16816051006E+03 0.  0.
         24    2    3    3    0    0 -0.10452787417E+02 -0.46415934848E+02 -0.22696307561E+03  0.24539392444E+03  0.80263570115E+02 0.  0.
         -6    2    1    2    0  502 -0.40009535839E+01  0.25581473115E+03 -0.27556290251E+03  0.41252238818E+03  0.16965442290E+03 0.  0.
        -24    2    5    5    0    0 -0.42210021800E+02  0.12093753073E+03 -0.20943484613E+03  0.25745207533E+03  0.77530923130E+02 0.  0.
          5    1    3    3  501    0  0.14453741001E+02 -0.20939879630E+03 -0.70169301411E+03  0.73242879693E+03  0.47000000000E+01 0. -1.
        -13    1    4    4    0    0 -0.21521562553E+02 -0.47542068330E+02 -0.22829939747E+03  0.23418804581E+03  0.00000000000E+00 0.  1.
         14    1    4    4    0    0  0.11068775137E+02  0.11261334829E+01  0.13363218603E+01  0.11205878625E+02  0.00000000000E+00 0. -1.
         -5    1    5    5    0  502  0.38209068216E+02  0.13487720042E+03 -0.66128056381E+02  0.15507031285E+03  0.47000000000E+01 0.  1.
         11    1    6    6    0    0  0.66566828825E+01  0.92016788791E+02 -0.11744035575E+03  0.14934402568E+03  0.00000000000E+00 0. -1.
        -12    1    6    6    0    0 -0.48866704683E+02  0.28920741939E+02 -0.91994490376E+02  0.10810804966E+03  0.00000000000E+00 0.  1.
</event>
<event>
12    1  0.8052519E-002  0.2931365E+03  0.7818608E-02  0.1088749E+00
         21   -1    0    0  501  502  0.00000000000E+00  0.00000000000E+00  0.40270081524E+03  0.40270081524E+03  0.00000000000E+00 0.  1.
         21   -1    0    0  502  503 -0.00000000000E+00 -0.00000000000E+00 -0.21911239742E+03  0.21911239742E+03  0.00000000000E+00 0. -1.
         -6    2    1    2    0  503  0.12767927170E+03  0.20001642774E+03  0.40901432185E+02  0.29597622632E+03  0.17210587325E+03 0.  0.
        -24    2    3    3    0    0  0.74842558550E+02  0.23931700643E+02  0.33289924207E+02  0.11191760950E+03  0.72409926094E+02 0.  0.
          6    2    1    2  501    0 -0.12767927170E+03 -0.20001642774E+03  0.14268698564E+03  0.32583698634E+03  0.17176029230E+03 0.  0.
         24    2    5    5    0    0 -0.20979177554E+02 -0.54581179961E+02  0.50460114123E+01  0.98893272675E+02  0.79593882003E+02 0.  0.
          5    1    5    5  501    0 -0.10670009414E+03 -0.14543524778E+03  0.13764097422E+03  0.22694371366E+03  0.47000000000E+01 0. -1.
        -13    1    6    6    0    0 -0.16534681736E+02 -0.61689924520E+02 -0.24329756743E+02  0.68344564895E+02  0.00000000000E+00 0.  1.
         14    1    6    6    0    0 -0.44444958179E+01  0.71087445596E+01  0.29375768156E+02  0.30548707780E+02  0.00000000000E+00 0. -1.
         -5    1    3    3    0  503  0.52836713147E+02  0.17608472710E+03  0.76115079783E+01  0.18405861682E+03  0.47000000000E+01 0.  1.
         13    1    4    4    0    0  0.18280747100E+02  0.39585194715E+02  0.30409041931E+02  0.53159036733E+02  0.00000000000E+00 0. -1.
        -14    1    4    4    0    0  0.56561811449E+02 -0.15653494073E+02  0.28808822755E+01  0.58758572768E+02  0.00000000000E+00 0.  1.
</event>
<event>
12    1  0.8052519E-002  0.2146323E+03  0.7818608E-02  0.1138046E+00
         21   -1    0    0  501  502  0.00000000000E+00  0.00000000000E+00  0.41759033192E+03  0.41759033192E+03  0.00000000000E+00 0.  1.
         21   -1    0    0  502  503 -0.00000000000E+00 -0.00000000000E+00 -0.11031642125E+03  0.11031642125E+03  0.00000000000E+00 0.  1.
         -6    2    1    2    0  503 -0.15975533657E+02  0.12429459796E+03  0.16655317749E+03  0.27167440694E+03  0.17424883844E+03 0.  0.
        -24    2    3    3    0    0 -0.14282424378E+02  0.19883115833E+01  0.26084459169E+02  0.85354131254E+02  0.79981170802E+02 0.  0.
          6    2    1    2  501    0  0.15975533657E+02 -0.12429459796E+03  0.14072073318E+03  0.25623234622E+03  0.17363273235E+03 0.  0.
         24    2    5    5    0    0  0.16278038497E+02 -0.15297304228E+03  0.14603510782E+03  0.22668785003E+03  0.79971260034E+02 0.  0.
          5    1    5    5  501    0 -0.30250484071E+00  0.28678444318E+02 -0.53143746392E+01  0.29544496196E+02  0.47000000000E+01 0. -1.
        -13    1    6    6    0    0  0.41324315496E+02 -0.13555708962E+03  0.10950057682E+03  0.17909159646E+03  0.00000000000E+00 0.  1.
         14    1    6    6    0    0 -0.25046276999E+02 -0.17415952664E+02  0.36534530999E+02  0.47596253571E+02  0.00000000000E+00 0. -1.
         -5    1    3    3    0  503 -0.16931092786E+01  0.12230628638E+03  0.14046871832E+03  0.18632027569E+03  0.47000000000E+01 0.  1.
         13    1    4    4    0    0 -0.39421898134E+02  0.23799952427E+02  0.58908342645E+01  0.46424408627E+02  0.00000000000E+00 0. -1.
        -14    1    4    4    0    0  0.25139473756E+02 -0.21811640844E+02  0.20193624905E+02  0.38929722627E+02  0.00000000000E+00 0.  1.
</event>
<event>
12    1  0.8052519E-002  0.2314725E+03  0.7818608E-02  0.1125755E+00
         21   -1    0    0  501  502  0.00000000000E+00  0.00000000000E+00  0.55377827608E+02  0.55377827608E+02  0.00000000000E+00 0. -1.
         21   -1    0    0  502  503 -0.00000000000E+00 -0.00000000000E+00 -0.11399344577E+04  0.11399344577E+04  0.00000000000E+00 0. -1.
         -6    2    1    2    0  503  0.15289030076E+03 -0.15727025664E+02 -0.77789509738E+03  0.81160352961E+03  0.17308010669E+03 0.  0.
        -24    2    3    3    0    0  0.84012813567E+02  0.60886417093E+02 -0.42118939110E+03  0.44028859758E+03  0.75420404070E+02 0.  0.
          6    2    1    2  501    0 -0.15289030076E+03  0.15727025664E+02 -0.30666153274E+03  0.38370875573E+03  0.17195444211E+03 0.  0.
         24    2    5    5    0    0 -0.11727575952E+03 -0.14265982771E+02 -0.11412779452E+03  0.18556914219E+03  0.86334413852E+02 0.  0.
          5    1    5    5  501    0 -0.35614541245E+02  0.29993008436E+02 -0.19253373822E+03  0.19813961354E+03  0.47000000000E+01 0. -1.
        -11    1    6    6    0    0 -0.36200852335E+02  0.29745109023E+02 -0.67599081543E+02  0.82249067144E+02  0.00000000000E+00 0.  1.
         12    1    6    6    0    0 -0.81074907182E+02 -0.44011091794E+02 -0.46528712974E+02  0.10332007504E+03  0.00000000000E+00 0. -1.
         -5    1    3    3    0  503  0.68877487196E+02 -0.76613442757E+02 -0.35670570628E+03  0.37131493203E+03  0.47000000000E+01 0.  1.
         13    1    4    4    0    0  0.94498616884E+02  0.36699785702E+02 -0.34952530671E+03  0.36392966751E+03  0.00000000000E+00 0. -1.
        -14    1    4    4    0    0 -0.10485803317E+02  0.24186631391E+02 -0.71664084390E+02  0.76358930065E+02  0.00000000000E+00 0.  1.
</event>
<event>
12    1  0.8052519E-002  0.1804343E+03  0.7818608E-02  0.1167511E+00
         21   -1    0    0  501  502  0.00000000000E+00  0.00000000000E+00  0.30922843296E+03  0.30922843296E+03  0.00000000000E+00 0. -1.
         21   -1    0    0  502  503 -0.00000000000E+00 -0.00000000000E+00 -0.12393885129E+03  0.12393885129E+03  0.00000000000E+00 0. -1.
         -6    2    1    2    0  503 -0.48418781619E+02  0.27009681893E+02  0.78132871561E+01  0.18007764066E+03  0.17115200227E+03 0.  0.
        -24    2    3    3    0    0 -0.66452470608E+01  0.69426897163E+02 -0.29806114423E+02  0.10949748965E+03  0.78974948088E+02 0.  0.
          6    2    1    2  501    0  0.48418781619E+02 -0.27009681893E+02  0.17747629451E+03  0.25308964359E+03  0.17170507054E+03 0.  0.
         24    2    5    5    0    0  0.77655591067E+02  0.16111062809E+01  0.18247898689E+03  0.21160401387E+03  0.73788153113E+02 0.  0.
          5    1    5    5  501    0 -0.29236809448E+02 -0.28620788174E+02 -0.50026923790E+01  0.41485629722E+02  0.47000000000E+01 0. -1.
        -13    1    6    6    0    0  0.28828369994E+02 -0.27470329016E+01  0.75371978732E+01  0.29923744052E+02  0.00000000000E+00 0.  1.
         14    1    6    6    0    0  0.48827221073E+02  0.43581391825E+01  0.17494178902E+03  0.18168026982E+03  0.00000000000E+00 0. -1.
         -5    1    3    3    0  503 -0.41773534558E+02 -0.42417215270E+02  0.37619401579E+02  0.70580151005E+02  0.47000000000E+01 0.  1.
         11    1    4    4    0    0  0.37423995961E+01  0.77615454240E+01 -0.44445161744E+02  0.45272724068E+02  0.00000000000E+00 0. -1.
        -12    1    4    4    0    0 -0.10387646657E+02  0.61665351739E+02  0.14639047321E+02  0.64224765586E+02  0.00000000000E+00 0.  1.
</event>
<event>
12    1  0.8052519E-002  0.2104009E+03  0.7818608E-02  0.1141260E+00
         21   -1    0    0  501  502  0.00000000000E+00  0.00000000000E+00  0.32162793172E+03  0.32162793172E+03  0.00000000000E+00 0.  1.
         21   -1    0    0  502  503 -0.00000000000E+00 -0.00000000000E+00 -0.37731939244E+03  0.37731939244E+03  0.00000000000E+00 0.  1.
         -6    2    1    2    0  503  0.12042409164E+03  0.12067305351E+02 -0.30640093083E+03  0.37168542411E+03  0.17210735713E+03 0.  0.
        -24    2    3    3    0    0  0.44759141877E+02 -0.47851672274E+02 -0.98773886894E+02  0.14267331116E+03  0.79411772840E+02 0.  0.
          6    2    1    2  501    0 -0.12042409164E+03 -0.12067305351E+02  0.25070947011E+03  0.32726190005E+03  0.17203933014E+03 0.  0.
         24    2    5    5    0    0 -0.14655394289E+03  0.18267010529E+02  0.18174494585E+03  0.24737989048E+03  0.79710996883E+02 0.  0.
          5    1    5    5  501    0  0.26129851247E+02 -0.30334315880E+02  0.68964524260E+02  0.79882009568E+02  0.47000000000E+01 0. -1.
        -13    1    6    6    0    0 -0.55737043075E+02  0.22013333004E+02  0.22482497070E+02  0.64005214438E+02  0.00000000000E+00 0.  1.
         14    1    6    6    0    0 -0.90816899812E+02 -0.37463224753E+01  0.15926244878E+03  0.18337467604E+03  0.00000000000E+00 0. -1.
         -5    1    3    3    0  503  0.75664949764E+02  0.59918977625E+02 -0.20762704393E+03  0.22901211294E+03  0.47000000000E+01 0.  1.
         11    1    4    4    0    0 -0.17146858941E+02 -0.16081938788E+02 -0.56649760773E+02  0.61333831793E+02  0.00000000000E+00 0. -1.
        -12    1    4    4    0    0  0.61906000818E+02 -0.31769733486E+02 -0.42124126121E+02  0.81339479372E+02  0.00000000000E+00 0.  1.
</event>
<event>
12    1  0.8052519E-002  0.1996224E+03  0.7818608E-02  0.1150074E+00
         21   -1    0    0  501  502  0.00000000000E+00  0.00000000000E+00  0.47279009875E+03  0.47279009875E+03  0.00000000000E+00 0. -1.
         21   -1    0    0  502  503 -0.00000000000E+00 -0.00000000000E+00 -0.15827252069E+03  0.15827252069E+03  0.00000000000E+00 0. -1.
         -6    2    1    2    0  503 -0.91538761607E+02  0.44912352189E+02 -0.58537786353E+02  0.20795576621E+03  0.17152977588E+03 0.  0.
        -24    2    3    3    0    0 -0.97659141318E+01  0.53568106150E+02  0.15628763015E+02  0.97120358037E+02  0.78887201981E+02 0.  0.
          6    2    1    2  501    0  0.91538761607E+02 -0.44912352189E+02  0.37305536441E+03  0.42310685323E+03  0.17161771494E+03 0.  0.
         24    2    5    5    0    0  0.10427213068E+03  0.15898216596E+02  0.26829645429E+03  0.30121926890E+03  0.87319127607E+02 0.  0.
          5    1    5    5  501    0 -0.12733369076E+02 -0.60810568785E+02  0.10475891013E+03  0.12188758433E+03  0.47000000000E+01 0. -1.
        -11    1    6    6    0    0  0.24846956234E+02 -0.17168415627E+02  0.15021187888E+02  0.33730725085E+02  0.00000000000E+00 0.  1.
         12    1    6    6    0    0  0.79425174450E+02  0.33066632223E+02  0.25327526640E+03  0.26748854382E+03  0.00000000000E+00 0. -1.
         -5    1    3    3    0  503 -0.81772847475E+02 -0.86557539614E+01 -0.74166549368E+02  0.11083540818E+03  0.47000000000E+01 0.  1.
         11    1    4    4    0    0 -0.38325255500E+02  0.54273417562E+01 -0.10234569936E+01  0.38721166201E+02  0.00000000000E+00 0. -1.
        -12    1    4    4    0    0  0.28559341369E+02  0.48140764394E+02  0.16652220009E+02  0.58399191836E+02  0.00000000000E+00 0.  1.
</event>
<event>
12    1  0.8052519E-002  0.1754192E+03  0.7818608E-02  0.1172871E+00
         21   -1    0    0  503  502  0.00000000000E+00  0.00000000000E+00  0.21328566097E+03  0.21328566097E+03  0.00000000000E+00 0. -1.
         21   -1    0    0  501  503 -0.00000000000E+00 -0.00000000000E+00 -0.29753917842E+03  0.29753917842E+03  0.00000000000E+00 0. -1.
          6    2    1    2  501    0 -0.11617031799E+02 -0.19865223826E+02 -0.22665008836E+03  0.28660451201E+03  0.17390313742E+03 0.  0.
         24    2    3    3    0    0 -0.38160221107E+02  0.46760640544E+02 -0.15858008746E+03  0.18761379666E+03  0.80053310865E+02 0.  0.
         -6    2    1    2    0  502  0.11617031799E+02  0.19865223826E+02  0.14239657091E+03  0.22422032739E+03  0.17166359329E+03 0.  0.
        -24    2    5    5    0    0 -0.87539681966E+01 -0.72066015452E+01  0.16875854414E+01  0.79413663311E+02  0.78581899385E+02 0.  0.
          5    1    3    3  501    0  0.26543189308E+02 -0.66625864371E+02 -0.68070000904E+02  0.98990715347E+02  0.47000000000E+01 0. -1.
        -13    1    4    4    0    0 -0.38651773882E+02 -0.23231553384E+01 -0.27080944171E+02  0.47251817024E+02  0.00000000000E+00 0.  1.
         14    1    4    4    0    0  0.49155277476E+00  0.49083795883E+02 -0.13149914328E+03  0.14036197963E+03  0.00000000000E+00 0. -1.
         -5    1    5    5    0  502  0.20370999996E+02  0.27071825372E+02  0.14070898547E+03  0.14480666408E+03  0.47000000000E+01 0.  1.
         13    1    6    6    0    0 -0.18942509200E+02 -0.11449494453E+01  0.37316190476E+02  0.41864395800E+02  0.00000000000E+00 0. -1.
        -14    1    6    6    0    0  0.10188541004E+02 -0.60616521000E+01 -0.35628605035E+02  0.37549267512E+02  0.00000000000E+00 0.  1.
</event>
<event>
12    1  0.8052519E-002  0.1737222E+03  0.7818608E-02  0.1174195E+00
         21   -1    0    0  501  502  0.00000000000E+00  0.00000000000E+00  0.51518842114E+02  0.51518842114E+02  0.00000000000E+00 0.  1.
         21   -1    0    0  502  503 -0.00000000000E+00 -0.00000000000E+00 -0.58422537187E+03  0.58422537187E+03  0.00000000000E+00 0.  1.
         -6    2    1    2    0  503 -0.79597315580E+01 -0.23251299700E+02 -0.27815898772E+03  0.32795092670E+03  0.17197502030E+03 0.  0.
        -24    2    3    3    0    0  0.37732698810E+02 -0.16358454654E+02 -0.26411811114E+03  0.27942726525E+03  0.81423978847E+02 0.  0.
          6    2    1    2  501    0  0.79597315580E+01  0.23251299700E+02 -0.25454754204E+03  0.30779328729E+03  0.17128419740E+03 0.  0.
         24    2    5    5    0    0  0.25002254416E+02 -0.40993343789E+02 -0.87186280740E+02  0.12765527468E+03  0.79930311172E+02 0.  0.
          5    1    5    5  501    0 -0.17042522858E+02  0.64244643489E+02 -0.16736126130E+03  0.18013801261E+03  0.47000000000E+01 0. -1.
        -13    1    6    6    0    0  0.47315264988E+01 -0.32188983597E+02  0.49466661955E+01  0.32908775646E+02  0.00000000000E+00 0.  1.
         14    1    6    6    0    0  0.20270727917E+02 -0.88043601912E+01 -0.92132946935E+02  0.94746499036E+02  0.00000000000E+00 0. -1.
         -5    1    3    3    0  503 -0.45692430367E+02 -0.68928450462E+01 -0.14040876579E+02  0.48523661453E+02  0.47000000000E+01 0.  1.
         11    1    4    4    0    0 -0.13988724890E+01 -0.37391073358E+02 -0.61436683290E+02  0.71934103628E+02  0.00000000000E+00 0. -1.
        -12    1    4    4    0    0  0.39131571299E+02  0.21032618704E+02 -0.20268142785E+03  0.20749316162E+03  0.00000000000E+00 0.  1.
</event>
<event>
12    1  0.8052519E-002  0.1739356E+03  0.7818608E-02  0.1175078E+00
         21   -1    0    0  501  502  0.00000000000E+00  0.00000000000E+00  0.53929120379E+03  0.53929120379E+03  0.00000000000E+00 0.  1.
         21   -1    0    0  502  503 -0.00000000000E+00 -0.00000000000E+00 -0.10926127673E+03  0.10926127673E+03  0.00000000000E+00 0.  1.
         -6    2    1    2    0  503  0.19168786048E+02 -0.13359184926E+02 -0.12969083965E+02  0.17441841992E+03  0.17235915377E+03 0.  0.
        -24    2    3    3    0    0 -0.81651001401E+01  0.56950498816E+01 -0.71776715055E+02  0.10666421213E+03  0.78270395887E+02 0.  0.
          6    2    1    2  501    0 -0.19168786048E+02  0.13359184926E+02  0.44299901103E+03  0.47413406060E+03  0.16735911530E+03 0.  0.
         24    2    5    5    0    0  0.44786261684E+02  0.26601291770E+02  0.33205334649E+03  0.34530614436E+03  0.79142090305E+02 0.  0.
          5    1    5    5  501    0 -0.63955047732E+02 -0.13242106844E+02  0.11094566453E+03  0.12882791624E+03  0.47000000000E+01 0. -1.
        -11    1    6    6    0    0  0.58598063172E+02 -0.44559971129E+01  0.24250181040E+03  0.24952097500E+03  0.00000000000E+00 0.  1.
         12    1    6    6    0    0 -0.13811801489E+02  0.31057288883E+02  0.89551536092E+02  0.95785169361E+02  0.00000000000E+00 0. -1.
         -5    1    3    3    0  503  0.27333886188E+02 -0.19054234808E+02  0.58807631091E+02  0.67754207786E+02  0.47000000000E+01 0.  1.
         13    1    4    4    0    0 -0.22556514296E+02 -0.11412791756E+02  0.57951314629E+01  0.25935144139E+02  0.00000000000E+00 0. -1.
        -14    1    4    4    0    0  0.14391414156E+02  0.17107841637E+02 -0.77571846518E+02  0.80729067994E+02  0.00000000000E+00 0.  1.
</event>
<event>
12    1  0.8052519E-002  0.1751041E+03  0.7818608E-02  0.1172813E+00
         21   -1    0    0  503  502  0.00000000000E+00  0.00000000000E+00  0.21807674614E+02  0.21807674614E+02  0.00000000000E+00 0.  1.
         21   -1    0    0  501  503 -0.00000000000E+00 -0.00000000000E+00 -0.14258361098E+04  0.14258361098E+04  0.00000000000E+00 0.  1.
          6    2    1    2  501    0 -0.93517192579E+01 -0.30491576636E+02 -0.60614438636E+03  0.63092983304E+03  0.17217504525E+03 0.  0.
         24    2    3    3    0    0  0.40264999738E+01 -0.85677898543E+02 -0.38686656279E+03  0.40436999374E+03  0.80575675181E+02 0.  0.
         -6    2    1    2    0  502  0.93517192579E+01  0.30491576636E+02 -0.79788404880E+03  0.81671395134E+03  0.17142208753E+03 0.  0.
        -24    2    5    5    0    0 -0.51255314107E+02 -0.15872932920E+02 -0.50802218664E+03  0.51693925365E+03  0.79123906809E+02 0.  0.
          5    1    3    3  501    0 -0.13378219232E+02  0.55186321907E+02 -0.21927782356E+03  0.22655983930E+03  0.47000000000E+01 0. -1.
        -11    1    4    4    0    0 -0.35973874324E+02 -0.23865949719E+02 -0.16768419959E+03  0.17315222777E+03  0.00000000000E+00 0.  1.
         12    1    4    4    0    0  0.40000374298E+02 -0.61811948824E+02 -0.21918236320E+03  0.23121776597E+03  0.00000000000E+00 0. -1.
         -5    1    5    5    0  502  0.60607033365E+02  0.46364509556E+02 -0.28986186216E+03  0.29977469769E+03  0.47000000000E+01 0.  1.
         13    1    6    6    0    0 -0.47733784533E+02 -0.36556049780E+02 -0.21739861356E+03  0.22555934062E+03  0.00000000000E+00 0. -1.
        -14    1    6    6    0    0 -0.35215295736E+01  0.20683116860E+02 -0.29062357308E+03  0.29137991304E+03  0.00000000000E+00 0.  1.
</event>
<event>
12    1  0.8052519E-002  0.1818677E+03  0.7818608E-02  0.1166549E+00
         21   -1    0    0  501  502  0.00000000000E+00  0.00000000000E+00  0.81779167011E+03  0.81779167011E+03  0.00000000000E+00 0. -1.
         21   -1    0    0  502  503 -0.00000000000E+00 -0.00000000000E+00 -0.70490388916E+02  0.70490388916E+02  0.00000000000E+00 0. -1.
         -6    2    1    2    0  503 -0.46562057022E+02  0.34771908826E+02  0.82610304906E+02  0.19975066206E+03  0.17233326353E+03 0.  0.
        -24    2    3    3    0    0 -0.71660035505E+02  0.73706088792E+02  0.27925473328E+02  0.12792935813E+03  0.70840245604E+02 0.  0.
          6    2    1    2  501    0  0.46562057022E+02 -0.34771908826E+02  0.66469097629E+03  0.68853139696E+03  0.16995375798E+03 0.  0.
         24    2    5    5    0    0 -0.17790111170E+02 -0.84406373771E+01  0.51345082410E+03  0.52200749165E+03  0.92045315779E+02 0.  0.
          5    1    5    5  501    0  0.64352168193E+02 -0.26331271449E+02  0.15124015219E+03  0.16652390532E+03  0.47000000000E+01 0. -1.
        -11    1    6    6    0    0  0.15737945470E+02  0.22516254128E+02  0.56929192889E+02  0.63210739835E+02  0.00000000000E+00 0.  1.
         12    1    6    6    0    0 -0.33528056640E+02 -0.30956891505E+02  0.45652163121E+03  0.45879675181E+03  0.00000000000E+00 0. -1.
         -5    1    3    3    0  503  0.25097978483E+02 -0.38934179966E+02  0.54684831578E+02  0.71821303931E+02  0.47000000000E+01 0.  1.
         13    1    4    4    0    0 -0.46449580597E+02  0.26905782873E+02 -0.19079592731E+02  0.56969426436E+02  0.00000000000E+00 0. -1.
        -14    1    4    4    0    0 -0.25210454908E+02  0.46800305919E+02  0.47005066059E+02  0.70959931694E+02  0.00000000000E+00 0.  1.
</event>
<event>
12    1  0.8052519E-002  0.2349074E+03  0.7818608E-02  0.1123331E+00
         21   -1    0    0  501  502  0.00000000000E+00  0.00000000000E+00  0.42293078682E+02  0.42293078682E+02  0.00000000000E+00 0.  1.
         21   -1    0    0  502  503 -0.00000000000E+00 -0.00000000000E+00 -0.13015673070E+04  0.13015673070E+04  0.00000000000E+00 0. -1.
         -6    2    1    2    0  503  0.44460672019E+02 -0.15324647089E+03 -0.63125716471E+03  0.67354813324E+03  0.17239561361E+03 0.  0.
        -24    2    3    3    0    0  0.59948857712E+02 -0.29862523079E+02 -0.21217114551E+03  0.23637692654E+03  0.79823684387E+02 0.  0.
          6    2    1    2  501    0 -0.44460672019E+02  0.15324647089E+03 -0.62801706360E+03  0.67031225244E+03  0.17161541713E+03 0.  0.
         24    2    5    5    0    0 -0.15754675899E+02  0.17279525788E+03 -0.45998271877E+03  0.49866196747E+03  0.83505959523E+02 0.  0.
          5    1    5    5  501    0 -0.28705996121E+02 -0.19548786992E+02 -0.16803434483E+03  0.17165028497E+03  0.47000000000E+01 0. -1.
        -13    1    6    6    0    0  0.26886286915E+02  0.12154407633E+03 -0.32724562663E+03  0.35012217162E+03  0.00000000000E+00 0.  1.
         14    1    6    6    0    0 -0.42640962814E+02  0.51251181558E+02 -0.13273709214E+03  0.14853979585E+03  0.00000000000E+00 0. -1.
         -5    1    3    3    0  503 -0.15488185693E+02 -0.12338394781E+03 -0.41908601920E+03  0.43717120669E+03  0.47000000000E+01 0.  1.
         11    1    4    4    0    0  0.22076105472E+02 -0.40044231196E+02 -0.17980522512E+03  0.18552847185E+03  0.00000000000E+00 0. -1.
        -12    1    4    4    0    0  0.37872752240E+02  0.10181708116E+02 -0.32365920390E+02  0.50848454697E+02  0.00000000000E+00 0.  1.
</event>
<event>
12    1  0.8052519E-002  0.2954435E+03  0.7818608E-02  0.1087733E+00
         21   -1    0    0  501  502  0.00000000000E+00  0.00000000000E+00  0.22584474519E+04  0.22584474519E+04  0.00000000000E+00 0.  1.
         21   -1    0    0  502  503 -0.00000000000E+00 -0.00000000000E+00 -0.39238941411E+02  0.39238941411E+02  0.00000000000E+00 0.  1.
         -6    2    1    2    0  503  0.21548785006E+03  0.10485023986E+03  0.94975227162E+03  0.99464376015E+03  0.17279538719E+03 0.  0.
        -24    2    3    3    0    0  0.93427678497E+02  0.54881135565E+02  0.69293298119E+03  0.70589848348E+03  0.79974260851E+02 0.  0.
          6    2    1    2  501    0 -0.21548785006E+03 -0.10485023986E+03  0.12694562389E+04  0.13030426332E+04  0.17021273490E+03 0.  0.
         24    2    5    5    0    0 -0.19722775889E+03 -0.13111292466E+03  0.93235891058E+03  0.96439848619E+03  0.68424514104E+02 0.  0.
          5    1    5    5  501    0 -0.18260091170E+02  0.26262684808E+02  0.33709732832E+03  0.33864414701E+03  0.47000000000E+01 0. -1.
        -11    1    6    6    0    0 -0.15066508927E+03 -0.11069557088E+03  0.82044672252E+03  0.84147864086E+03  0.00000000000E+00 0.  1.
         12    1    6    6    0    0 -0.46562669621E+02 -0.20417353784E+02  0.11191218806E+03  0.12291984533E+03  0.00000000000E+00 0. -1.
         -5    1    3    3    0  503  0.12206017156E+03  0.49969104290E+02  0.25681929043E+03  0.28874527667E+03  0.47000000000E+01 0.  1.
         13    1    4    4    0    0  0.86374683497E+01  0.10603110809E+02  0.33874793929E+03  0.33902389030E+03  0.00000000000E+00 0. -1.
        -14    1    4    4    0    0  0.84790210148E+02  0.44278024756E+02  0.35418504190E+03  0.36687459318E+03  0.00000000000E+00 0.  1.
</event>
<event>
12    1  0.8052519E-002  0.2687590E+03  0.7818608E-02  0.1102069E+00
         21   -1    0    0  503  502  0.00000000000E+00  0.00000000000E+00  0.46364742078E+03  0.46364742078E+03  0.00000000000E+00 0. -1.
         21   -1    0    0  501  503 -0.00000000000E+00 -0.00000000000E+00 -0.26641913236E+03  0.26641913236E+03  0.00000000000E+00 0. -1.
          6    2    1    2  501    0  0.20618971108E+03 -0.32501524943E+01 -0.13699768573E+03  0.30118614418E+03  0.17152249737E+03 0.  0.
         24    2    3    3    0    0  0.21411933420E+03 -0.29220256513E+02 -0.90964617384E+02  0.24753487572E+03  0.79360194133E+02 0.  0.
         -6    2    1    2    0  502 -0.20618971108E+03  0.32501524943E+01  0.33422597415E+03  0.42888040895E+03  0.17235615145E+03 0.  0.
        -24    2    5    5    0    0 -0.49879322535E+02  0.48749336092E+02  0.11211573470E+03  0.15345680476E+03  0.78195961378E+02 0.  0.
          5    1    3    3  501    0 -0.79296231262E+01  0.25970104018E+02 -0.46033068345E+02  0.53651268456E+02  0.47000000000E+01 0. -1.
        -11    1    4    4    0    0  0.74594486319E+02 -0.10570538736E+02 -0.74252633215E+02  0.10578056163E+03  0.00000000000E+00 0.  1.
         12    1    4    4    0    0  0.13952484789E+03 -0.18649717777E+02 -0.16711984169E+02  0.14175431410E+03  0.00000000000E+00 0. -1.
         -5    1    5    5    0  502 -0.15631038854E+03 -0.45499183597E+02  0.22211023945E+03  0.27542360419E+03  0.47000000000E+01 0.  1.
         11    1    6    6    0    0 -0.27146427632E+02  0.69091934661E+01  0.10065479868E+03  0.10447992144E+03  0.00000000000E+00 0. -1.
        -12    1    6    6    0    0 -0.22732894903E+02  0.41840142625E+02  0.11460936020E+02  0.48976883323E+02  0.00000000000E+00 0.  1.
</event>
<event>
12    1  0.8052519E-002  0.2105913E+03  0.7818608E-02  0.1143688E+00
         21   -1    0    0  501  502  0.00000000000E+00  0.00000000000E+00  0.50356728639E+02  0.50356728639E+02  0.00000000000E+00 0. -1.
         21   -1    0    0  502  503 -0.00000000000E+00 -0.00000000000E+00 -0.85840456845E+03  0.85840456845E+03  0.00000000000E+00 0. -1.
         -6    2    1    2    0  503 -0.48059930436E+02 -0.85164360782E+02 -0.47684128867E+03  0.51627376716E+03  0.17204145667E+03 0.  0.
        -24    2    3    3    0    0 -0.78240810964E+02 -0.99875472344E+02 -0.44756032012E+03  0.47147680887E+03  0.76703368097E+02 0.  0.
          6    2    1    2  501    0  0.48059930436E+02  0.85164360782E+02 -0.33120655114E+03  0.39248752993E+03  0.18650993639E+03 0.  0.
         24    2    5    5    0    0  0.36689039224E+02 -0.92895203080E+01 -0.25510837331E+03  0.27057011736E+03  0.81826190708E+02 0.  0.
          5    1    5    5  501    0  0.11370891212E+02  0.94453881090E+02 -0.76098177828E+02  0.12191741257E+03  0.47000000000E+01 0. -1.
        -13    1    6    6    0    0  0.41739795034E+02  0.26264412088E+00 -0.25632065469E+03  0.25969704945E+03  0.00000000000E+00 0.  1.
         14    1    6    6    0    0 -0.50507558096E+01 -0.95521644289E+01  0.12122813811E+01  0.10873067905E+02  0.00000000000E+00 0. -1.
         -5    1    3    3    0  503  0.30180880528E+02  0.14711111562E+02 -0.29280968547E+02  0.44796958289E+02  0.47000000000E+01 0.  1.
         11    1    4    4    0    0 -0.43209077705E+02 -0.67332035912E+02 -0.14907802854E+03  0.16918890640E+03  0.00000000000E+00 0. -1.
        -12    1    4    4    0    0 -0.35031733259E+02 -0.32543436432E+02 -0.29848229158E+03  0.30228790246E+03  0.00000000000E+00 0.  1.
</event>
<event>
12    1  0.8052519E-002  0.2162810E+03  0.7818608E-02  0.1136851E+00
         21   -1    0    0  503  502  0.00000000000E+00  0.00000000000E+00  0.47043282307E+03  0.47043282307E+03  0.00000000000E+00 0. -1.
         21   -1    0    0  501  503 -0.00000000000E+00 -0.00000000000E+00 -0.24011030952E+03  0.24011030952E+03  0.00000000000E+00 0. -1.
          6    2    1    2  501    0  0.12757807967E+03 -0.20676294865E+02 -0.15705959992E+03  0.26729234658E+03  0.17341800666E+03 0.  0.
         24    2    3    3    0    0  0.10082386380E+03 -0.55011523573E+02 -0.50083974412E+02  0.15170441274E+03  0.85522541558E+02 0.  0.
         -6    2    1    2    0  502 -0.12757807967E+03  0.20676294865E+02  0.38738211346E+03  0.44325078601E+03  0.17234466015E+03 0.  0.
        -24    2    5    5    0    0 -0.15695505302E+03 -0.43833418964E+01  0.31088951831E+03  0.35743587430E+03  0.80336848857E+02 0.  0.
          5    1    3    3  501    0  0.26754215868E+02  0.34335228708E+02 -0.10697562551E+03  0.11558793384E+03  0.47000000000E+01 0. -1.
        -13    1    4    4    0    0  0.42640777076E+02 -0.65177981772E+01  0.20869730295E+02  0.47919340619E+02  0.00000000000E+00 0.  1.
         14    1    4    4    0    0  0.58183086722E+02 -0.48493725396E+02 -0.70953704708E+02  0.10378507212E+03  0.00000000000E+00 0. -1.
         -5    1    5    5    0  502  0.29376973357E+02  0.25059636761E+02  0.76492595154E+02  0.85814911709E+02  0.47000000000E+01 0.  1.
         13    1    6    6    0    0 -0.57601292914E+01 -0.20626192245E+02  0.63851048564E+02  0.67346679938E+02  0.00000000000E+00 0. -1.
        -14    1    6    6    0    0 -0.15119492373E+03  0.16242850348E+02  0.24703846975E+03  0.29008919436E+03  0.00000000000E+00 0.  1.
</event>
<event>
12    1  0.8052519E-002  0.1995947E+03  0.7818608E-02  0.1150330E+00
         21   -1    0    0  501  502  0.00000000000E+00  0.00000000000E+00  0.20542569636E+02  0.20542569636E+02  0.00000000000E+00 0.  1.
         21   -1    0    0  502  503 -0.00000000000E+00 -0.00000000000E+00 -0.22645030349E+04  0.22645030349E+04  0.00000000000E+00 0.  1.
         -6    2    1    2    0  503 -0.66003857681E+02 -0.76918391628E+02 -0.67867542547E+03  0.70708639021E+03  0.17058101267E+03 0.  0.
        -24    2    3    3    0    0  0.18833386898E+02  0.18182499973E+01 -0.30911262890E+03  0.31979377808E+03  0.79746101208E+02 0.  0.
          6    2    1    2  501    0  0.66003857681E+02  0.76918391628E+02 -0.15652850398E+04  0.15779592144E+04  0.17194498560E+03 0.  0.
         24    2    5    5    0    0  0.17237794419E+02  0.10100781812E+03 -0.77154852909E+03  0.78234739452E+03  0.79250186682E+02 0.  0.
          5    1    5    5  501    0  0.48766063262E+02 -0.24089426489E+02 -0.79373651074E+03  0.79561181985E+03  0.47000000000E+01 0. -1.
        -11    1    6    6    0    0  0.48009329778E+02  0.49836516483E+02 -0.37551347151E+03  0.38183627566E+03  0.00000000000E+00 0.  1.
         12    1    6    6    0    0 -0.30771535359E+02  0.51171301634E+02 -0.39603505758E+03  0.40051111886E+03  0.00000000000E+00 0. -1.
         -5    1    3    3    0  503 -0.84837244579E+02 -0.78736641625E+02 -0.36956279657E+03  0.38729261213E+03  0.47000000000E+01 0.  1.
         11    1    4    4    0    0 -0.53868357143E+01  0.11569156581E+01  0.33136704047E+01  0.64293751177E+01  0.00000000000E+00 0. -1.
        -12    1    4    4    0    0  0.24220222613E+02  0.66133433917E+00 -0.31242629930E+03  0.31336440296E+03  0.00000000000E+00 0.  1.
</event>
<event>
12    1  0.8052519E-002  0.1814761E+03  0.7818608E-02  0.1168734E+00
         21   -1    0    0  503  502  0.00000000000E+00  0.00000000000E+00  0.15487850668E+03  0.15487850668E+03  0.00000000000E+00 0. -1.
         21   -1    0    0  501  503 -0.00000000000E+00 -0.00000000000E+00 -0.25061898794E+03  0.25061898794E+03  0.00000000000E+00 0. -1.
          6    2    1    2  501    0  0.13063277014E+02 -0.59869423645E+02 -0.13854574617E+03  0.22831669913E+03  0.17081742951E+03 0.  0.
         24    2    3    3    0    0 -0.60389200812E+02 -0.31264601039E+02 -0.78856976683E+02  0.12933012641E+03  0.76704158769E+02 0.  0.
         -6    2    1    2    0  502 -0.13063277014E+02  0.59869423645E+02  0.42805264907E+02  0.17718079549E+03  0.16064167110E+03 0.  0.
        -24    2    5    5    0    0 -0.46637386771E+02 -0.40178835153E+00  0.53907546879E+02  0.10714373026E+03  0.79990924762E+02 0.  0.
          5    1    3    3  501    0  0.73452477826E+02 -0.28604822606E+02 -0.59688769491E+02  0.98986572718E+02  0.47000000000E+01 0. -1.
        -11    1    4    4    0    0 -0.14158247522E+02  0.25516226542E+02 -0.19858202964E+02  0.35297053911E+02  0.00000000000E+00 0.  1.
         12    1    4    4    0    0 -0.46230953290E+02 -0.56780827581E+02 -0.58998773719E+02  0.94033072497E+02  0.00000000000E+00 0. -1.
         -5    1    5    5    0  502  0.33574109757E+02  0.60271211996E+02 -0.11102281972E+02  0.70037065233E+02  0.47000000000E+01 0.  1.
         13    1    6    6    0    0 -0.59489318816E+02  0.20355129513E+02  0.53767130270E+02  0.82729768815E+02  0.00000000000E+00 0. -1.
        -14    1    6    6    0    0  0.12851932045E+02 -0.20756917865E+02  0.14041660949E+00  0.24413961443E+02  0.00000000000E+00 0.  1.
</event>
<event>
12    1  0.8052519E-002  0.2557638E+03  0.7818608E-02  0.1109775E+00
         21   -1    0    0  503  502  0.00000000000E+00  0.00000000000E+00  0.14007892559E+03  0.14007892559E+03  0.00000000000E+00 0.  1.
         21   -1    0    0  501  503 -0.00000000000E+00 -0.00000000000E+00 -0.58368806793E+03  0.58368806793E+03  0.00000000000E+00 0. -1.
          6    2    1    2  501    0 -0.13746274640E+03 -0.12970284843E+03 -0.38397382136E+03  0.46114278462E+03  0.17174963401E+03 0.  0.
         24    2    3    3    0    0 -0.10982558214E+03 -0.78951446576E+02 -0.14867943846E+03  0.21881025634E+03  0.86471749431E+02 0.  0.
         -6    2    1    2    0  502  0.13746274640E+03  0.12970284843E+03 -0.59635320983E+02  0.26262420889E+03  0.17232605157E+03 0.  0.
        -24    2    5    5    0    0  0.90679492149E+02  0.24614203828E+02 -0.80696109461E+02  0.14558599755E+03  0.76516607831E+02 0.  0.
          5    1    3    3  501    0 -0.27637164255E+02 -0.50751401855E+02 -0.23529438291E+03  0.24233252829E+03  0.47000000000E+01 0. -1.
        -11    1    4    4    0    0 -0.21753889347E+02 -0.23006280949E+02  0.60037983349E+01  0.32226794120E+02  0.00000000000E+00 0.  1.
         12    1    4    4    0    0 -0.88071692797E+02 -0.55945165626E+02 -0.15468323679E+03  0.18658346222E+03  0.00000000000E+00 0. -1.
         -5    1    5    5    0  502  0.46783254249E+02  0.10508864460E+03  0.21060788478E+02  0.11703821134E+03  0.47000000000E+01 0.  1.
         13    1    6    6    0    0  0.40051648296E+02 -0.26179856953E+02 -0.20911366211E+02  0.52218815365E+02  0.00000000000E+00 0. -1.
        -14    1    6    6    0    0  0.50627843853E+02  0.50794060780E+02 -0.59784743250E+02  0.93367182185E+02  0.00000000000E+00 0.  1.
</event>
<event>
12    1  0.8052519E-002  0.1821478E+03  0.7818608E-02  0.1165770E+00
         21   -1    0    0  503  502  0.00000000000E+00  0.00000000000E+00  0.52032402567E+03  0.52032402567E+03  0.00000000000E+00 0.  1.
         21   -1    0    0  501  503 -0.00000000000E+00 -0.00000000000E+00 -0.79487724808E+02  0.79487724808E+02  0.00000000000E+00 0. -1.
          6    2    1    2  501    0 -0.25019164522E+02  0.52255696471E+02  0.86908248717E+02  0.20181888740E+03  0.17268816755E+03 0.  0.
         24    2    3    3    0    0  0.53670543045E+02  0.23309449239E+01  0.46645241151E+02  0.10019334597E+03  0.70547626176E+02 0.  0.
         -6    2    1    2    0  502  0.25019164522E+02 -0.52255696471E+02  0.35392805214E+03  0.39799286307E+03  0.17255908135E+03 0.  0.
        -24    2    5    5    0    0  0.43717043179E+02  0.31296339577E+02  0.16044247706E+03  0.18635800971E+03  0.78082511493E+02 0.  0.
          5    1    3    3  501    0 -0.78689707567E+02  0.49924751547E+02  0.40263007565E+02  0.10162554144E+03  0.47000000000E+01 0. -1.
        -13    1    4    4    0    0  0.10030213079E+02  0.24957499618E+02  0.43233562346E+02  0.50917805086E+02  0.00000000000E+00 0.  1.
         14    1    4    4    0    0  0.43640329967E+02 -0.22626554695E+02  0.34116788054E+01  0.49275540882E+02  0.00000000000E+00 0. -1.
         -5    1    5    5    0  502 -0.18697878658E+02 -0.83552036048E+02  0.19348557508E+03  0.21163485336E+03  0.47000000000E+01 0.  1.
         11    1    6    6    0    0 -0.10139587910E+02  0.34672158696E+02  0.94381738580E+02  0.10105880669E+03  0.00000000000E+00 0. -1.
        -12    1    6    6    0    0  0.53856631090E+02 -0.33758191192E+01  0.66060738481E+02  0.85299203019E+02  0.00000000000E+00 0.  1.
</event>
<event>
12    1  0.8052519E-002  0.2111848E+03  0.7818608E-02  0.1140916E+00
         21   -1    0    0  501  502  0.00000000000E+00  0.00000000000E+00  0.38080020953E+03  0.38080020953E+03  0.00000000000E+00 0.  1.
         21   -1    0    0  502  503 -0.00000000000E+00 -0.00000000000E+00 -0.15914240132E+03  0.15914240132E+03  0.00000000000E+00 0.  1.
         -6    2    1    2    0  503 -0.85898451997E+02  0.85017110899E+02  0.25059358499E+03  0.32678465383E+03  0.17141940362E+03 0.  0.
        -24    2    3    3    0    0 -0.12075615104E+03  0.60443593711E+02  0.14880247022E+03  0.21632000801E+03  0.80104273828E+02 0.  0.
          6    2    1    2  501    0  0.85898451997E+02 -0.85017110899E+02 -0.28935776775E+02  0.21315795703E+03  0.17318366628E+03 0.  0.
         24    2    5    5    0    0 -0.17650035522E+02 -0.13123481228E+02  0.44817302142E+01  0.82659669577E+02  0.79553664626E+02 0.  0.
          5    1    5    5  501    0  0.10354848752E+03 -0.71893629671E+02 -0.33417506990E+02  0.13049828745E+03  0.47000000000E+01 0. -1.
        -13    1    6    6    0    0  0.11667254498E+02 -0.38545371155E+02 -0.95622880173E+01  0.41392122646E+02  0.00000000000E+00 0.  1.
         14    1    6    6    0    0 -0.29317290020E+02  0.25421889927E+02  0.14044018231E+02  0.41267546931E+02  0.00000000000E+00 0. -1.
         -5    1    3    3    0  503  0.34857699047E+02  0.24573517188E+02  0.10179111477E+03  0.11046464582E+03  0.47000000000E+01 0.  1.
         13    1    4    4    0    0 -0.71251104070E+02  0.58779724740E+02  0.48206722344E+02  0.10419051757E+03  0.00000000000E+00 0. -1.
        -14    1    4    4    0    0 -0.49505046974E+02  0.16638689707E+01  0.10059574788E+03  0.11212949044E+03  0.00000000000E+00 0.  1.
</event>
<event>
12    1  0.8052519E-002  0.1950607E+03  0.7818608E-02  0.1153975E+00
         21   -1    0    0  501  502  0.00000000000E+00  0.00000000000E+00  0.73686114576E+02  0.73686114576E+02  0.00000000000E+00 0.  1.
         21   -1    0    0  502  503 -0.00000000000E+00 -0.00000000000E+00 -0.54248854236E+03  0.54248854236E+03  0.00000000000E+00 0.  1.
         -6    2    1    2    0  503 -0.74642160336E+02 -0.53854728956E+02 -0.30202818702E+03  0.35954095348E+03  0.17197932301E+03 0.  0.
        -24    2    3    3    0    0  0.18481520903E+01  0.31834046148E+02 -0.17026421516E+03  0.18467766873E+03  0.64024340698E+02 0.  0.
          6    2    1    2  501    0  0.74642160336E+02  0.53854728956E+02 -0.16677424076E+03  0.25663370346E+03  0.17197507505E+03 0.  0.
         24    2    5    5    0    0  0.11863339631E+03  0.35338549444E+02 -0.12083549682E+03  0.19022183748E+03  0.79122906717E+02 0.  0.
          5    1    5    5  501    0 -0.43991235977E+02  0.18516179513E+02 -0.45938743948E+02  0.66411865973E+02  0.47000000000E+01 0. -1.
        -13    1    6    6    0    0  0.55491138209E+01  0.28334932007E+02 -0.72085996593E+01  0.29759451358E+02  0.00000000000E+00 0.  1.
         14    1    6    6    0    0  0.11308428249E+03  0.70036174367E+01 -0.11362689716E+03  0.16046238613E+03  0.00000000000E+00 0. -1.
         -5    1    3    3    0  503 -0.76490312426E+02 -0.85688775105E+02 -0.13176397186E+03  0.17486328475E+03  0.47000000000E+01 0.  1.
         11    1    4    4    0    0 -0.22658035533E+01  0.42116903743E+01 -0.15023403175E+03  0.15031013438E+03  0.00000000000E+00 0. -1.
        -12    1    4    4    0    0  0.41139556436E+01  0.27622355774E+02 -0.20030183409E+02  0.34367534345E+02  0.00000000000E+00 0.  1.
</event>
<event>
12    1  0.8052519E-002  0.1731877E+03  0.7818608E-02  0.1174700E+00
         21   -1    0    0  501  502  0.00000000000E+00  0.00000000000E+00  0.74404739604E+02  0.74404739604E+02  0.00000000000E+00 0. -1.
         21   -1    0    0  502  503 -0.00000000000E+00 -0.00000000000E+00 -0.46552784259E+03  0.46552784259E+03  0.00000000000E+00 0. -1.
         -6    2    1    2    0  503  0.42312068582E+01 -0.15445106825E+02 -0.29564645611E+03  0.34263800682E+03  0.17244570817E+03 0.  0.
        -24    2    3    3    0    0  0.13345764293E+02 -0.42561715633E+02 -0.29828376370E+03  0.31352733829E+03  0.85653832989E+02 0.  0.
          6    2    1    2  501    0 -0.42312068582E+01  0.15445106825E+02 -0.95476646879E+02  0.19729457538E+03  0.17190958362E+03 0.  0.
         24    2    5    5    0    0 -0.18170199652E+02  0.19406410769E+02 -0.13312383585E+03  0.15668191373E+03  0.78233633986E+02 0.  0.
          5    1    5    5  501    0  0.13938992794E+02 -0.39613039437E+01  0.37647188967E+02  0.40612661648E+02  0.47000000000E+01 0. -1.
        -11    1    6    6    0    0  0.27445700020E+02 -0.84441609688E+01 -0.38824185579E+02  0.48289623005E+02  0.00000000000E+00 0.  1.
         12    1    6    6    0    0 -0.45615899672E+02  0.27850571738E+02 -0.94299650267E+02  0.10839229073E+03  0.00000000000E+00 0. -1.
         -5    1    3    3    0  503 -0.91145574345E+01  0.27116608808E+02  0.26373075934E+01  0.29110668522E+02  0.47000000000E+01 0.  1.
         11    1    4    4    0    0  0.10461223738E+01 -0.73052536805E+01 -0.25980258185E+03  0.25990737319E+03  0.00000000000E+00 0. -1.
        -12    1    4    4    0    0  0.12299641919E+02 -0.35256461953E+02 -0.38481181858E+02  0.53619965106E+02  0.00000000000E+00 0.  1.
</event>
<event>
12    1  0.8052519E-002  0.1846828E+03  0.7818608E-02  0.1163539E+00
         21   -1    0    0  503  502  0.00000000000E+00  0.00000000000E+00  0.38393198603E+02  0.38393198603E+02  0.00000000000E+00 0. -1.
         21   -1    0    0  501  503 -0.00000000000E+00 -0.00000000000E+00 -0.25296591960E+04  0.25296591960E+04  0.00000000000E+00 0. -1.
          6    2    1    2  501    0  0.62388279091E+02  0.62266848607E+01 -0.22821192854E+04  0.22895799087E+04  0.17371429523E+03 0.  0.
         24    2    3    3    0    0 -0.27079670709E+02  0.18170774661E+02 -0.73627475585E+03  0.74109530271E+03  0.77834735037E+02 0.  0.
         -6    2    1    2    0  502 -0.62388279091E+02 -0.62266848607E+01 -0.20914671201E+03  0.27847248596E+03  0.17283954790E+03 0.  0.
        -24    2    5    5    0    0 -0.43124254542E+01 -0.55209558958E+02 -0.17413586212E+03  0.19468718688E+03  0.67179683304E+02 0.  0.
          5    1    3    3  501    0  0.89467949800E+02 -0.11944089800E+02 -0.15458445296E+04  0.15484846060E+04  0.47000000000E+01 0. -1.
        -13    1    4    4    0    0  0.10634132788E+02  0.33300786977E+02 -0.18159689270E+03  0.18493095639E+03  0.00000000000E+00 0.  1.
         14    1    4    4    0    0 -0.37713803497E+02 -0.15130012316E+02 -0.55467786315E+03  0.55616434632E+03  0.00000000000E+00 0. -1.
         -5    1    5    5    0  502 -0.58075853636E+02  0.48982874098E+02 -0.35010849897E+02  0.83785299074E+02  0.47000000000E+01 0.  1.
         11    1    6    6    0    0 -0.82018430346E+01 -0.26784563580E+02 -0.16049201981E+03  0.16291829701E+03  0.00000000000E+00 0. -1.
        -12    1    6    6    0    0  0.38894175804E+01 -0.28424995379E+02 -0.13643842301E+02  0.31768889879E+02  0.00000000000E+00 0.  1.
</event>
<event>
12    1  0.8052519E-002  0.2591878E+03  0.7818608E-02  0.1107779E+00
         21   -1    0    0  501  502  0.00000000000E+00  0.00000000000E+00  0.14966732817E+03  0.14966732817E+03  0.00000000000E+00 0.  1.
         21   -1    0    0  502  503 -0.00000000000E+00 -0.00000000000E+00 -0.49549498456E+03  0.49549498456E+03  0.00000000000E+00 0. -1.
         -6    2    1    2    0  503  0.82427548230E+02  0.17416539923E+03 -0.71884018772E+02  0.26803711822E+03  0.17189734609E+03 0.  0.
        -24    2    3    3    0    0 -0.14633418215E+02  0.77868348932E+02 -0.67489237676E+02  0.13115995722E+03  0.79815540352E+02 0.  0.
          6    2    1    2  501    0 -0.82427548230E+02 -0.17416539923E+03 -0.27394363762E+03  0.37712519451E+03  0.17335053720E+03 0.  0.
         24    2    5    5    0    0 -0.67778628330E+02 -0.38773651489E+02 -0.69282250297E+02  0.13125146742E+03  0.79558651236E+02 0.  0.
          5    1    5    5  501    0 -0.14648919899E+02 -0.13539174774E+03 -0.20466138732E+03  0.24587372709E+03  0.47000000000E+01 0. -1.
        -11    1    6    6    0    0 -0.15543634680E+02 -0.67697687313E+01  0.17928630244E+02  0.24675293923E+02  0.00000000000E+00 0.  1.
         12    1    6    6    0    0 -0.52234993650E+02 -0.32003882758E+02 -0.87210880542E+02  0.10657617350E+03  0.00000000000E+00 0. -1.
         -5    1    3    3    0  503  0.97060966444E+02  0.96297050300E+02 -0.43947810962E+01  0.13687716100E+03  0.47000000000E+01 0.  1.
         13    1    4    4    0    0 -0.24789549772E+02 -0.74991876699E+01 -0.21513121526E+02  0.33668590576E+02  0.00000000000E+00 0. -1.
        -14    1    4    4    0    0  0.10156131557E+02  0.85367536602E+02 -0.45976116149E+02  0.97491366642E+02  0.00000000000E+00 0.  1.
</event>
<event>
12    1  0.8052519E-002  0.1783413E+03  0.7818608E-02  0.1169754E+00
         21   -1    0    0  503  502  0.00000000000E+00  0.00000000000E+00  0.13874314506E+04  0.13874314506E+04  0.00000000000E+00 0.  1.
         21   -1    0    0  501  503 -0.00000000000E+00 -0.00000000000E+00 -0.60289725543E+02  0.60289725543E+02  0.00000000000E+00 0.  1.
          6    2    1    2  501    0 -0.42161480154E+02 -0.67253025885E+01  0.93338145988E+02  0.20128990600E+03  0.17315541186E+03 0.  0.
         24    2    3    3    0    0 -0.53422450662E+02 -0.96292334764E+01  0.13070060147E+03  0.16187816472E+03  0.78582521073E+02 0.  0.
         -6    2    1    2    0  502  0.42161480154E+02  0.67253025885E+01  0.12338035791E+04  0.12464312701E+04  0.17174638092E+03 0.  0.
        -24    2    5    5    0    0  0.75757557293E+02  0.32870058408E+02  0.59085057943E+03  0.60205335743E+03  0.80896166436E+02 0.  0.
          5    1    3    3  501    0  0.11260970508E+02  0.29039308879E+01 -0.37362455477E+02  0.39411741279E+02  0.47000000000E+01 0. -1.
        -13    1    4    4    0    0 -0.69621828938E+02 -0.22430059692E+02  0.87866248747E+02  0.11432753085E+03  0.00000000000E+00 0.  1.
         14    1    4    4    0    0  0.16199378277E+02  0.12800826216E+02  0.42834352718E+02  0.47550633867E+02  0.00000000000E+00 0. -1.
         -5    1    5    5    0  502 -0.33596077139E+02 -0.26144755819E+02  0.64295299962E+03  0.64437791270E+03  0.47000000000E+01 0.  1.
         11    1    6    6    0    0  0.42953708133E+02  0.57976988008E+02  0.42833012886E+03  0.43436511309E+03  0.00000000000E+00 0. -1.
        -12    1    6    6    0    0  0.32803849160E+02 -0.25106929600E+02  0.16252045057E+03  0.16768824433E+03  0.00000000000E+00 0.  1.
</event>
<event>
12    1  0.8052519E-002  0.2663178E+03  0.7818608E-02  0.1103522E+00
         21   -1    0    0  501  502  0.00000000000E+00  0.00000000000E+00  0.13431885839E+03  0.13431885839E+03  0.00000000000E+00 0.  1.
         21   -1    0    0  502  503 -0.00000000000E+00 -0.00000000000E+00 -0.54007876440E+03  0.54007876440E+03  0.00000000000E+00 0.  1.
         -6    2    1    2    0  503 -0.18183120562E+03  0.88364722774E+02 -0.25672940139E+03  0.36991233810E+03  0.17336158966E+03 0.  0.
        -24    2    3    3    0    0 -0.40488260571E+02  0.65108136478E+02 -0.16797779582E+03  0.20133703026E+03  0.80260146930E+02 0.  0.
          6    2    1    2  501    0  0.18183120562E+03 -0.88364722774E+02 -0.14903050462E+03  0.30448528469E+03  0.17213449892E+03 0.  0.
         24    2    5    5    0    0  0.94283507649E+02 -0.90132936634E+02 -0.28025754939E+02  0.15504644956E+03  0.78997674017E+02 0.  0.
          5    1    5    5  501    0  0.87547697968E+02  0.17682138601E+01 -0.12100474968E+03  0.14943883513E+03  0.47000000000E+01 0. -1.
        -13    1    6    6    0    0  0.92827399926E+02 -0.61190653831E+02 -0.46679638328E+02  0.12058279698E+03  0.00000000000E+00 0.  1.
         14    1    6    6    0    0  0.14561077228E+01 -0.28942282803E+02  0.18653883389E+02  0.34463652578E+02  0.00000000000E+00 0. -1.
         -5    1    3    3    0  503 -0.14134294505E+03  0.23256586296E+02 -0.88751605569E+02  0.16857530783E+03  0.47000000000E+01 0.  1.
         13    1    4    4    0    0 -0.28344622007E+02 -0.55116576784E+00 -0.10402999286E+02  0.30198406822E+02  0.00000000000E+00 0. -1.
        -14    1    4    4    0    0 -0.12143638564E+02  0.65659302246E+02 -0.15757479654E+03  0.17113862344E+03  0.00000000000E+00 0.  1.
</event>
<event>
12    1  0.8052519E-002  0.1990409E+03  0.7818608E-02  0.1151070E+00
         21   -1    0    0  501  502  0.00000000000E+00  0.00000000000E+00  0.96957236527E+03  0.96957236527E+03  0.00000000000E+00 0. -1.
         21   -1    0    0  502  503 -0.00000000000E+00 -0.00000000000E+00 -0.32638890796E+03  0.32638890796E+03  0.00000000000E+00 0. -1.
         -6    2    1    2    0  503  0.63256624412E+02 -0.64003272336E+02 -0.28475461974E+03  0.34742262454E+03  0.17753722759E+03 0.  0.
        -24    2    3    3    0    0  0.32855141223E+02 -0.69554095059E+02 -0.29468096698E+03  0.31462499990E+03  0.78960659939E+02 0.  0.
          6    2    1    2  501    0 -0.63256624412E+02  0.64003272336E+02  0.92793807705E+03  0.94853864869E+03  0.17481039393E+03 0.  0.
         24    2    5    5    0    0  0.27695357223E+01  0.63385605884E+02  0.29643155750E+03  0.31357218535E+03  0.80190035442E+02 0.  0.
          5    1    5    5  501    0 -0.66026160134E+02  0.61766645230E+00  0.63150651955E+03  0.63496646334E+03  0.47000000000E+01 0. -1.
        -11    1    6    6    0    0 -0.30362109312E+02 -0.26554807405E+00  0.95597444527E+02  0.10030353731E+03  0.00000000000E+00 0.  1.
         12    1    6    6    0    0  0.33131645034E+02  0.63651153958E+02  0.20083411297E+03  0.21326864804E+03  0.00000000000E+00 0. -1.
         -5    1    3    3    0  503  0.30401483189E+02  0.55508227233E+01  0.99263472359E+01  0.32797624647E+02  0.47000000000E+01 0.  1.
         13    1    4    4    0    0  0.45186007013E+02 -0.75019825004E+01 -0.14678337993E+03  0.15376415576E+03  0.00000000000E+00 0. -1.
        -14    1    4    4    0    0 -0.12330865790E+02 -0.62052112559E+02 -0.14789758704E+03  0.16086084414E+03  0.00000000000E+00 0.  1.
</event>
<event>
12    1  0.8052519E-002  0.1824267E+03  0.7818608E-02  0.1165488E+00
         21   -1    0    0  503  502  0.00000000000E+00  0.00000000000E+00  0.30688772111E+03  0.30688772111E+03  0.00000000000E+00 0.  1.
         21   -1    0    0  501  503 -0.00000000000E+00 -0.00000000000E+00 -0.24895228221E+03  0.24895228221E+03  0.00000000000E+00 0.  1.
          6    2    1    2  501    0  0.56794855207E+02 -0.18259176460E+02 -0.17984738197E+03  0.25617298761E+03  0.17239624611E+03 0.  0.
         24    2    3    3    0    0  0.40605306329E+02  0.56038043489E+02 -0.93417842687E+02  0.14095869315E+03  0.79708259439E+02 0.  0.
         -6    2    1    2    0  502 -0.56794855207E+02  0.18259176460E+02  0.23778282088E+03  0.29966701572E+03  0.17233861233E+03 0.  0.
        -24    2    5    5    0    0  0.11704545832E+02  0.16731129937E+02  0.41948876592E+02  0.92139844956E+02  0.79455117387E+02 0.  0.
          5    1    3    3  501    0  0.16189548878E+02 -0.74297219950E+02 -0.86429539288E+02  0.11521429445E+03  0.47000000000E+01 0. -1.
        -11    1    4    4    0    0  0.18498880405E+02 -0.13539219559E+02 -0.52458586242E+02  0.57248775646E+02  0.00000000000E+00 0.  1.
         12    1    4    4    0    0  0.22106425925E+02  0.69577263048E+02 -0.40959256445E+02  0.83709917507E+02  0.00000000000E+00 0. -1.
         -5    1    5    5    0  502 -0.68499401039E+02  0.15280465235E+01  0.19583394429E+03  0.20752717076E+03  0.47000000000E+01 0.  1.
         13    1    6    6    0    0  0.15640879804E+02  0.30957874456E+02  0.59705384737E+02  0.69048968700E+02  0.00000000000E+00 0. -1.
        -14    1    6    6    0    0 -0.39363339722E+01 -0.14226744519E+02 -0.17756508145E+02  0.23090876256E+02  0.00000000000E+00 0.  1.
</event>
<event>
12    1  0.8052519E-002  0.1973221E+03  0.7818608E-02  0.1152051E+00
         21   -1    0    0  503  502  0.00000000000E+00  0.00000000000E+00  0.21477532627E+02  0.21477532627E+02  0.00000000000E+00 0. -1.
         21   -1    0    0  501  503 -0.00000000000E+00 -0.00000000000E+00 -0.21627645045E+04  0.21627645045E+04  0.00000000000E+00 0. -1.
          6    2    1    2  501    0 -0.78877466426E+02 -0.47344620237E+02 -0.15111578808E+04  0.15239862695E+04  0.17456471918E+03 0.  0.
         24    2    3    3    0    0 -0.14141361906E+02 -0.77935671611E+01 -0.12318938778E+04  0.12345635296E+04  0.79522729826E+02 0.  0.
         -6    2    1    2    0  502  0.78877466426E+02  0.47344620237E+02 -0.63012909107E+03  0.66025576761E+03  0.17438990646E+03 0.  0.
        -24    2    5    5    0    0 -0.18785511099E+02  0.49112057891E+02 -0.25486347134E+03  0.27245742263E+03  0.80701725310E+02 0.  0.
          5    1    3    3  501    0 -0.64736104521E+02 -0.39551053076E+02 -0.27926400299E+03  0.28942273994E+03  0.47000000000E+01 0. -1.
        -13    1    4    4    0    0 -0.39007382284E+02 -0.67895642825E+01 -0.33611331101E+03  0.33843733821E+03  0.00000000000E+00 0.  1.
         14    1    4    4    0    0  0.24866020378E+02 -0.10040028786E+01 -0.89578056682E+03  0.89612619139E+03  0.00000000000E+00 0. -1.
         -5    1    5    5    0  502  0.97662977526E+02 -0.17674376540E+01 -0.37526561973E+03  0.38779834498E+03  0.47000000000E+01 0.  1.
         13    1    6    6    0    0 -0.28338390201E+01  0.60422670658E+02 -0.10384227108E+03  0.12017548433E+03  0.00000000000E+00 0. -1.
        -14    1    6    6    0    0 -0.15951672079E+02 -0.11310612767E+02 -0.15102120026E+03  0.15228193830E+03  0.00000000000E+00 0.  1.
</event>
<event>
12    1  0.8052519E-002  0.1798820E+03  0.7818608E-02  0.1168921E+00
         21   -1    0    0  503  502  0.00000000000E+00  0.00000000000E+00  0.12434118973E+04  0.12434118973E+04  0.00000000000E+00 0. -1.
         21   -1    0    0  501  503 -0.00000000000E+00 -0.00000000000E+00 -0.54864074370E+02  0.54864074370E+02  0.00000000000E+00 0. -1.
          6    2    1    2  501    0  0.32648062933E+02 -0.72732001396E+01  0.12202991587E+03  0.21736794779E+03  0.17674481295E+03 0.  0.
         24    2    3    3    0    0 -0.47519155191E+02  0.10296087920E+02  0.41357163302E+02  0.10219136271E+03  0.79803384131E+02 0.  0.
         -6    2    1    2    0  502 -0.32648062933E+02  0.72732001396E+01  0.10665179071E+04  0.10809080239E+04  0.17257727126E+03 0.  0.
        -24    2    5    5    0    0 -0.75782937475E+02 -0.25888884419E+01  0.94405392302E+03  0.95061068861E+03  0.81689141047E+02 0.  0.
          5    1    3    3  501    0  0.80167218125E+02 -0.17569288059E+02  0.80672752565E+02  0.11517658508E+03  0.47000000000E+01 0. -1.
        -13    1    4    4    0    0 -0.15360818354E+01 -0.16741777538E+02  0.45677856854E+02  0.48673537670E+02  0.00000000000E+00 0.  1.
         14    1    4    4    0    0 -0.45983073356E+02  0.27037865458E+02 -0.43206935521E+01  0.53517825036E+02  0.00000000000E+00 0. -1.
         -5    1    5    5    0  502  0.43134874542E+02  0.98620885814E+01  0.12246398405E+03  0.13029733529E+03  0.47000000000E+01 0.  1.
         11    1    6    6    0    0  0.17593616053E+02 -0.26306451025E+01  0.12747633377E+03  0.12871158180E+03  0.00000000000E+00 0. -1.
        -12    1    6    6    0    0 -0.93376553528E+02  0.41756660626E-01  0.81657758925E+03  0.82189910680E+03  0.00000000000E+00 0.  1.
</event>
<event>
12    1  0.8052519E-002  0.1786229E+03  0.7818608E-02  0.1170651E+00
         21   -1    0    0  503  502  0.00000000000E+00  0.00000000000E+00  0.68004368220E+02  0.68004368220E+02  0.00000000000E+00 0. -1.
         21   -1    0    0  501  503 -0.00000000000E+00 -0.00000000000E+00 -0.45793323301E+03  0.45793323301E+03  0.00000000000E+00 0. -1.
          6    2    1    2  501    0  0.47107734020E+02  0.47650192979E+01 -0.21781096795E+03  0.27788371944E+03  0.16593944605E+03 0.  0.
         24    2    3    3    0    0  0.94249061829E+02 -0.67913328008E+01 -0.12727625575E+03  0.17505143767E+03  0.74261380906E+02 0.  0.
         -6    2    1    2    0  502 -0.47107734020E+02 -0.47650192979E+01 -0.17211789684E+03  0.24805388179E+03  0.17223331224E+03 0.  0.
        -24    2    5    5    0    0 -0.78309613100E+02  0.32629369154E+02 -0.72740249968E+02  0.13728428198E+03  0.79741826395E+02 0.  0.
          5    1    3    3  501    0 -0.47141327809E+02  0.11556352099E+02 -0.90534712203E+02  0.10283228178E+03  0.47000000000E+01 0. -1.
        -13    1    4    4    0    0  0.14988280265E+02 -0.61491799650E+01  0.81494379896E+01  0.18134891758E+02  0.00000000000E+00 0.  1.
         14    1    4    4    0    0  0.79260781564E+02 -0.64215283578E+00 -0.13542569374E+03  0.15691654591E+03  0.00000000000E+00 0. -1.
         -5    1    5    5    0  502  0.31201879080E+02 -0.37394388452E+02 -0.99377646867E+02  0.11076959981E+03  0.47000000000E+01 0.  1.
         11    1    6    6    0    0 -0.51377598606E+02 -0.20282760450E+02 -0.47184461930E+02  0.72645863320E+02  0.00000000000E+00 0. -1.
        -12    1    6    6    0    0 -0.26932014495E+02  0.52912129604E+02 -0.25555788039E+02  0.64638418655E+02  0.00000000000E+00 0.  1.
</event>
<event>
12    1  0.8052519E-002  0.1848948E+03  0.7818608E-02  0.1163589E+00
         21   -1    0    0  501  502  0.00000000000E+00  0.00000000000E+00  0.52556156712E+03  0.52556156712E+03  0.00000000000E+00 0. -1.
         21   -1    0    0  502  503 -0.00000000000E+00 -0.00000000000E+00 -0.65576917165E+02  0.65576917165E+02  0.00000000000E+00 0. -1.
         -6    2    1    2    0  503 -0.41366084982E+02 -0.49493314730E+02  0.19135685925E+03  0.26608935602E+03  0.17327826355E+03 0.  0.
        -24    2    3    3    0    0  0.45875211745E+02 -0.30759235451E+02  0.71447065235E+02  0.11654853123E+03  0.73676396369E+02 0.  0.
          6    2    1    2  501    0  0.41366084982E+02  0.49493314730E+02  0.26862779071E+03  0.32504912826E+03  0.17127552263E+03 0.  0.
         24    2    5    5    0    0 -0.32926409066E+02 -0.20617567800E+01  0.17111614624E+03  0.19197805373E+03  0.80538427818E+02 0.  0.
          5    1    5    5  501    0  0.74292494047E+02  0.51555071510E+02  0.97511644474E+02  0.13307107454E+03  0.47000000000E+01 0. -1.
        -13    1    6    6    0    0 -0.11773691093E+02  0.21694454380E+02  0.82362130690E+01  0.26021228997E+02  0.00000000000E+00 0.  1.
         14    1    6    6    0    0 -0.21152717973E+02 -0.23756211160E+02  0.16287993317E+03  0.16595682473E+03  0.00000000000E+00 0. -1.
         -5    1    3    3    0  503 -0.87241296726E+02 -0.18734079280E+02  0.11990979401E+03  0.14954082480E+03  0.47000000000E+01 0.  1.
         13    1    4    4    0    0 -0.97605573192E+01  0.12444791431E+02 -0.54762656561E+00  0.15825334366E+02  0.00000000000E+00 0. -1.
        -14    1    4    4    0    0  0.55635769064E+02 -0.43204026881E+02  0.71994691801E+02  0.10072319686E+03  0.00000000000E+00 0.  1.
</event>
<event>
12    1  0.8052519E-002  0.2412535E+03  0.7818608E-02  0.1119125E+00
         21   -1    0    0  501  502  0.00000000000E+00  0.00000000000E+00  0.34811460882E+03  0.34811460882E+03  0.00000000000E+00 0.  1.
         21   -1    0    0  502  503 -0.00000000000E+00 -0.00000000000E+00 -0.30321643021E+03  0.30321643021E+03  0.00000000000E+00 0. -1.
         -6    2    1    2    0  503  0.16535717043E+03  0.33553338805E+02 -0.19624785966E+03  0.31022306965E+03  0.17104476071E+03 0.  0.
        -24    2    3    3    0    0  0.99126763684E+02  0.27470148412E+02 -0.20492345629E+03  0.24298596710E+03  0.80422838425E+02 0.  0.
          6    2    1    2  501    0 -0.16535717043E+03 -0.33553338805E+02  0.24114603827E+03  0.34110796938E+03  0.17243669750E+03 0.  0.
         24    2    5    5    0    0 -0.92240737352E+02  0.46080304291E+02  0.15682937529E+03  0.20392590220E+03  0.79740658171E+02 0.  0.
          5    1    5    5  501    0 -0.73116433075E+02 -0.79633643096E+02  0.84316662988E+02  0.13718206718E+03  0.47000000000E+01 0. -1.
        -11    1    6    6    0    0 -0.86608516361E+02  0.60384599685E+01  0.85023640589E+02  0.12151756072E+03  0.00000000000E+00 0.  1.
         12    1    6    6    0    0 -0.56322209912E+01  0.40041844322E+02  0.71805734696E+02  0.82408341479E+02  0.00000000000E+00 0. -1.
         -5    1    3    3    0  503  0.66230406743E+02  0.60831903939E+01  0.86755966237E+01  0.67237102551E+02  0.47000000000E+01 0.  1.
         11    1    4    4    0    0  0.22718715367E+02  0.12990069121E+02 -0.26815358465E+01  0.26307271964E+02  0.00000000000E+00 0. -1.
        -12    1    4    4    0    0  0.76408048317E+02  0.14480079291E+02 -0.20224192044E+03  0.21667869514E+03  0.00000000000E+00 0.  1.
</event>
<event>
12    1  0.8052519E-002  0.1869660E+03  0.7818608E-02  0.1161337E+00
         21   -1    0    0  503  502  0.00000000000E+00  0.00000000000E+00  0.71488644584E+03  0.71488644584E+03  0.00000000000E+00 0. -1.
         21   -1    0    0  501  503 -0.00000000000E+00 -0.00000000000E+00 -0.76316647161E+02  0.76316647161E+02  0.00000000000E+00 0. -1.
          6    2    1    2  501    0  0.68583987233E+02  0.22645341532E+02  0.81883657563E+02  0.20411077918E+03  0.17245202812E+03 0.  0.
         24    2    3    3    0    0  0.81980124971E+02 -0.62595821771E+01  0.11166893598E+03  0.16024503023E+03  0.80303145578E+02 0.  0.
         -6    2    1    2    0  502 -0.68583987233E+02 -0.22645341532E+02  0.55668614112E+03  0.58709231382E+03  0.17193414564E+03 0.  0.
        -24    2    5    5    0    0 -0.43459018010E+02 -0.59545571479E+02  0.51342900348E+03  0.52475323294E+03  0.79512593577E+02 0.  0.
          5    1    3    3  501    0 -0.13396137737E+02  0.28904923709E+02 -0.29785278418E+02  0.43865748955E+02  0.47000000000E+01 0. -1.
        -13    1    4    4    0    0  0.17926874356E+02  0.34419875549E+02  0.42768472159E+02  0.57751561604E+02  0.00000000000E+00 0.  1.
         14    1    4    4    0    0  0.64053250615E+02 -0.40679457726E+02  0.68900463823E+02  0.10249346862E+03  0.00000000000E+00 0. -1.
         -5    1    5    5    0  502 -0.25124969223E+02  0.36900229947E+02  0.43257137642E+02  0.62339080885E+02  0.47000000000E+01 0.  1.
         11    1    6    6    0    0 -0.49709114311E+02 -0.14483286805E+01  0.21787944324E+03  0.22348276329E+03  0.00000000000E+00 0. -1.
        -12    1    6    6    0    0  0.62500963005E+01 -0.58097242799E+02  0.29554956024E+03  0.30127046965E+03  0.00000000000E+00 0.  1.
</event>
<event>
12    1  0.8052519E-002  0.2347525E+03  0.7818608E-02  0.1123571E+00
         21   -1    0    0  503  502  0.00000000000E+00  0.00000000000E+00  0.47663415897E+03  0.47663415897E+03  0.00000000000E+00 0. -1.
         21   -1    0    0  501  503 -0.00000000000E+00 -0.00000000000E+00 -0.12188820994E+03  0.12188820994E+03  0.00000000000E+00 0. -1.
          6    2    1    2  501    0  0.13402758269E+03  0.84874070099E+02  0.10648704590E+03  0.25777550584E+03  0.17303675844E+03 0.  0.
         24    2    3    3    0    0  0.17749830477E+02 -0.12480723512E+02  0.50437707729E+02  0.96028512645E+02  0.78782535745E+02 0.  0.
         -6    2    1    2    0  502 -0.13402758269E+03 -0.84874070099E+02  0.24825890314E+03  0.34074686306E+03  0.17119854264E+03 0.  0.
        -24    2    5    5    0    0 -0.86465449847E+02 -0.66468144494E+02  0.25533581196E+03  0.28904476236E+03  0.80350541582E+02 0.  0.
          5    1    3    3  501    0  0.11627775222E+03  0.97354793610E+02  0.56049338169E+02  0.16174699320E+03  0.47000000000E+01 0. -1.
        -11    1    4    4    0    0  0.39060688115E+02 -0.16225440793E+02  0.12759794960E+01  0.42315841108E+02  0.00000000000E+00 0.  1.
         12    1    4    4    0    0 -0.21310857638E+02  0.37447172816E+01  0.49161728233E+02  0.53712671537E+02  0.00000000000E+00 0. -1.
         -5    1    5    5    0  502 -0.47562132846E+02 -0.18405925604E+02 -0.70769088213E+01  0.51702100699E+02  0.47000000000E+01 0.  1.
         11    1    6    6    0    0 -0.33374571794E+02  0.13649625206E+02  0.10084124121E+03  0.10709402523E+03  0.00000000000E+00 0. -1.
        -12    1    6    6    0    0 -0.53090878053E+02 -0.80117769700E+02  0.15449457075E+03  0.18195073714E+03  0.00000000000E+00 0.  1.
</event>
<event>
12    1  0.8052519E-002  0.1776581E+03  0.7818608E-02  0.1170366E+00
         21   -1    0    0  503  502  0.00000000000E+00  0.00000000000E+00  0.26220774844E+02  0.26220774844E+02  0.00000000000E+00 0.  1.
         21   -1    0    0  501  503 -0.00000000000E+00 -0.00000000000E+00 -0.19491429206E+04  0.19491429206E+04  0.00000000000E+00 0.  1.
          6    2    1    2  501    0  0.41420860352E+02 -0.48529130443E+01 -0.15772327714E+04  0.15872068618E+04  0.17269385778E+03 0.  0.
         24    2    3    3    0    0 -0.23708220110E+02  0.48036802474E+02 -0.78354215551E+03  0.78908030360E+03  0.76418597150E+02 0.  0.
         -6    2    1    2    0  502 -0.41420860352E+02  0.48529130443E+01 -0.34568937431E+03  0.38815683360E+03  0.17153817512E+03 0.  0.
        -24    2    5    5    0    0  0.19361032249E+01 -0.19943146070E+02 -0.70669735034E+02  0.10859903488E+03  0.79987882561E+02 0.  0.
          5    1    3    3  501    0  0.65129080463E+02 -0.52889715519E+02 -0.79369061593E+03  0.79812655823E+03  0.47000000000E+01 0. -1.
        -13    1    4    4    0    0 -0.21524696708E+02 -0.29244415025E+01 -0.53069668909E+03  0.53114107423E+03  0.00000000000E+00 0.  1.
         14    1    4    4    0    0 -0.21835234023E+01  0.50961243977E+02 -0.25284546642E+03  0.25793922938E+03  0.00000000000E+00 0. -1.
         -5    1    5    5    0  502 -0.43356963577E+02  0.24796059114E+02 -0.27501963928E+03  0.27955779872E+03  0.47000000000E+01 0.  1.
         11    1    6    6    0    0 -0.29541085663E+02 -0.91549186522E+01 -0.68612805393E+02  0.75260915099E+02  0.00000000000E+00 0. -1.
        -12    1    6    6    0    0  0.31477188888E+02 -0.10788227418E+02 -0.20569296411E+01  0.33338119783E+02  0.00000000000E+00 0.  1.
</event>
<event>
12    1  0.8052519E-002  0.2900579E+03  0.7818608E-02  0.1090352E+00
         21   -1    0    0  501  502  0.00000000000E+00  0.00000000000E+00  0.16855638811E+03  0.16855638811E+03  0.00000000000E+00 0.  1.
         21   -1    0    0  502  503 -0.00000000000E+00 -0.00000000000E+00 -0.50024780975E+03  0.50024780975E+03  0.00000000000E+00 0. -1.
         -6    2    1    2    0  503 -0.23188189921E+03 -0.34335711567E+02 -0.18435549951E+03  0.34347138124E+03  0.17040388276E+03 0.  0.
        -24    2    3    3    0    0 -0.30194456559E+02 -0.22854914296E+00 -0.73895254242E+02  0.11095325541E+03  0.77060747759E+02 0.  0.
          6    2    1    2  501    0  0.23188189921E+03  0.34335711567E+02 -0.14733592213E+03  0.32533281662E+03  0.17083738276E+03 0.  0.
         24    2    5    5    0    0  0.13576193674E+03 -0.44502804635E+02 -0.10218525180E+03  0.19298769259E+03  0.79941358001E+02 0.  0.
          5    1    5    5  501    0  0.96119962469E+02  0.78838516202E+02 -0.45150670337E+02  0.13234512403E+03  0.47000000000E+01 0. -1.
        -11    1    6    6    0    0  0.45540501604E+02 -0.49378235526E+02 -0.18116133303E+02  0.69572564390E+02  0.00000000000E+00 0.  1.
         12    1    6    6    0    0  0.90221435141E+02  0.48754308912E+01 -0.84069118495E+02  0.12341512820E+03  0.00000000000E+00 0. -1.
         -5    1    3    3    0  503 -0.20168744265E+03 -0.34107162424E+02 -0.11046024527E+03  0.23251812583E+03  0.47000000000E+01 0.  1.
         13    1    4    4    0    0 -0.12878481270E+02 -0.50536208348E+00 -0.87801760195E+02  0.88742660339E+02  0.00000000000E+00 0. -1.
        -14    1    4    4    0    0 -0.17315975289E+02  0.27681294052E+00  0.13906505954E+02  0.22210595072E+02  0.00000000000E+00 0.  1.
</event>
<event>
12    1  0.8052519E-002  0.2033381E+03  0.7818608E-02  0.1147066E+00
         21   -1    0    0  501  502  0.00000000000E+00  0.00000000000E+00  0.46008704420E+03  0.46008704420E+03  0.00000000000E+00 0.  1.
         21   -1    0    0  502  503 -0.00000000000E+00 -0.00000000000E+00 -0.10522020715E+03  0.10522020715E+03  0.00000000000E+00 0.  1.
         -6    2    1    2    0  503 -0.65212499171E+02 -0.86383685655E+02  0.68406385079E+02  0.21401535959E+03  0.17148856937E+03 0.  0.
        -24    2    3    3    0    0  0.23914938729E+02 -0.71595306724E+02  0.57942475362E+02  0.12294407024E+03  0.77846655135E+02 0.  0.
          6    2    1    2  501    0  0.65212499171E+02  0.86383685655E+02  0.28646045197E+03  0.35129189175E+03  0.17213829172E+03 0.  0.
         24    2    5    5    0    0  0.14149096704E+02  0.11269963360E+03  0.24037854137E+03  0.27749736166E+03  0.79508101621E+02 0.  0.
          5    1    5    5  501    0  0.51063402467E+02 -0.26315947949E+02  0.46081910591E+02  0.73794530094E+02  0.47000000000E+01 0. -1.
        -11    1    6    6    0    0  0.31672822660E+02  0.48107193951E+02  0.17379505123E+03  0.18309065962E+03  0.00000000000E+00 0.  1.
         12    1    6    6    0    0 -0.17523725956E+02  0.64592439653E+02  0.66583490140E+02  0.94406702045E+02  0.00000000000E+00 0. -1.
         -5    1    3    3    0  503 -0.89127437900E+02 -0.14788378931E+02  0.10463909718E+02  0.91071289354E+02  0.47000000000E+01 0.  1.
         13    1    4    4    0    0 -0.32661426672E+01 -0.17823429125E+02  0.59980936336E+02  0.62658239980E+02  0.00000000000E+00 0. -1.
        -14    1    4    4    0    0  0.27181081396E+02 -0.53771877599E+02 -0.20384609745E+01  0.60285830255E+02  0.00000000000E+00 0.  1.
</event>
<event>
12    1  0.8052519E-002  0.2188062E+03  0.7818608E-02  0.1134915E+00
         21   -1    0    0  503  502  0.00000000000E+00  0.00000000000E+00  0.79202667084E+02  0.79202667084E+02  0.00000000000E+00 0.  1.
         21   -1    0    0  501  503 -0.00000000000E+00 -0.00000000000E+00 -0.23248429567E+04  0.23248429567E+04  0.00000000000E+00 0. -1.
          6    2    1    2  501    0  0.13330997597E+03 -0.18307019698E+02 -0.21579404369E+04  0.21690050909E+04  0.17253828190E+03 0.  0.
         24    2    3    3    0    0  0.11389870536E+03  0.76422020017E+01 -0.84208961013E+03  0.85274689142E+03  0.70929761058E+02 0.  0.
         -6    2    1    2    0  502 -0.13330997597E+03  0.18307019698E+02 -0.87699852744E+02  0.23504053286E+03  0.17159863417E+03 0.  0.
        -24    2    5    5    0    0 -0.12545831916E+03 -0.26895980548E+02 -0.23440824596E+02  0.15594393088E+03  0.85474286793E+02 0.  0.
          5    1    3    3  501    0  0.19411270614E+02 -0.25949221700E+02 -0.13158508268E+04  0.13162581995E+04  0.47000000000E+01 0. -1.
        -13    1    4    4    0    0 -0.16067314146E+01  0.18198360959E+02 -0.10185719466E+03  0.10348260739E+03  0.00000000000E+00 0.  1.
         14    1    4    4    0    0  0.11550543677E+03 -0.10556158957E+02 -0.74023241547E+03  0.74926428403E+03  0.00000000000E+00 0. -1.
         -5    1    5    5    0  502 -0.78516568095E+01  0.45203000246E+02 -0.64259028148E+02  0.79096601978E+02  0.47000000000E+01 0.  1.
         11    1    6    6    0    0 -0.10435365302E+03 -0.40505923440E+02 -0.47097302090E+02  0.12144369311E+03  0.00000000000E+00 0. -1.
        -12    1    6    6    0    0 -0.21104666147E+02  0.13609942892E+02  0.23656477494E+02  0.34500237769E+02  0.00000000000E+00 0.  1.
</event>
<event>
12    1  0.8052519E-002  0.1789296E+03  0.7818608E-02  0.1169500E+00
         21   -1    0    0  503  502  0.00000000000E+00  0.00000000000E+00  0.15559574727E+03  0.15559574727E+03  0.00000000000E+00 0.  1.
         21   -1    0    0  501  503 -0.00000000000E+00 -0.00000000000E+00 -0.21067879429E+03  0.21067879429E+03  0.00000000000E+00 0. -1.
          6    2    1    2  501    0  0.30533695853E+02 -0.35996909059E+02 -0.62979670804E+02  0.18717076147E+03  0.16981864141E+03 0.  0.
         24    2    3    3    0    0 -0.15578201378E+02  0.29757829388E+02 -0.62948111696E+02  0.10672149988E+03  0.79365011193E+02 0.  0.
         -6    2    1    2    0  502 -0.30533695853E+02  0.35996909059E+02  0.78966237789E+01  0.17910378009E+03  0.17259120294E+03 0.  0.
        -24    2    5    5    0    0 -0.47745638045E+02  0.39451620938E+02  0.64250992021E+02  0.11989152791E+03  0.80060677877E+02 0.  0.
          5    1    3    3  501    0  0.46111897231E+02 -0.65754738448E+02 -0.31559107365E-01  0.80449261591E+02  0.47000000000E+01 0. -1.
        -11    1    4    4    0    0 -0.43887352956E+02  0.35191387904E+02 -0.49420074858E+02  0.74879084737E+02  0.00000000000E+00 0.  1.
         12    1    4    4    0    0  0.28309151578E+02 -0.54335585160E+01 -0.13528036839E+02  0.31842415140E+02  0.00000000000E+00 0. -1.
         -5    1    5    5    0  502  0.17211942192E+02 -0.34547118785E+01 -0.56354368242E+02  0.59212252179E+02  0.47000000000E+01 0.  1.
         11    1    6    6    0    0 -0.38191624040E+02  0.43330338086E+02  0.30624743215E+01  0.57840272254E+02  0.00000000000E+00 0. -1.
        -12    1    6    6    0    0 -0.95540140050E+01 -0.38787171482E+01  0.61188517699E+02  0.62051255656E+02  0.00000000000E+00 0.  1.
</event>
<event>
12    1  0.8052519E-002  0.2496227E+03  0.7818608E-02  0.1113573E+00
         21   -1    0    0  503  502  0.00000000000E+00  0.00000000000E+00  0.45589496785E+03  0.45589496785E+03  0.00000000000E+00 0. -1.
         21   -1    0    0  501  503 -0.00000000000E+00 -0.00000000000E+00 -0.15048178139E+03  0.15048178139E+03  0.00000000000E+00 0. -1.
          6    2    1    2  501    0 -0.17472967677E+03  0.50624864851E+02  0.24481687887E+03  0.34950437461E+03  0.17065950547E+03 0.  0.
         24    2    3    3    0    0 -0.96450512785E+02  0.83456198713E+02  0.20842137088E+03  0.25702601498E+03  0.79719922339E+02 0.  0.
         -6    2    1    2    0  502  0.17472967677E+03 -0.50624864851E+02  0.60596307592E+02  0.25687237463E+03  0.17093322517E+03 0.  0.
        -24    2    5    5    0    0  0.13057386765E+03 -0.22657757133E+02 -0.29589023929E+02  0.15252977252E+03  0.69475983584E+02 0.  0.
          5    1    3    3  501    0 -0.78279163987E+02 -0.32831333861E+02  0.36395507987E+02  0.92478359627E+02  0.47000000000E+01 0. -1.
        -11    1    4    4    0    0  0.22983662806E+01  0.12633720037E+02 -0.29838256002E+01  0.13183193268E+02  0.00000000000E+00 0.  1.
         12    1    4    4    0    0 -0.98748879066E+02  0.70822478676E+02  0.21140519648E+03  0.24384282171E+03  0.00000000000E+00 0. -1.
         -5    1    5    5    0  502  0.44155809118E+02 -0.27967107718E+02  0.90185331521E+02  0.10434260211E+03  0.47000000000E+01 0.  1.
         13    1    6    6    0    0  0.13843200831E+02  0.18278926665E+02 -0.16267621110E+02  0.28113855407E+02  0.00000000000E+00 0. -1.
        -14    1    6    6    0    0  0.11673066682E+03 -0.40936683798E+02 -0.13321402819E+02  0.12441591711E+03  0.00000000000E+00 0.  1.
</event>
<event>
12    1  0.8052519E-002  0.1967914E+03  0.7818608E-02  0.1152611E+00
         21   -1    0    0  501  502  0.00000000000E+00  0.00000000000E+00  0.18212709874E+03  0.18212709874E+03  0.00000000000E+00 0.  1.
         21   -1    0    0  502  503 -0.00000000000E+00 -0.00000000000E+00 -0.23121419221E+03  0.23121419221E+03  0.00000000000E+00 0.  1.
         -6    2    1    2    0  503 -0.93945798118E+02  0.34621812812E+01  0.35067841171E+02  0.19989148509E+03  0.17288450666E+03 0.  0.
        -24    2    3    3    0    0  0.96372952182E+01  0.37791139223E+02  0.18573002657E+02  0.89428349720E+02  0.78303420379E+02 0.  0.
          6    2    1    2  501    0  0.93945798118E+02 -0.34621812812E+01 -0.84154934637E+02  0.21344980585E+03  0.17216552185E+03 0.  0.
         24    2    5    5    0    0  0.19939153189E+02 -0.57970443243E+02 -0.62379536328E+02  0.11887500960E+03  0.80510367249E+02 0.  0.
          5    1    5    5  501    0  0.74006644929E+02  0.54508261961E+02 -0.21775398309E+02  0.94574796258E+02  0.47000000000E+01 0. -1.
        -11    1    6    6    0    0  0.78221035642E+01  0.19532467550E+02 -0.22751543604E+02  0.30989277648E+02  0.00000000000E+00 0.  1.
         12    1    6    6    0    0  0.12117049625E+02 -0.77502910792E+02 -0.39627992724E+02  0.87885731949E+02  0.00000000000E+00 0. -1.
         -5    1    3    3    0  503 -0.10358309334E+03 -0.34328957942E+02  0.16494838514E+02  0.11046313537E+03  0.47000000000E+01 0.  1.
         11    1    4    4    0    0 -0.42520508125E+01  0.45741809634E+02  0.41204005338E+02  0.61710316322E+02  0.00000000000E+00 0. -1.
        -12    1    4    4    0    0  0.13889346031E+02 -0.79506704110E+01 -0.22631002680E+02  0.27718033398E+02  0.00000000000E+00 0.  1.
</event>
<event>
12    1  0.8052519E-002  0.3392432E+03  0.7818608E-02  0.1067479E+00
         21   -1    0    0  501  502  0.00000000000E+00  0.00000000000E+00  0.21622248545E+03  0.21622248545E+03  0.00000000000E+00 0. -1.
         21   -1    0    0  502  503 -0.00000000000E+00 -0.00000000000E+00 -0.80632692120E+03  0.80632692120E+03  0.00000000000E+00 0.  1.
         -6    2    1    2    0  503 -0.24039290176E+03 -0.16604140699E+03 -0.59692490255E+03  0.68658959400E+03  0.17241645881E+03 0.  0.
        -24    2    3    3    0    0 -0.78867811142E+02 -0.83540281983E+01 -0.17418258762E+03  0.20733097994E+03  0.79728539377E+02 0.  0.
          6    2    1    2  501    0  0.24039290176E+03  0.16604140699E+03  0.68204668001E+01  0.33595981264E+03  0.16572260224E+03 0.  0.
         24    2    5    5    0    0  0.92063624817E+02  0.11401592270E+03  0.49318373603E+02  0.17305988172E+03  0.77730811404E+02 0.  0.
          5    1    5    5  501    0  0.14832927694E+03  0.52025484284E+02 -0.42497906803E+02  0.16289993092E+03  0.47000000000E+01 0. -1.
        -13    1    6    6    0    0  0.24494898529E+02  0.12203634528E+02  0.42662081179E+02  0.50685125236E+02  0.00000000000E+00 0.  1.
         14    1    6    6    0    0  0.67568726288E+02  0.10181228817E+03  0.66562924241E+01  0.12237475648E+03  0.00000000000E+00 0. -1.
         -5    1    3    3    0  503 -0.16152509061E+03 -0.15768737879E+03 -0.42274231493E+03  0.47925861407E+03  0.47000000000E+01 0.  1.
         13    1    4    4    0    0 -0.19832452650E+02 -0.27841609305E+02 -0.16746565890E+02  0.38064798119E+02  0.00000000000E+00 0. -1.
        -14    1    4    4    0    0 -0.59035358493E+02  0.19487581106E+02 -0.15743602173E+03  0.16926618182E+03  0.00000000000E+00 0.  1.
</event>
<event>
12    1  0.8052519E-002  0.2688959E+03  0.7818608E-02  0.1101923E+00
         21   -1    0    0  503  502  0.00000000000E+00  0.00000000000E+00  0.21925337448E+04  0.21925337448E+04  0.00000000000E+00 0. -1.
         21   -1    0    0  501  503 -0.00000000000E+00 -0.00000000000E+00 -0.56831481094E+02  0.56831481094E+02  0.00000000000E+00 0.  1.
          6    2    1    2  501    0 -0.80192040124E+02 -0.18986138395E+03  0.33916082867E+03  0.43282220273E+03  0.17270461214E+03 0.  0.
         24    2    3    3    0    0 -0.11282170940E+03 -0.10173832892E+03  0.18967444713E+03  0.25619084535E+03  0.81104424415E+02 0.  0.
         -6    2    1    2    0  502  0.80192040124E+02  0.18986138395E+03  0.17965414351E+04  0.18165430232E+04  0.17259582502E+03 0.  0.
        -24    2    5    5    0    0  0.77193451935E+02  0.15264502167E+03  0.17280185944E+04  0.17383668194E+04  0.81311772946E+02 0.  0.
          5    1    3    3  501    0  0.32629669278E+02 -0.88123055028E+02  0.14948638154E+03  0.17663135738E+03  0.47000000000E+01 0. -1.
        -13    1    4    4    0    0 -0.37461129151E+02 -0.86204332782E+02  0.11964374574E+03  0.15214844423E+03  0.00000000000E+00 0.  1.
         14    1    4    4    0    0 -0.75360580251E+02 -0.15533996138E+02  0.70030701398E+02  0.10404240112E+03  0.00000000000E+00 0. -1.
         -5    1    5    5    0  502  0.29985881887E+01  0.37216362282E+02  0.68522840646E+02  0.78176203814E+02  0.47000000000E+01 0.  1.
         11    1    6    6    0    0  0.50246796599E+02  0.91672900533E+02  0.65599233002E+03  0.66426997396E+03  0.00000000000E+00 0. -1.
        -12    1    6    6    0    0  0.26946655336E+02  0.60972121133E+02  0.10720262644E+04  0.10740968454E+04  0.00000000000E+00 0.  1.
</event>
<event>
12    1  0.8052519E-002  0.3521032E+03  0.7818608E-02  0.1061795E+00
         21   -1    0    0  503  502  0.00000000000E+00  0.00000000000E+00  0.23380178488E+04  0.23380178488E+04  0.00000000000E+00 0.  1.
         21   -1    0    0  501  503 -0.00000000000E+00 -0.00000000000E+00 -0.76592900884E+02  0.76592900884E+02  0.00000000000E+00 0.  1.
          6    2    1    2  501    0 -0.28638854977E+02  0.30365905196E+03  0.46062230180E+03  0.57978407425E+03  0.17591948152E+03 0.  0.
         24    2    3    3    0    0 -0.12405632726E+02  0.21609449871E+03  0.42392539865E+03  0.48334849372E+03  0.84037436098E+02 0.  0.
         -6    2    1    2    0  502  0.28638854977E+02 -0.30365905196E+03  0.18008026461E+04  0.18348266754E+04  0.17512782416E+03 0.  0.
        -24    2    5    5    0    0  0.58711676267E+01 -0.12122719811E+03  0.11267840633E+04  0.11361687557E+04  0.80663572094E+02 0.  0.
          5    1    3    3  501    0 -0.16233222251E+02  0.87564553247E+02  0.36696903156E+02  0.96435580525E+02  0.47000000000E+01 0. -1.
        -13    1    4    4    0    0 -0.45142317696E+02  0.14801994137E+03  0.25464689964E+03  0.29798116616E+03  0.00000000000E+00 0.  1.
         14    1    4    4    0    0  0.32736684971E+02  0.68074557343E+02  0.16927849901E+03  0.18536732756E+03  0.00000000000E+00 0. -1.
         -5    1    5    5    0  502  0.22767687350E+02 -0.18243185385E+03  0.67401858278E+03  0.69865791974E+03  0.47000000000E+01 0.  1.
         13    1    6    6    0    0 -0.32406748928E+02 -0.54926332389E+02  0.66840304492E+03  0.67143855253E+03  0.00000000000E+00 0. -1.
        -14    1    6    6    0    0  0.38277916555E+02 -0.66300865719E+02  0.45838101842E+03  0.46473020317E+03  0.00000000000E+00 0.  1.
</event>
<event>
12    1  0.8052519E-002  0.3333565E+03  0.7818608E-02  0.1069747E+00
         21   -1    0    0  503  502  0.00000000000E+00  0.00000000000E+00  0.45406061648E+03  0.45406061648E+03  0.00000000000E+00 0.  1.
         21   -1    0    0  501  503 -0.00000000000E+00 -0.00000000000E+00 -0.31831332004E+03  0.31831332004E+03  0.00000000000E+00 0. -1.
          6    2    1    2  501    0 -0.24776785810E+03  0.13950330600E+03 -0.11857842828E+03  0.35307915260E+03  0.17249336351E+03 0.  0.
         24    2    3    3    0    0 -0.25364029686E+03  0.12862614566E+03 -0.71398212039E+02  0.30408057141E+03  0.80555593795E+02 0.  0.
         -6    2    1    2    0  502  0.24776785810E+03 -0.13950330600E+03  0.25432572472E+03  0.41929478392E+03  0.17400131515E+03 0.  0.
        -24    2    5    5    0    0  0.17288452941E+03 -0.37697690704E+02  0.95132467450E+02  0.21598103775E+03  0.79293416560E+02 0.  0.
          5    1    3    3  501    0  0.58724387554E+01  0.10877160339E+02 -0.47180216241E+02  0.48998581189E+02  0.47000000000E+01 0. -1.
        -11    1    4    4    0    0 -0.43608724434E+01 -0.35585481483E+01  0.90684128855E+01  0.10673171302E+02  0.00000000000E+00 0.  1.
         12    1    4    4    0    0 -0.24927942441E+03  0.13218469381E+03 -0.80466624924E+02  0.29340740011E+03  0.00000000000E+00 0. -1.
         -5    1    5    5    0  502  0.74883328688E+02 -0.10180561529E+03  0.15919325727E+03  0.20331374617E+03  0.47000000000E+01 0.  1.
         13    1    6    6    0    0  0.34409051019E+02  0.19939516898E+02  0.39366942769E+02  0.55958228252E+02  0.00000000000E+00 0. -1.
        -14    1    6    6    0    0  0.13847547839E+03 -0.57637207602E+02  0.55765524681E+02  0.16002280950E+03  0.00000000000E+00 0.  1.
</event>
<event>
12    1  0.8052519E-002  0.1868296E+03  0.7818608E-02  0.1161522E+00
         21   -1    0    0  503  502  0.00000000000E+00  0.00000000000E+00  0.58440060147E+03  0.58440060147E+03  0.00000000000E+00 0.  1.
         21   -1    0    0  501  503 -0.00000000000E+00 -0.00000000000E+00 -0.70926704642E+02  0.70926704642E+02  0.00000000000E+00 0.  1.
          6    2    1    2  501    0  0.69387635115E+02 -0.17498216061E+02  0.38871085913E+03  0.43127884299E+03  0.17258179779E+03 0.  0.
         24    2    3    3    0    0  0.67507242341E+02 -0.34794380752E+02  0.39673930173E+03  0.41154970006E+03  0.78760430298E+02 0.  0.
         -6    2    1    2    0  502 -0.69387635115E+02  0.17498216061E+02  0.12476303769E+03  0.22404846312E+03  0.17178785399E+03 0.  0.
        -24    2    5    5    0    0  0.21567399199E+02  0.40968131980E+02  0.78884927433E+02  0.11940360552E+03  0.76751864406E+02 0.  0.
          5    1    3    3  501    0  0.18803927743E+01  0.17296164691E+02 -0.80284426008E+01  0.19729142926E+02  0.47000000000E+01 0. -1.
        -13    1    4    4    0    0  0.60513096194E+02 -0.58669619257E+02  0.29418321886E+03  0.30601915837E+03  0.00000000000E+00 0.  1.
         14    1    4    4    0    0  0.69941461472E+01  0.23875238505E+02  0.10255608288E+03  0.10553054169E+03  0.00000000000E+00 0. -1.
         -5    1    5    5    0  502 -0.90955034315E+02 -0.23469915919E+02  0.45878110257E+02  0.10464485760E+03  0.47000000000E+01 0.  1.
         11    1    6    6    0    0 -0.17762998798E+02  0.25246792466E+02  0.11651797144E+01  0.30891459983E+02  0.00000000000E+00 0. -1.
        -12    1    6    6    0    0  0.39330397997E+02  0.15721339514E+02  0.77719747719E+02  0.88512145540E+02  0.00000000000E+00 0.  1.
</event>
<event>
12    1  0.8052519E-002  0.1999315E+03  0.7818608E-02  0.1149901E+00
         21   -1    0    0  503  502  0.00000000000E+00  0.00000000000E+00  0.33225051821E+02  0.33225051821E+02  0.00000000000E+00 0. -1.
         21   -1    0    0  501  503 -0.00000000000E+00 -0.00000000000E+00 -0.13958022345E+04  0.13958022345E+04  0.00000000000E+00 0. -1.
          6    2    1    2  501    0  0.94201666378E+02  0.36567108478E+02 -0.94954887608E+03  0.97036882673E+03  0.17251517168E+03 0.  0.
         24    2    3    3    0    0  0.48675281007E+01 -0.16983396823E+02 -0.19196576464E+03  0.20564501671E+03  0.71602300982E+02 0.  0.
         -6    2    1    2    0  502 -0.94201666378E+02 -0.36567108478E+02 -0.41302830663E+03  0.45865845962E+03  0.17194212146E+03 0.  0.
        -24    2    5    5    0    0 -0.61089524504E+02  0.24268434259E+02 -0.12496506832E+03  0.16234798652E+03  0.80123114784E+02 0.  0.
          5    1    3    3  501    0  0.89334138277E+02  0.53550505301E+02 -0.75758311144E+03  0.76472381002E+03  0.47000000000E+01 0. -1.
        -13    1    4    4    0    0 -0.25937117311E+02 -0.27801069522E+02 -0.13200671574E+03  0.13737323802E+03  0.00000000000E+00 0.  1.
         14    1    4    4    0    0  0.30804645412E+02  0.10817672700E+02 -0.59959048894E+02  0.68271778693E+02  0.00000000000E+00 0. -1.
         -5    1    5    5    0  502 -0.33112141874E+02 -0.60835542737E+02 -0.28806323831E+03  0.29631047310E+03  0.47000000000E+01 0.  1.
         11    1    6    6    0    0  0.63146591101E+01  0.15410965078E+02  0.34863015639E+01  0.17015494789E+02  0.00000000000E+00 0. -1.
        -12    1    6    6    0    0 -0.67404183614E+02  0.88574691809E+01 -0.12845136988E+03  0.14533249173E+03  0.00000000000E+00 0.  1.
</event>
<event>
12    1  0.8052519E-002  0.2133782E+03  0.7818608E-02  0.1139488E+00
         21   -1    0    0  503  502  0.00000000000E+00  0.00000000000E+00  0.34487915257E+03  0.34487915257E+03  0.00000000000E+00 0.  1.
         21   -1    0    0  501  503 -0.00000000000E+00 -0.00000000000E+00 -0.13204433838E+03  0.13204433838E+03  0.00000000000E+00 0. -1.
          6    2    1    2  501    0  0.12456579052E+03  0.20522541479E+02  0.79112956199E+02  0.22757226838E+03  0.17202461051E+03 0.  0.
         24    2    3    3    0    0  0.10640519278E+03 -0.33430063131E+02  0.10164001347E+02  0.13803602304E+03  0.80690783627E+02 0.  0.
         -6    2    1    2    0  502 -0.12456579052E+03 -0.20522541479E+02  0.13372185799E+03  0.24935122256E+03  0.16839443582E+03 0.  0.
        -24    2    5    5    0    0 -0.12315509198E+03 -0.42759883478E+02  0.49463627329E+02  0.16206990221E+03  0.82610038483E+02 0.  0.
          5    1    3    3  501    0  0.18160597736E+02  0.53952604610E+02  0.68948954853E+02  0.89536245340E+02  0.47000000000E+01 0. -1.
        -11    1    4    4    0    0 -0.13484726054E+02 -0.38388939296E+01 -0.92734503398E+00  0.14051153411E+02  0.00000000000E+00 0.  1.
         12    1    4    4    0    0  0.11988991884E+03 -0.29591169201E+02  0.11091346381E+02  0.12398486963E+03  0.00000000000E+00 0. -1.
         -5    1    5    5    0  502 -0.14106985408E+01  0.22237341999E+02  0.84258230657E+02  0.87281320355E+02  0.47000000000E+01 0.  1.
         11    1    6    6    0    0  0.18159003467E+01 -0.15827645409E+02 -0.12265999070E+02  0.20106381734E+02  0.00000000000E+00 0. -1.
        -12    1    6    6    0    0 -0.12497099232E+03 -0.26932238069E+02  0.61729626399E+02  0.14196352047E+03  0.00000000000E+00 0.  1.
</event>
<event>
12    1  0.8052519E-002  0.2243290E+03  0.7818608E-02  0.1131099E+00
         21   -1    0    0  501  502  0.00000000000E+00  0.00000000000E+00  0.20672955813E+03  0.20672955813E+03  0.00000000000E+00 0. -1.
         21   -1    0    0  502  503 -0.00000000000E+00 -0.00000000000E+00 -0.25701031084E+03  0.25701031084E+03  0.00000000000E+00 0.  1.
         -6    2    1    2    0  503  0.14073103899E+03  0.10250601238E+02 -0.82820440664E+02  0.23706317730E+03  0.17155006407E+03 0.  0.
        -24    2    3    3    0    0  0.82468316038E+02 -0.18336627301E+02  0.17052209193E+02  0.11786413909E+03  0.80398522341E+02 0.  0.
          6    2    1    2  501    0 -0.14073103899E+03 -0.10250601238E+02  0.32539687951E+02  0.22667669167E+03  0.17439378169E+03 0.  0.
         24    2    5    5    0    0 -0.12597736143E+03 -0.12999977601E+02 -0.37342058510E+02  0.15504723851E+03  0.81276822178E+02 0.  0.
          5    1    5    5  501    0 -0.14753677558E+02  0.27493763634E+01  0.69881746462E+02  0.71629453163E+02  0.47000000000E+01 0. -1.
        -11    1    6    6    0    0 -0.85329370892E+02  0.10691445021E+02 -0.57933244402E+02  0.10369025673E+03  0.00000000000E+00 0.  1.
         12    1    6    6    0    0 -0.40647990540E+02 -0.23691422622E+02  0.20591185892E+02  0.51356981777E+02  0.00000000000E+00 0. -1.
         -5    1    3    3    0  503  0.58262722952E+02  0.28587228539E+02 -0.99872649857E+02  0.11919903821E+03  0.47000000000E+01 0.  1.
         11    1    4    4    0    0  0.47737139798E+02  0.29363171316E+02 -0.13359735669E+01  0.56060816719E+02  0.00000000000E+00 0. -1.
        -12    1    4    4    0    0  0.34731176240E+02 -0.47699798617E+02  0.18388182760E+02  0.61803322373E+02  0.00000000000E+00 0.  1.
</event>
<event>
12    1  0.8052519E-002  0.2832350E+03  0.7818608E-02  0.1094215E+00
         21   -1    0    0  503  502  0.00000000000E+00  0.00000000000E+00  0.42909076829E+03  0.42909076829E+03  0.00000000000E+00 0. -1.
         21   -1    0    0  501  503 -0.00000000000E+00 -0.00000000000E+00 -0.19818511700E+03  0.19818511700E+03  0.00000000000E+00 0.  1.
          6    2    1    2  501    0  0.13320691666E+03 -0.17947983878E+03  0.19411656143E+03  0.34166161674E+03  0.17057058879E+03 0.  0.
         24    2    3    3    0    0  0.63116604420E+02 -0.65793278078E+02  0.16840564520E+03  0.20557184061E+03  0.74745294986E+02 0.  0.
         -6    2    1    2    0  502 -0.13320691666E+03  0.17947983878E+03  0.36789089861E+02  0.28561426855E+03  0.17396832496E+03 0.  0.
        -24    2    5    5    0    0 -0.48430266143E+02  0.17400724392E+03  0.27288327649E+02  0.20000244547E+03  0.81439018626E+02 0.  0.
          5    1    3    3  501    0  0.70090312244E+02 -0.11368656070E+03  0.25710916230E+02  0.13608977613E+03  0.47000000000E+01 0. -1.
        -11    1    4    4    0    0  0.56967029556E+02 -0.44500742431E+02  0.57205853440E+02  0.92184967328E+02  0.00000000000E+00 0.  1.
         12    1    4    4    0    0  0.61495748646E+01 -0.21292535646E+02  0.11119979176E+03  0.11338687328E+03  0.00000000000E+00 0. -1.
         -5    1    5    5    0  502 -0.84776650522E+02  0.54725948643E+01  0.95007622123E+01  0.85611823079E+02  0.47000000000E+01 0.  1.
         11    1    6    6    0    0 -0.59806067200E+02  0.75677304605E+02  0.29893504039E+02  0.10098238307E+03  0.00000000000E+00 0. -1.
        -12    1    6    6    0    0  0.11375801057E+02  0.98329939310E+02 -0.26051763896E+01  0.99020062404E+02  0.00000000000E+00 0.  1.
</event>
<event>
12    1  0.8052519E-002  0.1778671E+03  0.7818608E-02  0.1169918E+00
         21   -1    0    0  501  502  0.00000000000E+00  0.00000000000E+00  0.97312511034E+03  0.97312511034E+03  0.00000000000E+00 0. -1.
         21   -1    0    0  502  503 -0.00000000000E+00 -0.00000000000E+00 -0.96017368068E+02  0.96017368068E+02  0.00000000000E+00 0. -1.
         -6    2    1    2    0  503  0.27266949454E+02  0.32775864242E+02  0.37726559958E+01  0.17790705702E+03  0.17268162669E+03 0.  0.
        -24    2    3    3    0    0 -0.21831155921E+02  0.19876279369E+02 -0.54330643477E+02  0.10060824299E+03  0.79363303147E+02 0.  0.
          6    2    1    2  501    0 -0.27266949454E+02 -0.32775864242E+02  0.87333508628E+03  0.89123542139E+03  0.17253596611E+03 0.  0.
         24    2    5    5    0    0 -0.23949468901E+01  0.33606388176E+02  0.26504316309E+03  0.27880879414E+03  0.79695296544E+02 0.  0.
          5    1    5    5  501    0 -0.24872002564E+02 -0.66382252418E+02  0.60829192318E+03  0.61242662724E+03  0.47000000000E+01 0. -1.
        -13    1    6    6    0    0 -0.32160936891E+02  0.40266657069E+02  0.20605071641E+03  0.21239733348E+03  0.00000000000E+00 0.  1.
         14    1    6    6    0    0  0.29765990000E+02 -0.66602688929E+01  0.58992446680E+02  0.66411460665E+02  0.00000000000E+00 0. -1.
         -5    1    3    3    0  503  0.49098105375E+02  0.12899584873E+02  0.58103299473E+02  0.77298814033E+02  0.47000000000E+01 0.  1.
         13    1    4    4    0    0  0.11321612390E+02  0.38846795609E+02 -0.46458479360E+02  0.61608787853E+02  0.00000000000E+00 0. -1.
        -14    1    4    4    0    0 -0.33152768311E+02 -0.18970516240E+02 -0.78721641175E+01  0.38999455137E+02  0.00000000000E+00 0.  1.
</event>
<event>
12    1  0.8052519E-002  0.2191483E+03  0.7818608E-02  0.1134552E+00
         21   -1    0    0  501  502  0.00000000000E+00  0.00000000000E+00  0.18769080731E+03  0.18769080731E+03  0.00000000000E+00 0.  1.
         21   -1    0    0  502  503 -0.00000000000E+00 -0.00000000000E+00 -0.17945183832E+04  0.17945183832E+04  0.00000000000E+00 0.  1.
         -6    2    1    2    0  503  0.13510581953E+03  0.52391873486E+01 -0.17211569198E+04  0.17350307275E+04  0.17224822566E+03 0.  0.
        -24    2    3    3    0    0  0.21037801657E+02  0.25841878871E+02 -0.43169878630E+03  0.44036461160E+03  0.80291701058E+02 0.  0.
          6    2    1    2  501    0 -0.13510581953E+03 -0.52391873486E+01  0.11432934397E+03  0.24717846295E+03  0.17246727833E+03 0.  0.
         24    2    5    5    0    0 -0.92216438545E+02  0.62357011799E+02  0.59180304958E+02  0.14985296965E+03  0.81002071334E+02 0.  0.
          5    1    5    5  501    0 -0.42889380988E+02 -0.67596199148E+02  0.55149039011E+02  0.97325493292E+02  0.47000000000E+01 0. -1.
        -13    1    6    6    0    0 -0.99591695449E+02  0.29352250942E+02  0.43374348486E+02  0.11252286232E+03  0.00000000000E+00 0.  1.
         14    1    6    6    0    0  0.73752569035E+01  0.33004760857E+02  0.15805956473E+02  0.37330107335E+02  0.00000000000E+00 0. -1.
         -5    1    3    3    0  503  0.11406801788E+03 -0.20602691522E+02 -0.12894581335E+04  0.12946661159E+04  0.47000000000E+01 0.  1.
         13    1    4    4    0    0  0.45583640185E+02  0.83606206500E+01 -0.14841185197E+03  0.15547940711E+03  0.00000000000E+00 0. -1.
        -14    1    4    4    0    0 -0.24545838527E+02  0.17481258221E+02 -0.28328693433E+03  0.28488520449E+03  0.00000000000E+00 0.  1.
</event>
<event>
12    1  0.8052519E-002  0.1901140E+03  0.7818608E-02  0.1158529E+00
         21   -1    0    0  501  502  0.00000000000E+00  0.00000000000E+00  0.10662396806E+04  0.10662396806E+04  0.00000000000E+00 0. -1.
         21   -1    0    0  502  503 -0.00000000000E+00 -0.00000000000E+00 -0.38690842490E+03  0.38690842490E+03  0.00000000000E+00 0. -1.
         -6    2    1    2    0  503 -0.39454367984E+02  0.67917861038E+02 -0.35454130621E+03  0.40194127704E+03  0.17230139110E+03 0.  0.
        -24    2    3    3    0    0 -0.42704516755E+02  0.11181789588E+03 -0.25501198445E+03  0.29301032452E+03  0.80604097104E+02 0.  0.
          6    2    1    2  501    0  0.39454367984E+02 -0.67917861038E+02  0.10338725619E+04  0.10512068284E+04  0.17312954373E+03 0.  0.
         24    2    5    5    0    0  0.35913784360E+02 -0.11006429267E+03  0.64997296004E+03  0.66495580677E+03  0.79356334040E+02 0.  0.
          5    1    5    5  501    0  0.35405836240E+01  0.42146431627E+02  0.38389960187E+03  0.38625102168E+03  0.47000000000E+01 0.  1.
        -13    1    6    6    0    0 -0.21098120854E+02 -0.68497536463E+01  0.11871331678E+03  0.12076796516E+03  0.00000000000E+00 0.  1.
         14    1    6    6    0    0  0.57011905214E+02 -0.10321453902E+03  0.53125964326E+03  0.54418784161E+03  0.00000000000E+00 0. -1.
         -5    1    3    3    0  503  0.32501487705E+01 -0.43900034844E+02 -0.99529321761E+02  0.10893095252E+03  0.47000000000E+01 0.  1.
         11    1    4    4    0    0 -0.30754316367E+00 -0.74469734681E+01 -0.60388886694E+02  0.60847100447E+02  0.00000000000E+00 0. -1.
        -12    1    4    4    0    0 -0.42396973591E+02  0.11926486935E+03 -0.19462309776E+03  0.23216322407E+03  0.00000000000E+00 0.  1.
</event>
<event>
12    1  0.8052519E-002  0.1799421E+03  0.7818608E-02  0.1169924E+00
         21   -1    0    0  503  502  0.00000000000E+00  0.00000000000E+00  0.64477776295E+03  0.64477776295E+03  0.00000000000E+00 0.  1.
         21   -1    0    0  501  503 -0.00000000000E+00 -0.00000000000E+00 -0.51550121967E+02  0.51550121967E+02  0.00000000000E+00 0.  1.
          6    2    1    2  501    0 -0.10578064581E+02 -0.52098386423E+02  0.39545451938E+03  0.43446912524E+03  0.17190987923E+03 0.  0.
         24    2    3    3    0    0  0.47166308089E+02 -0.53201309018E+02  0.15610330831E+03  0.18820357497E+03  0.77442255037E+02 0.  0.
         -6    2    1    2    0  502  0.10578064581E+02  0.52098386423E+02  0.19777312161E+03  0.26185875968E+03  0.16318598307E+03 0.  0.
        -24    2    5    5    0    0 -0.50782213291E+02  0.65859850104E+02  0.11512546797E+03  0.15790114218E+03  0.69011189563E+02 0.  0.
          5    1    3    3  501    0 -0.57744372670E+02  0.11029225954E+01  0.23935121106E+03  0.24626555027E+03  0.47000000000E+01 0. -1.
        -11    1    4    4    0    0  0.10497987659E+00 -0.46286244624E+02  0.34805084192E+02  0.57912186523E+02  0.00000000000E+00 0.  1.
         12    1    4    4    0    0  0.47061328212E+02 -0.69150643941E+01  0.12129822412E+03  0.13029138845E+03  0.00000000000E+00 0. -1.
         -5    1    5    5    0  502  0.61360277872E+02 -0.13761463681E+02  0.82647653637E+02  0.10395761749E+03  0.47000000000E+01 0.  1.
         11    1    6    6    0    0 -0.13686665314E+02  0.68242251473E+02  0.63001541078E+02  0.93880370002E+02  0.00000000000E+00 0. -1.
        -12    1    6    6    0    0 -0.37095547977E+02 -0.23824013690E+01  0.52123926892E+02  0.64020772181E+02  0.00000000000E+00 0.  1.
</event>
<event>
12    1  0.8052519E-002  0.1829305E+03  0.7818608E-02  0.1167329E+00
         21   -1    0    0  503  502  0.00000000000E+00  0.00000000000E+00  0.57410510885E+03  0.57410510885E+03  0.00000000000E+00 0.  1.
         21   -1    0    0  501  503 -0.00000000000E+00 -0.00000000000E+00 -0.95226099442E+02  0.95226099442E+02  0.00000000000E+00 0.  1.
          6    2    1    2  501    0 -0.32080620763E+01  0.16913519119E+02  0.26460645113E+02  0.18483436990E+03  0.18211869691E+03 0.  0.
         24    2    3    3    0    0 -0.48370800239E+02 -0.24073123663E+02  0.61468795860E+02  0.11435573183E+03  0.79872216322E+02 0.  0.
         -6    2    1    2    0  502  0.32080620763E+01 -0.16913519119E+02  0.45241836430E+03  0.48449683840E+03  0.17250638037E+03 0.  0.
        -24    2    5    5    0    0 -0.49821830617E+02 -0.27215347277E+02  0.16223915720E+03  0.18929460362E+03  0.79296991734E+02 0.  0.
          5    1    3    3  501    0  0.45162738163E+02  0.40986642781E+02 -0.35008150747E+02  0.70478638065E+02  0.47000000000E+01 0. -1.
        -13    1    4    4    0    0 -0.42176999056E+02  0.22263374833E+02  0.42582895716E+02  0.63936375530E+02  0.00000000000E+00 0.  1.
         14    1    4    4    0    0 -0.61938011827E+01 -0.46336498495E+02  0.18885900144E+02  0.50419356304E+02  0.00000000000E+00 0. -1.
         -5    1    5    5    0  502  0.53029892693E+02  0.10301828158E+02  0.29017920710E+03  0.29520223478E+03  0.47000000000E+01 0.  1.
         11    1    6    6    0    0  0.15441101630E+02 -0.10825938312E+02  0.70283102644E+01  0.20125250434E+02  0.00000000000E+00 0. -1.
        -12    1    6    6    0    0 -0.65262932246E+02 -0.16389408965E+02  0.15521084693E+03  0.16916935318E+03  0.00000000000E+00 0.  1.
</event>
<event>
12    1  0.8052519E-002  0.2022025E+03  0.7818608E-02  0.1148005E+00
         21   -1    0    0  501  502  0.00000000000E+00  0.00000000000E+00  0.19276495264E+03  0.19276495264E+03  0.00000000000E+00 0. -1.
         21   -1    0    0  502  503 -0.00000000000E+00 -0.00000000000E+00 -0.44368025574E+03  0.44368025574E+03  0.00000000000E+00 0. -1.
         -6    2    1    2    0  503 -0.49130765829E+02 -0.93318924083E+02 -0.35555954511E+03  0.40876944636E+03  0.17189420121E+03 0.  0.
        -24    2    3    3    0    0  0.10608207596E+02  0.99702740540E+01 -0.18594444255E+03  0.20133565833E+03  0.75820651322E+02 0.  0.
          6    2    1    2  501    0  0.49130765829E+02  0.93318924083E+02  0.10464424202E+03  0.22767576202E+03  0.17252124936E+03 0.  0.
         24    2    5    5    0    0 -0.21727568552E+01 -0.23690761169E+02 -0.15173310647E+01  0.61496077693E+02  0.56687672742E+02 0.  0.
          5    1    5    5  501    0  0.51303522684E+02  0.11700968525E+03  0.10616157308E+03  0.16617968432E+03  0.47000000000E+01 0. -1.
        -11    1    6    6    0    0 -0.30651291586E+01  0.10116317668E+02 -0.20244730855E+02  0.22838214188E+02  0.00000000000E+00 0.  1.
         12    1    6    6    0    0  0.89237230342E+00 -0.33807078838E+02  0.18727399790E+02  0.38657863505E+02  0.00000000000E+00 0. -1.
         -5    1    3    3    0  503 -0.59738973425E+02 -0.10328919814E+03 -0.16961510256E+03  0.20743378803E+03  0.47000000000E+01 0.  1.
         11    1    4    4    0    0  0.16523844316E+02  0.94712565515E+01 -0.19194913923E+03  0.19289171621E+03  0.00000000000E+00 0. -1.
        -12    1    4    4    0    0 -0.59156367198E+01  0.49901750251E+00  0.60046966808E+01  0.84439421182E+01  0.00000000000E+00 0.  1.
</event>
<event>
12    1  0.8052519E-002  0.3045894E+03  0.7818608E-02  0.1083214E+00
         21   -1    0    0  501  502  0.00000000000E+00  0.00000000000E+00  0.29010858251E+03  0.29010858251E+03  0.00000000000E+00 0.  1.
         21   -1    0    0  502  503 -0.00000000000E+00 -0.00000000000E+00 -0.31951664878E+03  0.31951664878E+03  0.00000000000E+00 0.  1.
         -6    2    1    2    0  503 -0.12068024428E+03 -0.22200288840E+03 -0.37647402047E+02  0.30492437701E+03  0.16647085330E+03 0.  0.
        -24    2    3    3    0    0 -0.26770816774E+02 -0.12361045662E+03  0.27521122163E+02  0.15403011684E+03  0.83496365862E+02 0.  0.
          6    2    1    2  501    0  0.12068024428E+03  0.22200288840E+03  0.82393357836E+01  0.30470085428E+03  0.17007563061E+03 0.  0.
         24    2    5    5    0    0  0.12798516396E+03  0.23296666694E+03 -0.10137083328E+02  0.28160650279E+03  0.92443452212E+02 0.  0.
          5    1    5    5  501    0 -0.73049196812E+01 -0.10963778540E+02  0.18376419111E+02  0.23094351491E+02  0.47000000000E+01 0. -1.
        -13    1    6    6    0    0  0.86526139451E+02  0.16380010202E+03  0.35979544274E+02  0.18871082067E+03  0.00000000000E+00 0.  1.
         14    1    6    6    0    0  0.41459024506E+02  0.69166564913E+02 -0.46116627602E+02  0.92895682119E+02  0.00000000000E+00 0. -1.
         -5    1    3    3    0  503 -0.93909427502E+02 -0.98392431778E+02 -0.65168524210E+02  0.15089426017E+03  0.47000000000E+01 0.  1.
         13    1    4    4    0    0 -0.18700285196E+02 -0.13567703812E+03  0.23444241698E+02  0.13895176072E+03  0.00000000000E+00 0. -1.
        -14    1    4    4    0    0 -0.80705315780E+01  0.12066581496E+02  0.40768804650E+01  0.15078356120E+02  0.00000000000E+00 0.  1.
</event>
<event>
12    1  0.8052519E-002  0.2629239E+03  0.7818608E-02  0.1105750E+00
         21   -1    0    0  503  502  0.00000000000E+00  0.00000000000E+00  0.62279852772E+03  0.62279852772E+03  0.00000000000E+00 0. -1.
         21   -1    0    0  501  503 -0.00000000000E+00 -0.00000000000E+00 -0.11100434483E+03  0.11100434483E+03  0.00000000000E+00 0. -1.
          6    2    1    2  501    0  0.19493768445E+03 -0.36045986732E+02  0.22222869359E+03  0.34425945607E+03  0.17271064491E+03 0.  0.
         24    2    3    3    0    0  0.61673760047E+02 -0.12117844807E+02  0.17624221144E+03  0.20119067519E+03  0.73931561939E+02 0.  0.
         -6    2    1    2    0  502 -0.19493768445E+03  0.36045986732E+02  0.28956548930E+03  0.38954341648E+03  0.16910318376E+03 0.  0.
        -24    2    5    5    0    0 -0.12774094948E+03 -0.29735691730E+02  0.23448132856E+03  0.28046094688E+03  0.80466687156E+02 0.  0.
          5    1    3    3  501    0  0.13326392440E+03 -0.23928141925E+02  0.45986482154E+02  0.14306878088E+03  0.47000000000E+01 0. -1.
        -13    1    4    4    0    0 -0.15190134466E+02  0.77305509596E+01  0.40484199965E+02  0.43925756112E+02  0.00000000000E+00 0.  1.
         14    1    4    4    0    0  0.76863894513E+02 -0.19848395766E+02  0.13575801147E+03  0.15726491908E+03  0.00000000000E+00 0. -1.
         -5    1    5    5    0  502 -0.67196734967E+02  0.65781678461E+02  0.55084160733E+02  0.10908246961E+03  0.47000000000E+01 0.  1.
         13    1    6    6    0    0 -0.10725309901E+03  0.11373723564E+02  0.16009131321E+03  0.19303320284E+03  0.00000000000E+00 0. -1.
        -14    1    6    6    0    0 -0.20487850472E+02 -0.41109415293E+02  0.74390015349E+02  0.87427744031E+02  0.00000000000E+00 0.  1.
</event>
<event>
12    1  0.8052519E-002  0.2092063E+03  0.7818608E-02  0.1142606E+00
         21   -1    0    0  503  502  0.00000000000E+00  0.00000000000E+00  0.26030965483E+02  0.26030965483E+02  0.00000000000E+00 0.  1.
         21   -1    0    0  501  503 -0.00000000000E+00 -0.00000000000E+00 -0.16680741537E+04  0.16680741537E+04  0.00000000000E+00 0.  1.
          6    2    1    2  501    0  0.57865316899E+02 -0.99317701211E+02 -0.78026632120E+03  0.80729812736E+03  0.17234365018E+03 0.  0.
         24    2    3    3    0    0  0.10401496495E+03 -0.79735601432E+02 -0.64675267934E+03  0.66460534123E+03  0.78957914739E+02 0.  0.
         -6    2    1    2    0  502 -0.57865316899E+02  0.99317701211E+02 -0.86177686700E+03  0.88680699181E+03  0.17479951818E+03 0.  0.
        -24    2    5    5    0    0  0.38192020879E+02  0.39949865801E+02 -0.41319233898E+03  0.42420379165E+03  0.78525955082E+02 0.  0.
          5    1    3    3  501    0 -0.46149648050E+02 -0.19582099779E+02 -0.13351364187E+03  0.14269278612E+03  0.47000000000E+01 0. -1.
        -11    1    4    4    0    0  0.70244834820E+02 -0.89280084332E+02 -0.55186774674E+03  0.56343879896E+03  0.00000000000E+00 0.  1.
         12    1    4    4    0    0  0.33770130130E+02  0.95444829005E+01 -0.94884932596E+02  0.10116654228E+03  0.00000000000E+00 0. -1.
         -5    1    5    5    0  502 -0.96057337778E+02  0.59367835409E+02 -0.44858452801E+03  0.46260320016E+03  0.47000000000E+01 0.  1.
         11    1    6    6    0    0 -0.13872240740E+02 -0.14398651371E+02 -0.66730053686E+02  0.69661038533E+02  0.00000000000E+00 0. -1.
        -12    1    6    6    0    0  0.52064261619E+02  0.54348517172E+02 -0.34646228530E+03  0.35454275312E+03  0.00000000000E+00 0.  1.
</event>
<event>
12    1  0.8052519E-002  0.4595905E+03  0.7818608E-02  0.1024976E+00
         21   -1    0    0  503  502  0.00000000000E+00  0.00000000000E+00  0.69869708416E+03  0.69869708416E+03  0.00000000000E+00 0.  1.
         21   -1    0    0  501  503 -0.00000000000E+00 -0.00000000000E+00 -0.58273099510E+03  0.58273099510E+03  0.00000000000E+00 0.  1.
          6    2    1    2  501    0  0.38779908407E+03  0.17583195679E+03 -0.38705915222E+03  0.60006338756E+03  0.17016543463E+03 0.  0.
         24    2    3    3    0    0  0.17808255749E+03  0.13947578234E+03 -0.25229974542E+03  0.34810112717E+03  0.79701581278E+02 0.  0.
         -6    2    1    2    0  502 -0.38779908407E+03 -0.17583195679E+03  0.50302524128E+03  0.68136469171E+03  0.17296948607E+03 0.  0.
        -24    2    5    5    0    0 -0.92956248105E+02 -0.76187348947E+02  0.11943261600E+03  0.18737406634E+03  0.79996967244E+02 0.  0.
          5    1    3    3  501    0  0.20971652658E+03  0.36356174457E+02 -0.13475940680E+03  0.25196226039E+03  0.47000000000E+01 0. -1.
        -13    1    4    4    0    0  0.10771165643E+02  0.46119369254E+02 -0.38682952945E+02  0.61150511676E+02  0.00000000000E+00 0.  1.
         14    1    4    4    0    0  0.16731139185E+03  0.93356413082E+02 -0.21361679247E+03  0.28695061549E+03  0.00000000000E+00 0. -1.
         -5    1    5    5    0  502 -0.29484283597E+03 -0.99644607846E+02  0.38359262527E+03  0.49399062537E+03  0.47000000000E+01 0.  1.
         11    1    6    6    0    0  0.11885863821E+02 -0.53219744582E+01  0.29141638821E+02  0.31919152308E+02  0.00000000000E+00 0. -1.
        -12    1    6    6    0    0 -0.10484211193E+03 -0.70865374489E+02  0.90290977183E+02  0.15545491403E+03  0.00000000000E+00 0.  1.
</event>
<event>
12    1  0.8052519E-002  0.2185784E+03  0.7818608E-02  0.1134998E+00
         21   -1    0    0  501  502  0.00000000000E+00  0.00000000000E+00  0.26365734956E+03  0.26365734956E+03  0.00000000000E+00 0. -1.
         21   -1    0    0  502  503 -0.00000000000E+00 -0.00000000000E+00 -0.18343689020E+03  0.18343689020E+03  0.00000000000E+00 0. -1.
         -6    2    1    2    0  503 -0.12835382724E+03 -0.40013762555E+02  0.14281146714E+02  0.21904446036E+03  0.17233896339E+03 0.  0.
        -24    2    3    3    0    0 -0.14361638989E+03  0.60315713024E+01 -0.95603190718E+01  0.16478928476E+03  0.80012882552E+02 0.  0.
          6    2    1    2  501    0  0.12835382724E+03  0.40013762555E+02  0.65939312645E+02  0.22804977940E+03  0.17199681035E+03 0.  0.
         24    2    5    5    0    0  0.56000371685E+02 -0.14248965361E+02 -0.22157889990E+02  0.10170630594E+03  0.80710135283E+02 0.  0.
          5    1    5    5  501    0  0.72353455554E+02  0.54262727916E+02  0.88097202635E+02  0.12634347345E+03  0.47000000000E+01 0. -1.
        -11    1    6    6    0    0  0.20663909654E+02  0.32047406978E+02  0.30300232386E+01  0.38251986838E+02  0.00000000000E+00 0.  1.
         12    1    6    6    0    0  0.35336462031E+02 -0.46296372339E+02 -0.25187913229E+02  0.63454319107E+02  0.00000000000E+00 0. -1.
         -5    1    3    3    0  503  0.15262562649E+02 -0.46045333858E+02  0.23841465786E+02  0.54255175601E+02  0.47000000000E+01 0.  1.
         11    1    4    4    0    0 -0.66960342833E+02 -0.49849794601E+01  0.34708583802E+02  0.75585867212E+02  0.00000000000E+00 0. -1.
        -12    1    4    4    0    0 -0.76656047054E+02  0.11016550762E+02 -0.44268902874E+02  0.89203417549E+02  0.00000000000E+00 0.  1.
</event>
<event>
12    1  0.8052519E-002  0.1886173E+03  0.7818608E-02  0.1160054E+00
         21   -1    0    0  501  502  0.00000000000E+00  0.00000000000E+00  0.56632634153E+03  0.56632634153E+03  0.00000000000E+00 0. -1.
         21   -1    0    0  502  503 -0.00000000000E+00 -0.00000000000E+00 -0.62375977139E+02  0.62375977139E+02  0.00000000000E+00 0.  1.
         -6    2    1    2    0  503  0.11611688583E+02  0.76040779286E+02  0.24405140813E+03  0.30844381438E+03  0.17221923642E+03 0.  0.
        -24    2    3    3    0    0 -0.50876476648E+02  0.82490407197E+02  0.17037155403E+03  0.21150476448E+03  0.79465186222E+02 0.  0.
          6    2    1    2  501    0 -0.11611688583E+02 -0.76040779286E+02  0.25989895626E+03  0.32025850429E+03  0.17059018342E+03 0.  0.
         24    2    5    5    0    0 -0.58170885014E+02 -0.95818993023E+00  0.13781726970E+03  0.16948986634E+03  0.79677129543E+02 0.  0.
          5    1    5    5  501    0  0.46559196431E+02 -0.75082589356E+02  0.12208168656E+03  0.15076863795E+03  0.47000000000E+01 0. -1.
        -13    1    6    6    0    0 -0.79836886089E+01 -0.33130396400E+01 -0.10087596884E+02  0.13284394091E+02  0.00000000000E+00 0.  1.
         14    1    6    6    0    0 -0.50187196405E+02  0.23548497097E+01  0.14790486659E+03  0.15620547225E+03  0.00000000000E+00 0. -1.
         -5    1    3    3    0  503  0.62488165231E+02 -0.64496279115E+01  0.73679854106E+02  0.96939049898E+02  0.47000000000E+01 0.  1.
         13    1    4    4    0    0  0.19775673684E+02  0.33729317438E+02  0.45810567457E+02  0.60227503811E+02  0.00000000000E+00 0. -1.
        -14    1    4    4    0    0 -0.70652150332E+02  0.48761089759E+02  0.12456098657E+03  0.15127726067E+03  0.00000000000E+00 0.  1.
</event>
<event>
12    1  0.8052519E-002  0.2629503E+03  0.7818608E-02  0.1105464E+00
         21   -1    0    0  501  502  0.00000000000E+00  0.00000000000E+00  0.99066161520E+03  0.99066161520E+03  0.00000000000E+00 0. -1.
         21   -1    0    0  502  503 -0.00000000000E+00 -0.00000000000E+00 -0.70457656557E+02  0.70457656557E+02  0.00000000000E+00 0.  1.
         -6    2    1    2    0  503 -0.19502138793E+03 -0.32024203621E+02  0.40378784394E+03  0.48185837370E+03  0.17344733503E+03 0.  0.
        -24    2    3    3    0    0 -0.21605057161E+03 -0.47285468828E+02  0.34652385617E+03  0.41879977336E+03  0.80004388726E+02 0.  0.
          6    2    1    2  501    0  0.19502138793E+03  0.32024203621E+02  0.51641611471E+03  0.57926089806E+03  0.17262297970E+03 0.  0.
         24    2    5    5    0    0  0.77423678641E+02  0.65666290406E+02  0.17360509577E+03  0.21525197518E+03  0.76734580401E+02 0.  0.
          5    1    5    5  501    0  0.11759770928E+03 -0.33642086786E+02  0.34281101894E+03  0.36400892288E+03  0.47000000000E+01 0. -1.
        -11    1    6    6    0    0  0.58909207035E+02  0.76028199047E+02  0.16754134963E+03  0.19318562462E+03  0.00000000000E+00 0.  1.
         12    1    6    6    0    0  0.18514471606E+02 -0.10361908641E+02  0.60637461393E+01  0.22066350554E+02  0.00000000000E+00 0. -1.
         -5    1    3    3    0  503  0.21029183685E+02  0.15261265208E+02  0.57263987770E+02  0.63058600345E+02  0.47000000000E+01 0.  1.
         11    1    4    4    0    0 -0.10689471378E+03 -0.36939259536E+02  0.24288450024E+03  0.26792511862E+03  0.00000000000E+00 0. -1.
        -12    1    4    4    0    0 -0.10915585783E+03 -0.10346209293E+02  0.10363935593E+03  0.15087465474E+03  0.00000000000E+00 0.  1.
</event>
<event>
12    1  0.8052519E-002  0.1942578E+03  0.7818608E-02  0.1155016E+00
         21   -1    0    0  501  502  0.00000000000E+00  0.00000000000E+00  0.58592266326E+03  0.58592266326E+03  0.00000000000E+00 0.  1.
         21   -1    0    0  502  503 -0.00000000000E+00 -0.00000000000E+00 -0.11210285192E+03  0.11210285192E+03  0.00000000000E+00 0.  1.
         -6    2    1    2    0  503 -0.29069874725E+02  0.84440514958E+02  0.74968588539E+01  0.19285901054E+03  0.17077217827E+03 0.  0.
        -24    2    3    3    0    0  0.32583326735E+02  0.62428977969E+02 -0.36861126509E+02  0.11364192983E+03  0.81220041225E+02 0.  0.
          6    2    1    2  501    0  0.29069874725E+02 -0.84440514958E+02  0.46632295249E+03  0.50516650464E+03  0.17251331313E+03 0.  0.
         24    2    5    5    0    0  0.44653275120E+02 -0.63527940154E+02  0.46560880278E+03  0.47865654118E+03  0.79314645705E+02 0.  0.
          5    1    5    5  501    0 -0.15583400395E+02 -0.20912574804E+02  0.71414970613E+00  0.26509963459E+02  0.47000000000E+01 0. -1.
        -13    1    6    6    0    0  0.30862862333E+02 -0.23376404707E+02  0.63924115298E+02  0.74734631096E+02  0.00000000000E+00 0.  1.
         14    1    6    6    0    0  0.13790412787E+02 -0.40151535447E+02  0.40168468749E+03  0.40392191008E+03  0.00000000000E+00 0. -1.
         -5    1    3    3    0  503 -0.61653201459E+02  0.22011536988E+02  0.44357985363E+02  0.79217080710E+02  0.47000000000E+01 0.  1.
         11    1    4    4    0    0  0.29970257170E+02 -0.12267108067E+02 -0.15535808282E+02  0.35917399602E+02  0.00000000000E+00 0. -1.
        -12    1    4    4    0    0  0.26130695644E+01  0.74696086037E+02 -0.21325318227E+02  0.77724530229E+02  0.00000000000E+00 0.  1.
</event>
<event>
12    1  0.8052519E-002  0.1870666E+03  0.7818608E-02  0.1162192E+00
         21   -1    0    0  501  502  0.00000000000E+00  0.00000000000E+00  0.47651239643E+02  0.47651239643E+02  0.00000000000E+00 0. -1.
         21   -1    0    0  502  503 -0.00000000000E+00 -0.00000000000E+00 -0.75675068791E+03  0.75675068791E+03  0.00000000000E+00 0. -1.
         -6    2    1    2    0  503  0.60335393960E+02  0.25585850051E+02 -0.45123830943E+03  0.48847713975E+03  0.17521104040E+03 0.  0.
        -24    2    3    3    0    0  0.10740897210E+03  0.27309436623E+02 -0.26652349006E+03  0.29779272244E+03  0.73234159860E+02 0.  0.
          6    2    1    2  501    0 -0.60335393960E+02 -0.25585850051E+02 -0.25786113884E+03  0.31592478780E+03  0.17035583095E+03 0.  0.
         24    2    5    5    0    0  0.18149333839E+01 -0.51102233620E+02 -0.21251733788E+03  0.23473427540E+03  0.85567685965E+02 0.  0.
          5    1    5    5  501    0 -0.62150327344E+02  0.25516383569E+02 -0.45343800954E+02  0.81190512403E+02  0.47000000000E+01 0. -1.
        -13    1    6    6    0    0  0.23954571988E+01  0.12750597422E+02 -0.12875949915E+03  0.12941145456E+03  0.00000000000E+00 0.  1.
         14    1    6    6    0    0 -0.58052381492E+00 -0.63852831042E+02 -0.83757838730E+02  0.10532282084E+03  0.00000000000E+00 0. -1.
         -5    1    3    3    0  503 -0.47073578140E+02 -0.17235865719E+01 -0.18471481937E+03  0.19068441731E+03  0.47000000000E+01 0.  1.
         11    1    4    4    0    0  0.14188096078E+02  0.35949487318E+02 -0.65819060616E+02  0.76327036161E+02  0.00000000000E+00 0. -1.
        -12    1    4    4    0    0  0.93220876021E+02 -0.86400506947E+01 -0.20070442944E+03  0.22146568628E+03  0.00000000000E+00 0.  1.
</event>
<event>
12    1  0.8052519E-002  0.1847170E+03  0.7818608E-02  0.1165544E+00
         21   -1    0    0  503  502  0.00000000000E+00  0.00000000000E+00  0.11742975206E+03  0.11742975206E+03  0.00000000000E+00 0. -1.
         21   -1    0    0  501  503 -0.00000000000E+00 -0.00000000000E+00 -0.27648279917E+03  0.27648279917E+03  0.00000000000E+00 0. -1.
          6    2    1    2  501    0 -0.20796508789E+02  0.27833954596E+02 -0.70749033822E+02  0.18917374119E+03  0.17197108700E+03 0.  0.
         24    2    3    3    0    0 -0.57654015834E+02  0.68233043010E+02 -0.46645366827E+02  0.12922677352E+03  0.80895210297E+02 0.  0.
         -6    2    1    2    0  502  0.20796508789E+02 -0.27833954596E+02 -0.88304013289E+02  0.20473881004E+03  0.18141983841E+03 0.  0.
        -24    2    5    5    0    0  0.40396140645E+02  0.44023528002E+02 -0.81996231033E+02  0.12984207118E+03  0.81028774820E+02 0.  0.
          5    1    3    3  501    0  0.36857507045E+02 -0.40399088414E+02 -0.24103666994E+02  0.59946967670E+02  0.47000000000E+01 0. -1.
        -13    1    4    4    0    0  0.10265835368E+02  0.15010508541E+02  0.14675669356E+02  0.23368312166E+02  0.00000000000E+00 0.  1.
         14    1    4    4    0    0 -0.67919851201E+02  0.53222534469E+02 -0.61321036184E+02  0.10585846136E+03  0.00000000000E+00 0. -1.
         -5    1    5    5    0  502 -0.19599631857E+02 -0.71857482598E+02 -0.63077822556E+01  0.74896738856E+02  0.47000000000E+01 0.  1.
         11    1    6    6    0    0  0.53741385968E+02  0.16396937168E+01 -0.30462234811E+02  0.61796220847E+02  0.00000000000E+00 0. -1.
        -12    1    6    6    0    0 -0.13345245323E+02  0.42383834285E+02 -0.51533996222E+02  0.68045850337E+02  0.00000000000E+00 0.  1.
</event>
<event>
12    1  0.8052519E-002  0.2713323E+03  0.7818608E-02  0.1100798E+00
         21   -1    0    0  503  502  0.00000000000E+00  0.00000000000E+00  0.19118668507E+03  0.19118668507E+03  0.00000000000E+00 0.  1.
         21   -1    0    0  501  503 -0.00000000000E+00 -0.00000000000E+00 -0.39747611247E+03  0.39747611247E+03  0.00000000000E+00 0. -1.
          6    2    1    2  501    0  0.18846895621E+03  0.94015192654E+02 -0.46007045094E+02  0.27520511771E+03  0.17106082167E+03 0.  0.
         24    2    3    3    0    0  0.19041227298E+03  0.46147466299E+02 -0.58585952430E+02  0.22545157898E+03  0.94919325197E+02 0.  0.
         -6    2    1    2    0  502 -0.18846895621E+03 -0.94015192654E+02 -0.16028238230E+03  0.31345767984E+03  0.16794603618E+03 0.  0.
        -24    2    5    5    0    0 -0.40610794200E+02 -0.26579377406E+02 -0.10857070019E+03  0.14285342046E+03  0.79144190496E+02 0.  0.
          5    1    3    3  501    0 -0.19433167699E+01  0.47867726355E+02  0.12578907336E+02  0.49753538731E+02  0.47000000000E+01 0. -1.
        -11    1    4    4    0    0  0.61886225236E+02  0.51808648558E+01  0.24790307384E+02  0.66867821669E+02  0.00000000000E+00 0.  1.
         12    1    4    4    0    0  0.12852604774E+03  0.40966601443E+02 -0.83376259814E+02  0.15858375731E+03  0.00000000000E+00 0. -1.
         -5    1    5    5    0  502 -0.14785816201E+03 -0.67435815248E+02 -0.51711682115E+02  0.17060425937E+03  0.47000000000E+01 0.  1.
         13    1    6    6    0    0  0.85945506615E+01 -0.38142741523E+02 -0.29383561075E+02  0.48909392692E+02  0.00000000000E+00 0. -1.
        -14    1    6    6    0    0 -0.49205344862E+02  0.11563364117E+02 -0.79187139113E+02  0.93944027769E+02  0.00000000000E+00 0.  1.
</event>
<event>
12    1  0.8052519E-002  0.1762189E+03  0.7818608E-02  0.1171667E+00
         21   -1    0    0  501  502  0.00000000000E+00  0.00000000000E+00  0.55862932062E+03  0.55862932062E+03  0.00000000000E+00 0. -1.
         21   -1    0    0  502  503 -0.00000000000E+00 -0.00000000000E+00 -0.70011391116E+02  0.70011391116E+02  0.00000000000E+00 0. -1.
         -6    2    1    2    0  503 -0.16988163848E+02 -0.33952240334E+02  0.38826918167E+03  0.42638723519E+03  0.17208069200E+03 0.  0.
        -24    2    3    3    0    0  0.52270576941E+02 -0.43504508282E+02  0.21440325183E+03  0.23893198570E+03  0.80590842794E+02 0.  0.
          6    2    1    2  501    0  0.16988163848E+02  0.33952240334E+02  0.10034874783E+03  0.20225347655E+03  0.17145041630E+03 0.  0.
         24    2    5    5    0    0 -0.95348431081E+01 -0.44940060782E+02  0.46903562971E+02  0.10322851577E+03  0.79659650715E+02 0.  0.
          5    1    5    5  501    0  0.26523006956E+02  0.78892301115E+02  0.53445184863E+02  0.99024960784E+02  0.47000000000E+01 0. -1.
        -13    1    6    6    0    0  0.32157889119E+02 -0.36100919573E+02  0.32440448352E+02  0.58221893784E+02  0.00000000000E+00 0.  1.
         14    1    6    6    0    0 -0.41692732227E+02 -0.88391412089E+01  0.14463114619E+02  0.45006621983E+02  0.00000000000E+00 0. -1.
         -5    1    3    3    0  503 -0.69258740789E+02  0.95522679481E+01  0.17386592984E+03  0.18745524948E+03  0.47000000000E+01 0.  1.
         11    1    4    4    0    0  0.38283693823E+02 -0.46673009977E+02  0.64490387764E+02  0.88334711111E+02  0.00000000000E+00 0. -1.
        -12    1    4    4    0    0  0.13986883119E+02  0.31685016953E+01  0.14991286407E+03  0.15059727459E+03  0.00000000000E+00 0.  1.
</event>
<event>
12    1  0.8052519E-002  0.2005544E+03  0.7818608E-02  0.1150918E+00
         21   -1    0    0  501  502  0.00000000000E+00  0.00000000000E+00  0.41086594457E+03  0.41086594457E+03  0.00000000000E+00 0.  1.
         21   -1    0    0  502  503 -0.00000000000E+00 -0.00000000000E+00 -0.16488840398E+03  0.16488840398E+03  0.00000000000E+00 0.  1.
         -6    2    1    2    0  503 -0.94443214880E+02  0.11497010120E+02 -0.66867109437E+02  0.20414452594E+03  0.16778580116E+03 0.  0.
        -24    2    3    3    0    0 -0.38553645351E+02 -0.56207437213E+02 -0.47676175144E+02  0.11415609263E+03  0.78185268696E+02 0.  0.
          6    2    1    2  501    0  0.94443214880E+02 -0.11497010120E+02  0.31284465002E+03  0.37160982260E+03  0.17655136116E+03 0.  0.
         24    2    5    5    0    0  0.43878486075E+02  0.62308740362E+02  0.20717124451E+03  0.23307087776E+03  0.74795780935E+02 0.  0.
          5    1    5    5  501    0  0.50564728805E+02 -0.73805750482E+02  0.10567340552E+03  0.13853894484E+03  0.47000000000E+01 0. -1.
        -11    1    6    6    0    0  0.22794888680E+02  0.44768316236E+02  0.19781243678E+03  0.20409206068E+03  0.00000000000E+00 0.  1.
         12    1    6    6    0    0  0.21083597394E+02  0.17540424126E+02  0.93588077313E+01  0.28978817087E+02  0.00000000000E+00 0. -1.
         -5    1    3    3    0  503 -0.55889569529E+02  0.67704447332E+02 -0.19190934292E+02  0.89988433311E+02  0.47000000000E+01 0.  1.
         13    1    4    4    0    0 -0.58673105989E+02 -0.38254131820E+02 -0.14716729817E+02  0.71571601241E+02  0.00000000000E+00 0. -1.
        -14    1    4    4    0    0  0.20119460638E+02 -0.17953305393E+02 -0.32959445327E+02  0.42584491392E+02  0.00000000000E+00 0.  1.
</event>
<event>
12    1  0.8052519E-002  0.1973482E+03  0.7818608E-02  0.1152195E+00
         21   -1    0    0  501  502  0.00000000000E+00  0.00000000000E+00  0.21012339817E+03  0.21012339817E+03  0.00000000000E+00 0. -1.
         21   -1    0    0  502  503 -0.00000000000E+00 -0.00000000000E+00 -0.18959395784E+03  0.18959395784E+03  0.00000000000E+00 0.  1.
         -6    2    1    2    0  503  0.69341313888E+02 -0.64190971554E+02  0.43058410710E+02  0.20108734163E+03  0.17220160739E+03 0.  0.
        -24    2    3    3    0    0  0.10984940357E+03 -0.56666680104E+02  0.13082764148E+02  0.14991948376E+03  0.83825346976E+02 0.  0.
          6    2    1    2  501    0 -0.69341313888E+02  0.64190971554E+02 -0.22528970387E+02  0.19863001438E+03  0.17325596517E+03 0.  0.
         24    2    5    5    0    0  0.11670372383E+02  0.78220565727E+02  0.49610430150E+00  0.11311997468E+03  0.80877858888E+02 0.  0.
          5    1    5    5  501    0 -0.81011686270E+02 -0.14029594173E+02 -0.23025074688E+02  0.85510039700E+02  0.47000000000E+01 0. -1.
        -11    1    6    6    0    0 -0.26551256039E+02  0.19012415529E+02 -0.21729261333E+02  0.39225016757E+02  0.00000000000E+00 0.  1.
         12    1    6    6    0    0  0.38221628422E+02  0.59208150198E+02  0.22225365634E+02  0.73894957925E+02  0.00000000000E+00 0. -1.
         -5    1    3    3    0  503 -0.40508089682E+02 -0.75242914500E+01  0.29975646562E+02  0.51167857863E+02  0.47000000000E+01 0.  1.
         11    1    4    4    0    0  0.46402228809E+02  0.17838062858E+02 -0.64502032116E+01  0.50129516718E+02  0.00000000000E+00 0. -1.
        -12    1    4    4    0    0  0.63447174761E+02 -0.74504742962E+02  0.19532967359E+02  0.99789967045E+02  0.00000000000E+00 0.  1.
</event>
<event>
12    1  0.8052519E-002  0.2000009E+03  0.7818608E-02  0.1151007E+00
         21   -1    0    0  503  502  0.00000000000E+00  0.00000000000E+00  0.19827736168E+02  0.19827736168E+02  0.00000000000E+00 0.  1.
         21   -1    0    0  501  503 -0.00000000000E+00 -0.00000000000E+00 -0.20620352074E+04  0.20620352074E+04  0.00000000000E+00 0.  1.
          6    2    1    2  501    0  0.96319800976E+02  0.32390839589E+02 -0.12693239010E+04  0.12849838605E+04  0.17226051623E+03 0.  0.
         24    2    3    3    0    0  0.12973968826E+03  0.88547172052E+00 -0.10400521976E+04  0.10511097896E+04  0.79309804976E+02 0.  0.
         -6    2    1    2    0  502 -0.96319800976E+02 -0.32390839589E+02 -0.77288357021E+03  0.79687908308E+03  0.16534989993E+03 0.  0.
        -24    2    5    5    0    0 -0.12713847800E+03 -0.68754379821E+01 -0.56037596186E+03  0.58058668798E+03  0.82753969054E+02 0.  0.
          5    1    3    3  501    0 -0.33419887281E+02  0.31505367868E+02 -0.22927170340E+03  0.23387407092E+03  0.47000000000E+01 0. -1.
        -11    1    4    4    0    0  0.11153400971E+03 -0.54062931935E+01 -0.10043881485E+04  0.10105763782E+04  0.00000000000E+00 0.  1.
         12    1    4    4    0    0  0.18205678545E+02  0.62917649140E+01 -0.35664049138E+02  0.40533411378E+02  0.00000000000E+00 0. -1.
         -5    1    5    5    0  502  0.30818677024E+02 -0.25515401607E+02 -0.21250760835E+03  0.21629239510E+03  0.47000000000E+01 0.  1.
         11    1    6    6    0    0 -0.16255350222E+02 -0.92122476238E+01 -0.14755116396E+02  0.23807884765E+02  0.00000000000E+00 0. -1.
        -12    1    6    6    0    0 -0.11088312778E+03  0.23368096417E+01 -0.54562084547E+03  0.55677880322E+03  0.00000000000E+00 0.  1.
</event>
<event>
12    1  0.8052519E-002  0.1760153E+03  0.7818608E-02  0.1171976E+00
         21   -1    0    0  501  502  0.00000000000E+00  0.00000000000E+00  0.19287690604E+03  0.19287690604E+03  0.00000000000E+00 0. -1.
         21   -1    0    0  502  503 -0.00000000000E+00 -0.00000000000E+00 -0.39430815357E+03  0.39430815357E+03  0.00000000000E+00 0. -1.
         -6    2    1    2    0  503 -0.12479378078E+02  0.35608010096E+02 -0.32706826349E+03  0.37093049560E+03  0.17085701135E+03 0.  0.
        -24    2    3    3    0    0  0.58219585348E+02  0.12530253090E+02 -0.20187377824E+03  0.22523672280E+03  0.80199947595E+02 0.  0.
          6    2    1    2  501    0  0.12479378078E+02 -0.35608010096E+02  0.12563701596E+03  0.21625456401E+03  0.17192356271E+03 0.  0.
         24    2    5    5    0    0 -0.46480718499E+02  0.47947334836E+01  0.10963826405E+03  0.14286025401E+03  0.78772181463E+02 0.  0.
          5    1    5    5  501    0  0.58960096577E+02 -0.40402743579E+02  0.15998751914E+02  0.73394309996E+02  0.47000000000E+01 0. -1.
        -11    1    6    6    0    0 -0.23969848491E+02 -0.29513116100E+02  0.17213128488E+02  0.41735709542E+02  0.00000000000E+00 0.  1.
         12    1    6    6    0    0 -0.22510870008E+02  0.34307849584E+02  0.92425135560E+02  0.10112454447E+03  0.00000000000E+00 0. -1.
         -5    1    3    3    0  503 -0.70698963426E+02  0.23077757006E+02 -0.12519448525E+03  0.14569377280E+03  0.47000000000E+01 0.  1.
         13    1    4    4    0    0  0.56509842703E+02  0.38974261908E+02 -0.17260182771E+03  0.18575184075E+03  0.00000000000E+00 0. -1.
        -14    1    4    4    0    0  0.17097426458E+01 -0.26444008818E+02 -0.29271950531E+02  0.39484882046E+02  0.00000000000E+00 0.  1.
</event>
<event>
12    1  0.8052519E-002  0.2195588E+03  0.7818608E-02  0.1134265E+00
         21   -1    0    0  501  502  0.00000000000E+00  0.00000000000E+00  0.76348273508E+03  0.76348273508E+03  0.00000000000E+00 0. -1.
         21   -1    0    0  502  503 -0.00000000000E+00 -0.00000000000E+00 -0.95937512377E+02  0.95937512377E+02  0.00000000000E+00 0. -1.
         -6    2    1    2    0  503 -0.20914564133E+02  0.13451331478E+03  0.82074641607E+02  0.23413482528E+03  0.17190584274E+03 0.  0.
        -24    2    3    3    0    0 -0.79644647446E+02  0.99575515508E+02  0.64189800024E+02  0.16334054541E+03  0.79380414407E+02 0.  0.
          6    2    1    2  501    0  0.20914564133E+02 -0.13451331478E+03  0.58547058109E+03  0.62528542217E+03  0.17226377161E+03 0.  0.
         24    2    5    5    0    0  0.34254894827E+02 -0.14893898850E+03  0.36075829350E+03  0.39966679112E+03  0.78935273981E+02 0.  0.
          5    1    5    5  501    0 -0.13340330695E+02  0.14425673713E+02  0.22471228759E+03  0.22561863105E+03  0.47000000000E+01 0. -1.
        -11    1    6    6    0    0 -0.14903771442E+02 -0.61558019390E+02  0.83262069243E+02  0.10461397769E+03  0.00000000000E+00 0.  1.
         12    1    6    6    0    0  0.49158666269E+02 -0.87380969106E+02  0.27749622426E+03  0.29505281342E+03  0.00000000000E+00 0. -1.
         -5    1    3    3    0  503  0.58730083314E+02  0.34937799276E+02  0.17884841583E+02  0.70794279873E+02  0.47000000000E+01 0.  1.
         13    1    4    4    0    0 -0.84686221728E+02  0.66169621605E+02  0.71093368105E+02  0.12885822427E+03  0.00000000000E+00 0. -1.
        -14    1    4    4    0    0  0.50415742811E+01  0.33405893903E+02 -0.69035680814E+01  0.34482321136E+02  0.00000000000E+00 0.  1.
</event>
<event>
12    1  0.8052519E-002  0.2283385E+03  0.7818608E-02  0.1128232E+00
         21   -1    0    0  501  502  0.00000000000E+00  0.00000000000E+00  0.68892317967E+02  0.68892317967E+02  0.00000000000E+00 0.  1.
         21   -1    0    0  502  503 -0.00000000000E+00 -0.00000000000E+00 -0.76229306047E+03  0.76229306047E+03  0.00000000000E+00 0. -1.
         -6    2    1    2    0  503 -0.14764336154E+03 -0.22761173075E+01 -0.29373651276E+03  0.37204785309E+03  0.17416866292E+03 0.  0.
        -24    2    3    3    0    0 -0.74769448369E+02  0.14465544370E+02 -0.27303864583E+03  0.29432152452E+03  0.79217013949E+02 0.  0.
          6    2    1    2  501    0  0.14764336154E+03  0.22761173075E+01 -0.39966422974E+03  0.45913752535E+03  0.17109070030E+03 0.  0.
         24    2    5    5    0    0  0.12612457651E+01  0.64982927201E+01 -0.88875815736E+02  0.11554317315E+03  0.73535676298E+02 0.  0.
          5    1    5    5  501    0  0.14638211578E+03 -0.42221754126E+01 -0.31078841401E+03  0.34359435220E+03  0.47000000000E+01 0. -1.
        -11    1    6    6    0    0 -0.63572931327E+01  0.37926136997E+02 -0.31618553854E+02  0.49784937394E+02  0.00000000000E+00 0.  1.
         12    1    6    6    0    0  0.76185388978E+01 -0.31427844277E+02 -0.57257261883E+02  0.65758235752E+02  0.00000000000E+00 0. -1.
         -5    1    3    3    0  503 -0.72873913174E+02 -0.16741661677E+02 -0.20697866934E+02  0.77726328567E+02  0.47000000000E+01 0.  1.
         11    1    4    4    0    0 -0.71630339628E+02  0.27551554896E+02 -0.26976817071E+03  0.28047256490E+03  0.00000000000E+00 0. -1.
        -12    1    4    4    0    0 -0.31391087401E+01 -0.13086010526E+02 -0.32704751165E+01  0.13848959624E+02  0.00000000000E+00 0.  1.
</event>
<event>
12    1  0.8052519E-002  0.1842711E+03  0.7818608E-02  0.1164279E+00
         21   -1    0    0  503  502  0.00000000000E+00  0.00000000000E+00  0.13102437908E+03  0.13102437908E+03  0.00000000000E+00 0. -1.
         21   -1    0    0  501  503 -0.00000000000E+00 -0.00000000000E+00 -0.43915381488E+03  0.43915381488E+03  0.00000000000E+00 0. -1.
          6    2    1    2  501    0  0.52036933800E+02 -0.31618867130E+02 -0.33878329960E+03  0.38565524428E+03  0.17392023491E+03 0.  0.
         24    2    3    3    0    0  0.10906307943E+02  0.82574267584E+01 -0.58788071758E+02  0.99820913218E+02  0.79504997861E+02 0.  0.
         -6    2    1    2    0  502 -0.52036933800E+02  0.31618867130E+02  0.30653863802E+02  0.18452294969E+03  0.17146855210E+03 0.  0.
        -24    2    5    5    0    0 -0.34458799077E+02  0.60796069167E+02 -0.33699275487E+02  0.11155914719E+03  0.80163777935E+02 0.  0.
          5    1    3    3  501    0  0.41130625857E+02 -0.39876293889E+02 -0.27999522784E+03  0.28583433106E+03  0.47000000000E+01 0. -1.
        -11    1    4    4    0    0  0.34600160093E+02 -0.21849553536E+02 -0.20946382835E+02  0.45970914957E+02  0.00000000000E+00 0.  1.
         12    1    4    4    0    0 -0.23693852149E+02  0.30106980294E+02 -0.37841688923E+02  0.53849998260E+02  0.00000000000E+00 0. -1.
         -5    1    5    5    0  502 -0.17578134724E+02 -0.29177202036E+02  0.64353139289E+02  0.72963802501E+02  0.47000000000E+01 0.  1.
         13    1    6    6    0    0 -0.59870384826E+02  0.50070299081E+02 -0.30483568651E+02  0.83789890721E+02  0.00000000000E+00 0. -1.
        -14    1    6    6    0    0  0.25411585749E+02  0.10725770086E+02 -0.32157068362E+01  0.27769256466E+02  0.00000000000E+00 0.  1.
</event>
<event>
12    1  0.8052519E-002  0.2530888E+03  0.7818608E-02  0.1111540E+00
         21   -1    0    0  501  502  0.00000000000E+00  0.00000000000E+00  0.11443814064E+03  0.11443814064E+03  0.00000000000E+00 0.  1.
         21   -1    0    0  502  503 -0.00000000000E+00 -0.00000000000E+00 -0.84226413591E+03  0.84226413591E+03  0.00000000000E+00 0.  1.
         -6    2    1    2    0  503 -0.16674507929E+03  0.79859473726E+02 -0.64162939925E+03  0.68933772864E+03  0.17122138048E+03 0.  0.
        -24    2    3    3    0    0 -0.56685365000E+02  0.98653231766E+02 -0.31967132877E+03  0.34853656198E+03  0.79638469690E+02 0.  0.
          6    2    1    2  501    0  0.16674507929E+03 -0.79859473726E+02 -0.86196596023E+02  0.26736454792E+03  0.17283660291E+03 0.  0.
         24    2    5    5    0    0  0.13031480469E+03 -0.63990919055E+02  0.75869568775E+01  0.16540170798E+03  0.78888383447E+02 0.  0.
          5    1    5    5  501    0  0.36430274599E+02 -0.15868554671E+02 -0.93783552901E+02  0.10196283994E+03  0.47000000000E+01 0. -1.
        -11    1    6    6    0    0  0.10253945343E+03 -0.79859482090E+02 -0.71843489457E+01  0.13016716659E+03  0.00000000000E+00 0.  1.
         12    1    6    6    0    0  0.27775351266E+02  0.15868563036E+02  0.14771305823E+02  0.35234541383E+02  0.00000000000E+00 0. -1.
         -5    1    3    3    0  503 -0.11005971429E+03 -0.18793758040E+02 -0.32195807047E+03  0.34080116666E+03  0.47000000000E+01 0.  1.
         11    1    4    4    0    0  0.17411128885E+02  0.28232012779E+01 -0.36241616599E+02  0.40305987746E+02  0.00000000000E+00 0. -1.
        -12    1    4    4    0    0 -0.74096493886E+02  0.95830030488E+02 -0.28342971218E+03  0.30823057424E+03  0.00000000000E+00 0.  1.
</event>
<event>
12    1  0.8052519E-002  0.1787866E+03  0.7818608E-02  0.1169538E+00
         21   -1    0    0  501  502  0.00000000000E+00  0.00000000000E+00  0.20475443026E+03  0.20475443026E+03  0.00000000000E+00 0.  1.
         21   -1    0    0  502  503 -0.00000000000E+00 -0.00000000000E+00 -0.32545566203E+03  0.32545566203E+03  0.00000000000E+00 0.  1.
         -6    2    1    2    0  503 -0.36600303952E+02  0.28629957902E+02 -0.25286907702E+03  0.30968923030E+03  0.17264238331E+03 0.  0.
        -24    2    3    3    0    0 -0.38135417451E+02  0.11573126858E+02 -0.27055991664E+03  0.28462236243E+03  0.78860467722E+02 0.  0.
          6    2    1    2  501    0  0.36600303952E+02 -0.28629957902E+02  0.13216784525E+03  0.22052086198E+03  0.17029930860E+03 0.  0.
         24    2    5    5    0    0 -0.27676755135E+02 -0.55578107816E+02  0.10654030485E+03  0.14611250267E+03  0.78377918032E+02 0.  0.
          5    1    5    5  501    0  0.64277059087E+02  0.26948149914E+02  0.25627540402E+02  0.74408359313E+02  0.47000000000E+01 0. -1.
        -13    1    6    6    0    0  0.12768957333E+02 -0.57588069119E+02  0.70297884831E+02  0.91767230469E+02  0.00000000000E+00 0.  1.
         14    1    6    6    0    0 -0.40445712468E+02  0.20099613027E+01  0.36242420016E+02  0.54345272197E+02  0.00000000000E+00 0. -1.
         -5    1    3    3    0  503  0.15351134993E+01  0.17056831044E+02  0.17690839622E+02  0.25066867878E+02  0.47000000000E+01 0.  1.
         11    1    4    4    0    0 -0.14418808454E+02 -0.27200336773E+02 -0.44963990466E+02  0.54493309648E+02  0.00000000000E+00 0. -1.
        -12    1    4    4    0    0 -0.23716608997E+02  0.38773463632E+02 -0.22559592618E+03  0.23012905278E+03  0.00000000000E+00 0.  1.
</event>
<event>
12    1  0.8052519E-002  0.2353862E+03  0.7818608E-02  0.1123019E+00
         21   -1    0    0  503  502  0.00000000000E+00  0.00000000000E+00  0.32148770954E+03  0.32148770954E+03  0.00000000000E+00 0.  1.
         21   -1    0    0  501  503 -0.00000000000E+00 -0.00000000000E+00 -0.19994618979E+03  0.19994618979E+03  0.00000000000E+00 0.  1.
          6    2    1    2  501    0 -0.72608376929E+02 -0.14280038588E+03  0.15856663602E+03  0.28381342114E+03  0.17246087486E+03 0.  0.
         24    2    3    3    0    0 -0.48035293603E+02 -0.15491693103E+03  0.67548035259E+02  0.18864450408E+03  0.68683090360E+02 0.  0.
         -6    2    1    2    0  502  0.72608376929E+02  0.14280038588E+03 -0.37025116266E+02  0.23762047820E+03  0.17154796944E+03 0.  0.
        -24    2    5    5    0    0  0.10617213128E+03  0.90742155823E+02 -0.59400749820E+02  0.17159515049E+03  0.80061140943E+02 0.  0.
          5    1    3    3  501    0 -0.24573083326E+02  0.12116545154E+02  0.91018600756E+02  0.95168917059E+02  0.47000000000E+01 0. -1.
        -13    1    4    4    0    0 -0.63619910688E+02 -0.10053638346E+03  0.38476406005E+02  0.12504195797E+03  0.00000000000E+00 0.  1.
         14    1    4    4    0    0  0.15584617085E+02 -0.54380547575E+02  0.29071629253E+02  0.63602546110E+02  0.00000000000E+00 0. -1.
         -5    1    5    5    0  502 -0.33563754347E+02  0.52058230053E+02  0.22375633554E+02  0.66025327708E+02  0.47000000000E+01 0.  1.
         11    1    6    6    0    0  0.75944770756E+02  0.33133453281E+02 -0.66374655377E+02  0.10616510165E+03  0.00000000000E+00 0. -1.
        -12    1    6    6    0    0  0.30227360519E+02  0.57608702542E+02  0.69739055573E+01  0.65430048841E+02  0.00000000000E+00 0.  1.
</event>
<event>
12    1  0.8052519E-002  0.2308538E+03  0.7818608E-02  0.1126052E+00
         21   -1    0    0  501  502  0.00000000000E+00  0.00000000000E+00  0.78749471377E+03  0.78749471377E+03  0.00000000000E+00 0. -1.
         21   -1    0    0  502  503 -0.00000000000E+00 -0.00000000000E+00 -0.28638427992E+03  0.28638427992E+03  0.00000000000E+00 0.  1.
         -6    2    1    2    0  503 -0.12335435646E+03 -0.92550916800E+02 -0.21868583145E+03  0.31798894104E+03  0.17178912739E+03 0.  0.
        -24    2    3    3    0    0 -0.86207058386E+02 -0.23362866220E+02 -0.20615767975E+03  0.23832745296E+03  0.79507895723E+02 0.  0.
          6    2    1    2  501    0  0.12335435646E+03  0.92550916800E+02  0.71979626529E+03  0.75589005265E+03  0.17170072429E+03 0.  0.
         24    2    5    5    0    0  0.10585620026E+03  0.10832644578E+02  0.56011250176E+03  0.57559846710E+03  0.79149853976E+02 0.  0.
          5    1    5    5  501    0  0.17498156192E+02  0.81718272223E+02  0.15968376353E+03  0.18029158555E+03  0.47000000000E+01 0. -1.
        -13    1    6    6    0    0  0.32364479171E+02 -0.15742235094E+02  0.34237326584E+03  0.34425968489E+03  0.00000000000E+00 0.  1.
         14    1    6    6    0    0  0.73491721093E+02  0.26574879672E+02  0.21773923592E+03  0.23133878221E+03  0.00000000000E+00 0. -1.
         -5    1    3    3    0  503 -0.37147298070E+02 -0.69188050581E+02 -0.12528151697E+02  0.79661488073E+02  0.47000000000E+01 0.  1.
         13    1    4    4    0    0  0.96376382225E+01  0.13349170908E+02 -0.36479618201E+02  0.40023080573E+02  0.00000000000E+00 0. -1.
        -14    1    4    4    0    0 -0.95844696608E+02 -0.36712037128E+02 -0.16967806155E+03  0.19830437239E+03  0.00000000000E+00 0.  1.
</event>
<event>
12    1  0.8052519E-002  0.3061039E+03  0.7818608E-02  0.1082495E+00
         21   -1    0    0  503  502  0.00000000000E+00  0.00000000000E+00  0.10223151565E+03  0.10223151565E+03  0.00000000000E+00 0.  1.
         21   -1    0    0  501  503 -0.00000000000E+00 -0.00000000000E+00 -0.12597245207E+04  0.12597245207E+04  0.00000000000E+00 0.  1.
          6    2    1    2  501    0  0.16728024245E+03  0.18772172205E+03 -0.21846754361E+03  0.37429798905E+03  0.17073017469E+03 0.  0.
         24    2    3    3    0    0  0.12052738036E+03  0.76736809856E+02 -0.57946064180E+02  0.17356753245E+03  0.79702914402E+02 0.  0.
         -6    2    1    2    0  502 -0.16728024245E+03 -0.18772172205E+03 -0.93902546145E+03  0.98765804732E+03  0.17457799614E+03 0.  0.
        -24    2    5    5    0    0 -0.74158583962E+02 -0.16201596491E+03 -0.76531727716E+03  0.78883890206E+03  0.69336932633E+02 0.  0.
          5    1    3    3  501    0  0.46752862097E+02  0.11098491219E+03 -0.16052147943E+03  0.20073045660E+03  0.47000000000E+01 0. -1.
        -13    1    4    4    0    0  0.90567445532E+02  0.79022935603E+02 -0.14963329972E+02  0.12112385308E+03  0.00000000000E+00 0.  1.
         14    1    4    4    0    0  0.29959934825E+02 -0.22861257468E+01 -0.42982734209E+02  0.52443679369E+02  0.00000000000E+00 0. -1.
         -5    1    5    5    0  502 -0.93121658493E+02 -0.25705757136E+02 -0.17370818429E+03  0.19881914525E+03  0.47000000000E+01 0.  1.
         11    1    6    6    0    0  0.46400820056E+01 -0.32951523508E+02 -0.73412236673E+02  0.80602045606E+02  0.00000000000E+00 0. -1.
        -12    1    6    6    0    0 -0.78798665967E+02 -0.12906444140E+03 -0.69190504048E+03  0.70823685645E+03  0.00000000000E+00 0.  1.
</event>
<event>
12    1  0.8052519E-002  0.2075365E+03  0.7818608E-02  0.1143620E+00
         21   -1    0    0  503  502  0.00000000000E+00  0.00000000000E+00  0.56866102533E+02  0.56866102533E+02  0.00000000000E+00 0.  1.
         21   -1    0    0  501  503 -0.00000000000E+00 -0.00000000000E+00 -0.12109799390E+04  0.12109799390E+04  0.00000000000E+00 0.  1.
          6    2    1    2  501    0 -0.67347896101E+02  0.92761261140E+02 -0.96607913387E+03  0.98811956925E+03  0.17300577893E+03 0.  0.
         24    2    3    3    0    0 -0.16388786987E+02  0.11101752105E+03 -0.82777168686E+03  0.83952225525E+03  0.83655060657E+02 0.  0.
         -6    2    1    2    0  502  0.67347896101E+02 -0.92761261140E+02 -0.18803470260E+03  0.27972647229E+03  0.17248031552E+03 0.  0.
        -24    2    5    5    0    0  0.18839359287E+02  0.40523684896E+01 -0.43492244680E+02  0.99059460451E+02  0.86889920065E+02 0.  0.
          5    1    3    3  501    0 -0.50959109114E+02 -0.18256259912E+02 -0.13830744702E+03  0.14859731400E+03  0.47000000000E+01 0. -1.
        -11    1    4    4    0    0  0.13506033285E+02  0.53526794934E+02 -0.60512084802E+03  0.60763374777E+03  0.00000000000E+00 0.  1.
         12    1    4    4    0    0 -0.29894820272E+02  0.57490726118E+02 -0.22265083883E+03  0.23188850748E+03  0.00000000000E+00 0. -1.
         -5    1    5    5    0  502  0.48508536813E+02 -0.96813629630E+02 -0.14454245792E+03  0.18066701184E+03  0.47000000000E+01 0.  1.
         13    1    6    6    0    0 -0.27761890297E+02 -0.43993440323E+01 -0.43388878664E+02  0.51697887505E+02  0.00000000000E+00 0. -1.
        -14    1    6    6    0    0  0.46601249584E+02  0.84517125219E+01 -0.10336601562E+00  0.47361572946E+02  0.00000000000E+00 0.  1.
</event>
<event>
12    1  0.8052519E-002  0.2239740E+03  0.7818608E-02  0.1133224E+00
         21   -1    0    0  501  502  0.00000000000E+00  0.00000000000E+00  0.74267566195E+02  0.74267566195E+02  0.00000000000E+00 0.  1.
         21   -1    0    0  502  503 -0.00000000000E+00 -0.00000000000E+00 -0.64030480804E+03  0.64030480804E+03  0.00000000000E+00 0. -1.
         -6    2    1    2    0  503 -0.16436500103E+02 -0.11772602890E+03 -0.27789312014E+03  0.35691588114E+03  0.18982830023E+03 0.  0.
        -24    2    3    3    0    0 -0.12855575462E+01 -0.15935422818E+03 -0.22031471959E+03  0.28411601681E+03  0.82388789527E+02 0.  0.
          6    2    1    2  501    0  0.16436500103E+02  0.11772602890E+03 -0.28814412170E+03  0.35765649309E+03  0.17538972538E+03 0.  0.
         24    2    5    5    0    0  0.54358393355E+02  0.47309660474E+02 -0.78564233184E+02  0.13328547313E+03  0.79997748153E+02 0.  0.
          5    1    5    5  501    0 -0.37921893251E+02  0.70416368424E+02 -0.20957988852E+03  0.22437101996E+03  0.47000000000E+01 0. -1.
        -13    1    6    6    0    0  0.42239431105E+02  0.64850964572E+02 -0.35322872948E+02  0.85073629871E+02  0.00000000000E+00 0.  1.
         14    1    6    6    0    0  0.12118962249E+02 -0.17541304098E+02 -0.43241360235E+02  0.48211843259E+02  0.00000000000E+00 0. -1.
         -5    1    3    3    0  503 -0.15150942557E+02  0.41628199286E+02 -0.57578400548E+02  0.72799864326E+02  0.47000000000E+01 0.  1.
         11    1    4    4    0    0 -0.11725735223E+02 -0.93337290805E+02 -0.18724004547E+03  0.20954278167E+03  0.00000000000E+00 0. -1.
        -12    1    4    4    0    0  0.10440177677E+02 -0.66016937380E+02 -0.33074674120E+02  0.74573235140E+02  0.00000000000E+00 0.  1.
</event>
<event>
12    1  0.8052519E-002  0.1889112E+03  0.7818608E-02  0.1159553E+00
         21   -1    0    0  501  502  0.00000000000E+00  0.00000000000E+00  0.76632370660E+02  0.76632370660E+02  0.00000000000E+00 0.  1.
         21   -1    0    0  502  503 -0.00000000000E+00 -0.00000000000E+00 -0.46634816689E+03  0.46634816689E+03  0.00000000000E+00 0.  1.
         -6    2    1    2    0  503 -0.46935803724E+01 -0.78768746982E+02 -0.21149332860E+03  0.28326786134E+03  0.17112775352E+03 0.  0.
        -24    2    3    3    0    0 -0.62152423768E+02 -0.58566050358E+02 -0.17776792979E+03  0.21348849361E+03  0.81749581090E+02 0.  0.
          6    2    1    2  501    0  0.46935803724E+01  0.78768746982E+02 -0.17822246763E+03  0.25971267621E+03  0.17164172284E+03 0.  0.
         24    2    5    5    0    0 -0.31168186392E+02 -0.16351808852E+02 -0.82120878705E+02  0.11974270853E+03  0.79722268108E+02 0.  0.
          5    1    5    5  501    0  0.35861766765E+02  0.95120555834E+02 -0.96101588926E+02  0.13996996768E+03  0.47000000000E+01 0. -1.
        -11    1    6    6    0    0 -0.17424226785E+02  0.26015092376E+02 -0.64987093821E+01  0.31978460470E+02  0.00000000000E+00 0.  1.
         12    1    6    6    0    0 -0.13743959607E+02 -0.42366901228E+02 -0.75622169323E+02  0.87764248065E+02  0.00000000000E+00 0. -1.
         -5    1    3    3    0  503  0.57458843396E+02 -0.20202696624E+02 -0.33725398812E+02  0.69779367726E+02  0.47000000000E+01 0.  1.
         13    1    4    4    0    0 -0.33174159546E+02  0.16672386818E+02 -0.65108886946E+02  0.74951054050E+02  0.00000000000E+00 0. -1.
        -14    1    4    4    0    0 -0.28978264222E+02 -0.75238437177E+02 -0.11265904284E+03  0.13853743956E+03  0.00000000000E+00 0.  1.
</event>
<event>
12    1  0.8052519E-002  0.1908661E+03  0.7818608E-02  0.1157796E+00
         21   -1    0    0  503  502  0.00000000000E+00  0.00000000000E+00  0.35030761655E+02  0.35030761655E+02  0.00000000000E+00 0. -1.
         21   -1    0    0  501  503 -0.00000000000E+00 -0.00000000000E+00 -0.12245075045E+04  0.12245075045E+04  0.00000000000E+00 0. -1.
          6    2    1    2  501    0  0.29815080178E+02 -0.76732995204E+02 -0.84171491187E+03  0.86308393400E+03  0.17220044342E+03 0.  0.
         24    2    3    3    0    0  0.38987784638E+02 -0.80169815921E+01 -0.69425631017E+03  0.70007424642E+03  0.80794844727E+02 0.  0.
         -6    2    1    2    0  502 -0.29815080178E+02  0.76732995204E+02 -0.34776183093E+03  0.39645433211E+03  0.17164164656E+03 0.  0.
        -24    2    5    5    0    0  0.34434467747E+02  0.48119818238E+02 -0.28567863624E+03  0.30252280722E+03  0.80040715930E+02 0.  0.
          5    1    3    3  501    0 -0.91727044600E+01 -0.68716013612E+02 -0.14745860170E+03  0.16300968759E+03  0.47000000000E+01 0. -1.
        -13    1    4    4    0    0  0.59176054658E+02  0.64496371872E+01 -0.35922478929E+03  0.36412340286E+03  0.00000000000E+00 0.  1.
         14    1    4    4    0    0 -0.20188270020E+02 -0.14466618779E+02 -0.33503152088E+03  0.33595084356E+03  0.00000000000E+00 0. -1.
         -5    1    5    5    0  502 -0.64249547925E+02  0.28613176966E+02 -0.62083194690E+02  0.93931524887E+02  0.47000000000E+01 0.  1.
         13    1    6    6    0    0  0.23917901630E+02  0.24408449471E+02 -0.29826675366E+02  0.45359331867E+02  0.00000000000E+00 0. -1.
        -14    1    6    6    0    0  0.10516566117E+02  0.23711368767E+02 -0.25585196088E+03  0.25716347535E+03  0.00000000000E+00 0.  1.
</event>
<event>
12    1  0.8052519E-002  0.2222802E+03  0.7818608E-02  0.1132307E+00
         21   -1    0    0  503  502  0.00000000000E+00  0.00000000000E+00  0.39478067868E+03  0.39478067868E+03  0.00000000000E+00 0.  1.
         21   -1    0    0  501  503 -0.00000000000E+00 -0.00000000000E+00 -0.18937773269E+03  0.18937773269E+03  0.00000000000E+00 0. -1.
          6    2    1    2  501    0  0.54295548741E+02  0.13007970895E+03 -0.67936976240E+02  0.23184718819E+03  0.17108170164E+03 0.  0.
         24    2    3    3    0    0 -0.13015578232E+02  0.49475606104E+02 -0.82460601494E+02  0.12573010709E+03  0.79944156477E+02 0.  0.
         -6    2    1    2    0  502 -0.54295548741E+02 -0.13007970895E+03  0.27333992223E+03  0.35231122318E+03  0.17187131116E+03 0.  0.
        -24    2    5    5    0    0 -0.50056055053E+02 -0.15048332297E+03  0.16651325723E+03  0.24336946293E+03  0.79694363124E+02 0.  0.
          5    1    3    3  501    0  0.67311126973E+02  0.80604102851E+02  0.14523625254E+02  0.10611708110E+03  0.47000000000E+01 0. -1.
        -11    1    4    4    0    0  0.33042673136E+02  0.30681845690E+02 -0.41724572332E+02  0.61433979516E+02  0.00000000000E+00 0.  1.
         12    1    4    4    0    0 -0.46058251367E+02  0.18793760413E+02 -0.40736029161E+02  0.64296127577E+02  0.00000000000E+00 0. -1.
         -5    1    5    5    0  502 -0.42394936879E+01  0.20403614018E+02  0.10682666500E+03  0.10894176025E+03  0.47000000000E+01 0.  1.
         13    1    6    6    0    0 -0.63772009139E+02 -0.11530882483E+03  0.15595065232E+03  0.20416561952E+03  0.00000000000E+00 0. -1.
        -14    1    6    6    0    0  0.13715954086E+02 -0.35174498143E+02  0.10562604912E+02  0.39203843417E+02  0.00000000000E+00 0.  1.
</event>
<event>
12    1  0.8052519E-002  0.2404056E+03  0.7818608E-02  0.1119608E+00
         21   -1    0    0  501  502  0.00000000000E+00  0.00000000000E+00  0.97026999452E+03  0.97026999452E+03  0.00000000000E+00 0.  1.
         21   -1    0    0  502  503 -0.00000000000E+00 -0.00000000000E+00 -0.83886020002E+02  0.83886020002E+02  0.00000000000E+00 0.  1.
         -6    2    1    2    0  503 -0.14540204853E+03 -0.82653245055E+02  0.15831416829E+03  0.28742236153E+03  0.17197361248E+03 0.  0.
        -24    2    3    3    0    0 -0.95475520387E+02 -0.44159296914E+02  0.17568572757E+02  0.13313090059E+03  0.79684148025E+02 0.  0.
          6    2    1    2  501    0  0.14540204853E+03  0.82653245055E+02  0.72806980622E+03  0.76673365299E+03  0.17268913474E+03 0.  0.
         24    2    5    5    0    0  0.15724624860E+03  0.79368826451E+02  0.46858852706E+03  0.50691891762E+03  0.79785888678E+02 0.  0.
          5    1    5    5  501    0 -0.11844200072E+02  0.32844186042E+01  0.25948127916E+03  0.25981473537E+03  0.47000000000E+01 0. -1.
        -11    1    6    6    0    0  0.52990695005E+02 -0.10788947012E+02  0.10556733506E+03  0.11861229855E+03  0.00000000000E+00 0.  1.
         12    1    6    6    0    0  0.10425555360E+03  0.90157773463E+02  0.36302119200E+03  0.38830661907E+03  0.00000000000E+00 0. -1.
         -5    1    3    3    0  503 -0.49926528145E+02 -0.38493948141E+02  0.14074559554E+03  0.15429146094E+03  0.47000000000E+01 0.  1.
         11    1    4    4    0    0 -0.10955755870E+02  0.72606176263E+00  0.34269622703E+02  0.35985591458E+02  0.00000000000E+00 0. -1.
        -12    1    4    4    0    0 -0.84519764516E+02 -0.44885358676E+02 -0.16701049946E+02  0.97145309134E+02  0.00000000000E+00 0.  1.
</event>
<event>
12    1  0.8052519E-002  0.2210498E+03  0.7818608E-02  0.1133256E+00
         21   -1    0    0  501  502  0.00000000000E+00  0.00000000000E+00  0.43019339238E+03  0.43019339238E+03  0.00000000000E+00 0.  1.
         21   -1    0    0  502  503 -0.00000000000E+00 -0.00000000000E+00 -0.14104841222E+03  0.14104841222E+03  0.00000000000E+00 0. -1.
         -6    2    1    2    0  503  0.12471223811E+03 -0.58409927662E+02  0.17349513346E+02  0.22090513618E+03  0.17185229586E+03 0.  0.
        -24    2    3    3    0    0  0.13507739041E+03 -0.79038163059E+01  0.35875217726E+02  0.16591790685E+03  0.89069348571E+02 0.  0.
          6    2    1    2  501    0 -0.12471223811E+03  0.58409927662E+02  0.27179546681E+03  0.35033666843E+03  0.17291079630E+03 0.  0.
         24    2    5    5    0    0 -0.12999050438E+03 -0.14364283649E+01  0.14505320446E+03  0.20999730299E+03  0.78478280961E+02 0.  0.
          5    1    5    5  501    0  0.52782662684E+01  0.59846356027E+02  0.12674226236E+03  0.14033936544E+03  0.47000000000E+01 0. -1.
        -11    1    6    6    0    0 -0.34150046203E+02  0.43571547656E+01  0.96391119804E+02  0.10235457210E+03  0.00000000000E+00 0.  1.
         12    1    6    6    0    0 -0.95840458179E+02 -0.57935831305E+01  0.48662084654E+02  0.10764273088E+03  0.00000000000E+00 0. -1.
         -5    1    3    3    0  503 -0.10365152297E+02 -0.50506111356E+02 -0.18525704380E+02  0.54987229329E+02  0.47000000000E+01 0.  1.
         13    1    4    4    0    0  0.49330922149E+02 -0.44340759510E+02  0.70511344813E+00  0.66333551231E+02  0.00000000000E+00 0. -1.
        -14    1    4    4    0    0  0.85746468262E+02  0.36436943204E+02  0.35170104278E+02  0.99584355621E+02  0.00000000000E+00 0.  1.
</event>
<event>
12    1  0.8052519E-002  0.2058975E+03  0.7818608E-02  0.1145686E+00
         21   -1    0    0  501  502  0.00000000000E+00  0.00000000000E+00  0.11547130696E+04  0.11547130696E+04  0.00000000000E+00 0.  1.
         21   -1    0    0  502  503 -0.00000000000E+00 -0.00000000000E+00 -0.40994475229E+02  0.40994475229E+02  0.00000000000E+00 0.  1.
         -6    2    1    2    0  503 -0.10535616501E+03 -0.35532849327E+01  0.34327596008E+03  0.39822672927E+03  0.17214411347E+03 0.  0.
        -24    2    3    3    0    0 -0.34480407534E+01 -0.40504734396E+02  0.11322664235E+03  0.14387371869E+03  0.78910404244E+02 0.  0.
          6    2    1    2  501    0  0.10535616501E+03  0.35532849327E+01  0.77044263433E+03  0.79748081559E+03  0.17686506468E+03 0.  0.
         24    2    5    5    0    0  0.85678505818E+02 -0.56661995401E+02  0.62774054004E+03  0.64127880545E+03  0.81418257355E+02 0.  0.
          5    1    5    5  501    0  0.19677659191E+02  0.60215280333E+02  0.14270209429E+03  0.15620201014E+03  0.47000000000E+01 0. -1.
        -11    1    6    6    0    0  0.10004294116E+03 -0.37466771936E+02  0.52781056161E+03  0.53851308064E+03  0.00000000000E+00 0.  1.
         12    1    6    6    0    0 -0.14364435346E+02 -0.19195223465E+02  0.99929978429E+02  0.10276572481E+03  0.00000000000E+00 0. -1.
         -5    1    3    3    0  503 -0.10190812426E+03  0.36951449464E+02  0.23004931772E+03  0.25435301058E+03  0.47000000000E+01 0.  1.
         13    1    4    4    0    0  0.23236930389E+02 -0.15940450682E+01  0.86641254331E+02  0.89717349859E+02  0.00000000000E+00 0. -1.
        -14    1    4    4    0    0 -0.26684971143E+02 -0.38910689328E+02  0.26585388022E+02  0.54156368833E+02  0.00000000000E+00 0.  1.
</event>
<event>
12    1  0.8052519E-002  0.1740298E+03  0.7818608E-02  0.1173737E+00
         21   -1    0    0  501  502  0.00000000000E+00  0.00000000000E+00  0.96646918272E+03  0.96646918272E+03  0.00000000000E+00 0.  1.
         21   -1    0    0  502  503 -0.00000000000E+00 -0.00000000000E+00 -0.31461714703E+02  0.31461714703E+02  0.00000000000E+00 0.  1.
         -6    2    1    2    0  503 -0.11823406693E+02 -0.25127024242E+02  0.43357596218E+03  0.46715795393E+03  0.17168948322E+03 0.  0.
        -24    2    3    3    0    0 -0.33248649719E+02  0.69392636477E+00  0.10011305921E+03  0.13197836001E+03  0.79307683379E+02 0.  0.
          6    2    1    2  501    0  0.11823406693E+02  0.25127024242E+02  0.50143150584E+03  0.53077294349E+03  0.17179989000E+03 0.  0.
         24    2    5    5    0    0  0.72941758063E+02  0.75654849937E+01  0.34893838543E+03  0.36548500592E+03  0.80271763989E+02 0.  0.
          5    1    5    5  501    0 -0.61118351370E+02  0.17561539248E+02  0.15249312041E+03  0.16528793757E+03  0.47000000000E+01 0. -1.
        -13    1    6    6    0    0  0.41980822977E+02  0.37389293363E+02  0.11961304247E+03  0.13216515685E+03  0.00000000000E+00 0.  1.
         14    1    6    6    0    0  0.30960935086E+02 -0.29823808369E+02  0.22932534296E+03  0.23331984907E+03  0.00000000000E+00 0. -1.
         -5    1    3    3    0  503  0.21425243026E+02 -0.25820950607E+02  0.33346290297E+03  0.33517959392E+03  0.47000000000E+01 0.  1.
         13    1    4    4    0    0 -0.11457390017E+02  0.26092727791E+02  0.93655670734E+02  0.97895285332E+02  0.00000000000E+00 0. -1.
        -14    1    4    4    0    0 -0.21791259702E+02 -0.25398801427E+02  0.64573884802E+01  0.34083074675E+02  0.00000000000E+00 0.  1.
</event>
<event>
12    1  0.8052519E-002  0.1801029E+03  0.7818608E-02  0.1168288E+00
         21   -1    0    0  503  502  0.00000000000E+00  0.00000000000E+00  0.18881799437E+03  0.18881799437E+03  0.00000000000E+00 0.  1.
         21   -1    0    0  501  503 -0.00000000000E+00 -0.00000000000E+00 -0.19665398247E+03  0.19665398247E+03  0.00000000000E+00 0.  1.
          6    2    1    2  501    0 -0.34347993846E+02 -0.33701912445E+02 -0.75549680941E+02  0.19530695396E+03  0.17355531796E+03 0.  0.
         24    2    3    3    0    0 -0.52540271941E+00  0.38442189926E+02 -0.43209607711E+01  0.88328639549E+02  0.79405288542E+02 0.  0.
         -6    2    1    2    0  502  0.34347993846E+02  0.33701912445E+02  0.67713692838E+02  0.19016502287E+03  0.17106135783E+03 0.  0.
        -24    2    5    5    0    0 -0.92178238010E+01 -0.22026176774E+02  0.81835069278E+02  0.11788014432E+03  0.81416393446E+02 0.  0.
          5    1    3    3  501    0 -0.33822591127E+02 -0.72144102371E+02 -0.71228720169E+02  0.10697831441E+03  0.47000000000E+01 0. -1.
        -11    1    4    4    0    0  0.34603385047E+02 -0.16626220056E+01  0.16394300899E+01  0.34682074616E+02  0.00000000000E+00 0.  1.
         12    1    4    4    0    0 -0.35128787766E+02  0.40104811931E+02 -0.59603908609E+01  0.53646564934E+02  0.00000000000E+00 0. -1.
         -5    1    5    5    0  502  0.43565817647E+02  0.55728089219E+02 -0.14121376439E+02  0.72284878556E+02  0.47000000000E+01 0.  1.
         11    1    6    6    0    0 -0.25852086626E+02 -0.25166675626E+02  0.18532506392E+01  0.36126534333E+02  0.00000000000E+00 0. -1.
        -12    1    6    6    0    0  0.16634262825E+02  0.31404988518E+01  0.79981818638E+02  0.81753609984E+02  0.00000000000E+00 0.  1.
</event>
<event>
12    1  0.8052519E-002  0.2605736E+03  0.7818608E-02  0.1106888E+00
         21   -1    0    0  503  502  0.00000000000E+00  0.00000000000E+00  0.76486334078E+02  0.76486334078E+02  0.00000000000E+00 0. -1.
         21   -1    0    0  501  503 -0.00000000000E+00 -0.00000000000E+00 -0.10377811981E+04  0.10377811981E+04  0.00000000000E+00 0. -1.
          6    2    1    2  501    0  0.67124236903E+02  0.18328033804E+03 -0.69439251017E+03  0.74167347016E+03  0.17263033531E+03 0.  0.
         24    2    3    3    0    0  0.73794401314E+02  0.13506341825E+03 -0.66282028007E+03  0.68346472373E+03  0.64074677488E+02 0.  0.
         -6    2    1    2    0  502 -0.67124236903E+02 -0.18328033804E+03 -0.26690235387E+03  0.37259406204E+03  0.17173270822E+03 0.  0.
        -24    2    5    5    0    0  0.97375013696E+00 -0.17277953436E+03 -0.19110845459E+03  0.27005427519E+03  0.80951556207E+02 0.  0.
          5    1    3    3  501    0 -0.66701644105E+01  0.48216919794E+02 -0.31572230098E+02  0.58208746431E+02  0.47000000000E+01 0. -1.
        -13    1    4    4    0    0  0.24506188013E+02  0.12950258378E+02 -0.55555430782E+02  0.62085975328E+02  0.00000000000E+00 0.  1.
         14    1    4    4    0    0  0.49288213301E+02  0.12211315987E+03 -0.60726484929E+03  0.62137874840E+03  0.00000000000E+00 0. -1.
         -5    1    5    5    0  502 -0.68097987040E+02 -0.10500803677E+02 -0.75793899286E+02  0.10253978684E+03  0.47000000000E+01 0.  1.
         11    1    6    6    0    0 -0.26423364262E+02 -0.32939033856E+02 -0.75705974776E+02  0.86686612271E+02  0.00000000000E+00 0. -1.
        -12    1    6    6    0    0  0.27397114398E+02 -0.13984050051E+03 -0.11540247981E+03  0.18336766292E+03  0.00000000000E+00 0.  1.
</event>
<event>
12    1  0.8052519E-002  0.1949423E+03  0.7818608E-02  0.1155648E+00
         21   -1    0    0  501  502  0.00000000000E+00  0.00000000000E+00  0.14030502111E+03  0.14030502111E+03  0.00000000000E+00 0. -1.
         21   -1    0    0  502  503 -0.00000000000E+00 -0.00000000000E+00 -0.26188833857E+03  0.26188833857E+03  0.00000000000E+00 0. -1.
         -6    2    1    2    0  503 -0.56036564298E+02 -0.69270112541E+02 -0.48894643039E+02  0.19414010193E+03  0.16541235754E+03 0.  0.
        -24    2    3    3    0    0  0.26181019743E+02 -0.65804727609E+02 -0.62534662457E+02  0.11059442491E+03  0.57487692961E+02 0.  0.
          6    2    1    2  501    0  0.56036564298E+02  0.69270112541E+02 -0.72688674421E+02  0.20805325775E+03  0.17338993524E+03 0.  0.
         24    2    5    5    0    0  0.29929150550E+02  0.37859926491E+01  0.24571953014E+02  0.87838921423E+02  0.78751555216E+02 0.  0.
          5    1    5    5  501    0  0.26107413749E+02  0.65484119892E+02 -0.97260627435E+02  0.12021433633E+03  0.47000000000E+01 0. -1.
        -13    1    6    6    0    0  0.10489340498E+01  0.37566304528E+02  0.11424192117E+01  0.37598306081E+02  0.00000000000E+00 0.  1.
         14    1    6    6    0    0  0.28880216500E+02 -0.33780311879E+02  0.23429533802E+02  0.50240615342E+02  0.00000000000E+00 0. -1.
         -5    1    3    3    0  503 -0.82217584041E+02 -0.34653849315E+01  0.13640019418E+02  0.83545677016E+02  0.47000000000E+01 0.  1.
         13    1    4    4    0    0  0.72774030981E+01 -0.14500272282E+01  0.95741954961E+01  0.12113149640E+02  0.00000000000E+00 0. -1.
        -14    1    4    4    0    0  0.18903616645E+02 -0.64354700381E+02 -0.72108857953E+02  0.98481275269E+02  0.00000000000E+00 0.  1.
</event>
<event>
12    1  0.8052519E-002  0.2366318E+03  0.7818608E-02  0.1122093E+00
         21   -1    0    0  503  502  0.00000000000E+00  0.00000000000E+00  0.10091917054E+03  0.10091917054E+03  0.00000000000E+00 0. -1.
         21   -1    0    0  501  503 -0.00000000000E+00 -0.00000000000E+00 -0.55577010967E+03  0.55577010967E+03  0.00000000000E+00 0. -1.
          6    2    1    2  501    0 -0.13472988060E+03  0.90749101818E+02 -0.21096748453E+03  0.31702031657E+03  0.17206702584E+03 0.  0.
         24    2    3    3    0    0 -0.15491164032E+03  0.52318238157E+02 -0.12639487962E+03  0.22184232432E+03  0.80644509514E+02 0.  0.
         -6    2    1    2    0  502  0.13472988060E+03 -0.90749101818E+02 -0.24388345461E+03  0.33966896364E+03  0.17177987432E+03 0.  0.
        -24    2    5    5    0    0  0.14588361786E+03 -0.66816195160E+02 -0.12652636356E+03  0.21928637896E+03  0.79568595709E+02 0.  0.
          5    1    3    3  501    0  0.20181759725E+02  0.38430863661E+02 -0.84572604905E+02  0.95177992245E+02  0.47000000000E+01 0. -1.
        -13    1    4    4    0    0 -0.22736833151E+02 -0.17269189198E+02 -0.42081060361E+01  0.28859948609E+02  0.00000000000E+00 0.  1.
         14    1    4    4    0    0 -0.13217480717E+03  0.69587427355E+02 -0.12218677359E+03  0.19298237571E+03  0.00000000000E+00 0. -1.
         -5    1    5    5    0  502 -0.11153737267E+02 -0.23932906658E+02 -0.11735709105E+03  0.12038258468E+03  0.47000000000E+01 0.  1.
         11    1    6    6    0    0  0.14560734114E+03 -0.38309402431E+02 -0.10787119982E+03  0.18521691030E+03  0.00000000000E+00 0. -1.
        -12    1    6    6    0    0  0.27627672133E+00 -0.28506792729E+02 -0.18655163735E+02  0.34069468656E+02  0.00000000000E+00 0.  1.
</event>
<event>
12    1  0.8052519E-002  0.2716792E+03  0.7818608E-02  0.1100351E+00
         21   -1    0    0  503  502  0.00000000000E+00  0.00000000000E+00  0.62848891525E+02  0.62848891525E+02  0.00000000000E+00 0.  1.
         21   -1    0    0  501  503 -0.00000000000E+00 -0.00000000000E+00 -0.11861860434E+04  0.11861860434E+04  0.00000000000E+00 0.  1.
          6    2    1    2  501    0  0.20913633967E+03 -0.23965277111E+02 -0.49736502260E+03  0.56672882691E+03  0.17174764762E+03 0.  0.
         24    2    3    3    0    0  0.32061733663E+02 -0.38150320589E+02 -0.14401395438E+03  0.17120929646E+03  0.78033341666E+02 0.  0.
         -6    2    1    2    0  502 -0.20913633967E+03  0.23965277111E+02 -0.62597212929E+03  0.68230610804E+03  0.17142979710E+03 0.  0.
        -24    2    5    5    0    0 -0.16160230719E+03 -0.46402693820E+02 -0.44412214336E+03  0.48155092638E+03  0.79864264820E+02 0.  0.
          5    1    3    3  501    0  0.17707460601E+03  0.14185043477E+02 -0.35335106822E+03  0.39551953045E+03  0.47000000000E+01 0. -1.
        -11    1    4    4    0    0  0.31430176262E+02 -0.53346167420E+02 -0.61370465679E+02  0.87177999610E+02  0.00000000000E+00 0.  1.
         12    1    4    4    0    0  0.63155740166E+00  0.15195846832E+02 -0.82643488700E+02  0.84031296849E+02  0.00000000000E+00 0. -1.
         -5    1    5    5    0  502 -0.47534032486E+02  0.70367970931E+02 -0.18184998594E+03  0.20075518166E+03  0.47000000000E+01 0.  1.
         13    1    6    6    0    0  0.26951670215E+01  0.10813707208E+02 -0.16688288279E+02  0.20067365411E+02  0.00000000000E+00 0. -1.
        -14    1    6    6    0    0 -0.16429747421E+03 -0.57216401028E+02 -0.42743385508E+03  0.46148356097E+03  0.00000000000E+00 0.  1.
</event>
<event>
12    1  0.8052519E-002  0.1745811E+03  0.7818608E-02  0.1173755E+00
         21   -1    0    0  501  502  0.00000000000E+00  0.00000000000E+00  0.35596307519E+02  0.35596307519E+02  0.00000000000E+00 0. -1.
         21   -1    0    0  502  503 -0.00000000000E+00 -0.00000000000E+00 -0.84521617690E+03  0.84521617690E+03  0.00000000000E+00 0. -1.
         -6    2    1    2    0  503 -0.14883757064E+02  0.29964923868E+02 -0.39597161340E+03  0.43274943158E+03  0.17134505837E+03 0.  0.
        -24    2    3    3    0    0 -0.94887822040E+01  0.54750052775E+02 -0.11744177861E+03  0.15302748528E+03  0.80853167062E+02 0.  0.
          6    2    1    2  501    0  0.14883757064E+02 -0.29964923868E+02 -0.41364825599E+03  0.44806305284E+03  0.16892660168E+03 0.  0.
         24    2    5    5    0    0  0.56522132337E+02  0.54241763613E+01 -0.14970629224E+03  0.17848265122E+03  0.78866404247E+02 0.  0.
          5    1    5    5  501    0 -0.41638375273E+02 -0.35389100230E+02 -0.26394196375E+03  0.26958040162E+03  0.47000000000E+01 0. -1.
        -13    1    6    6    0    0 -0.88515500132E+01  0.13907439841E+02 -0.18405981059E+01  0.16587785324E+02  0.00000000000E+00 0.  1.
         14    1    6    6    0    0  0.65373682350E+02 -0.84832634800E+01 -0.14786569413E+03  0.16189486590E+03  0.00000000000E+00 0. -1.
         -5    1    3    3    0  503 -0.53949748596E+01 -0.24785128906E+02 -0.27852983479E+03  0.27972194629E+03  0.47000000000E+01 0.  1.
         11    1    4    4    0    0  0.27239456886E+02  0.54474546971E+02 -0.65859419535E+02  0.89704667775E+02  0.00000000000E+00 0. -1.
        -12    1    4    4    0    0 -0.36728239090E+02  0.27550580354E+00 -0.51582359071E+02  0.63322817510E+02  0.00000000000E+00 0.  1.
</event>
<event>
12    1  0.8052519E-002  0.1744856E+03  0.7818608E-02  0.1173328E+00
         21   -1    0    0  501  502  0.00000000000E+00  0.00000000000E+00  0.70362920329E+03  0.70362920329E+03  0.00000000000E+00 0.  1.
         21   -1    0    0  502  503 -0.00000000000E+00 -0.00000000000E+00 -0.54996696113E+02  0.54996696113E+02  0.00000000000E+00 0.  1.
         -6    2    1    2    0  503 -0.14454258721E+02  0.24844919541E+02  0.14834617470E+03  0.22878474298E+03  0.17178380439E+03 0.  0.
        -24    2    3    3    0    0  0.43679396715E+02 -0.57527128005E+01  0.13783642037E+03  0.16208930134E+03  0.73027935945E+02 0.  0.
          6    2    1    2  501    0  0.14454258721E+02 -0.24844919541E+02  0.50028633247E+03  0.52984115642E+03  0.17210183309E+03 0.  0.
         24    2    5    5    0    0  0.43550584403E+02 -0.58926194497E+02  0.21421123480E+03  0.24023939368E+03  0.80371408860E+02 0.  0.
          5    1    5    5  501    0 -0.29096325683E+02  0.34081274956E+02  0.28607509768E+03  0.28960176274E+03  0.47000000000E+01 0. -1.
        -11    1    6    6    0    0  0.63773021114E+02 -0.23562791093E+02  0.13688262751E+03  0.15283670063E+03  0.00000000000E+00 0.  1.
         12    1    6    6    0    0 -0.20222436711E+02 -0.35363403404E+02  0.77328607287E+02  0.87402693046E+02  0.00000000000E+00 0. -1.
         -5    1    3    3    0  503 -0.58133655436E+02  0.30597632342E+02  0.10509754334E+02  0.66695441639E+02  0.47000000000E+01 0.  1.
         13    1    4    4    0    0 -0.33893386841E+01 -0.23809312888E+02  0.12737214253E+02  0.27214107074E+02  0.00000000000E+00 0. -1.
        -14    1    4    4    0    0  0.47068735399E+02  0.18056600088E+02  0.12509920611E+03  0.13487519427E+03  0.00000000000E+00 0.  1.
</event>
<event>
12    1  0.8052519E-002  0.3215148E+03  0.7818608E-02  0.1075001E+00
         21   -1    0    0  501  502  0.00000000000E+00  0.00000000000E+00  0.13671080914E+04  0.13671080914E+04  0.00000000000E+00 0.  1.
         21   -1    0    0  502  503 -0.00000000000E+00 -0.00000000000E+00 -0.76334660589E+02  0.76334660589E+02  0.00000000000E+00 0. -1.
         -6    2    1    2    0  503  0.14983362141E+03 -0.22606121337E+03  0.57108562005E+03  0.65537053037E+03  0.17267877792E+03 0.  0.
        -24    2    3    3    0    0  0.14143966503E+03 -0.91867514724E+02  0.32087382947E+03  0.37128174599E+03  0.80282634263E+02 0.  0.
          6    2    1    2  501    0 -0.14983362141E+03  0.22606121337E+03  0.71968781071E+03  0.78807222157E+03  0.17191130049E+03 0.  0.
         24    2    5    5    0    0 -0.61841147965E+02  0.20056867486E+03  0.52798540267E+03  0.57555293268E+03  0.91872041285E+02 0.  0.
          5    1    5    5  501    0 -0.87992473448E+02  0.25492538512E+02  0.19170240804E+03  0.21251928889E+03  0.47000000000E+01 0. -1.
        -11    1    6    6    0    0 -0.37759205291E+02  0.41376255810E+02  0.67403609649E+02  0.87641307171E+02  0.00000000000E+00 0.  1.
         12    1    6    6    0    0 -0.24081942674E+02  0.15919241905E+03  0.46058179302E+03  0.48791162551E+03  0.00000000000E+00 0. -1.
         -5    1    3    3    0  503  0.83939563865E+01 -0.13419369865E+03  0.25021179059E+03  0.28408878438E+03  0.47000000000E+01 0.  1.
         13    1    4    4    0    0  0.63975597470E+02 -0.25606294803E+02  0.20835079223E+03  0.21945070524E+03  0.00000000000E+00 0. -1.
        -14    1    4    4    0    0  0.77464067557E+02 -0.66261219921E+02  0.11252303724E+03  0.15183104076E+03  0.00000000000E+00 0.  1.
</event>
<event>
12    1  0.8052519E-002  0.1834302E+03  0.7818608E-02  0.1164670E+00
         21   -1    0    0  503  502  0.00000000000E+00  0.00000000000E+00  0.25369967334E+02  0.25369967334E+02  0.00000000000E+00 0. -1.
         21   -1    0    0  501  503 -0.00000000000E+00 -0.00000000000E+00 -0.19761272788E+04  0.19761272788E+04  0.00000000000E+00 0. -1.
          6    2    1    2  501    0  0.69363576392E+01  0.62916486428E+02 -0.15523373994E+04  0.15631372426E+04  0.17216283098E+03 0.  0.
         24    2    3    3    0    0 -0.60108082268E+02  0.61457692480E+02 -0.89482515141E+03  0.90219735786E+03  0.76537516461E+02 0.  0.
         -6    2    1    2    0  502 -0.69363576392E+01 -0.62916486428E+02 -0.39841991203E+03  0.43836000348E+03  0.17150646934E+03 0.  0.
        -24    2    5    5    0    0  0.21163183105E+02  0.27818443622E+02 -0.16656146895E+03  0.18775505670E+03  0.79293708788E+02 0.  0.
          5    1    3    3  501    0  0.67044439907E+02  0.14587939479E+01 -0.65751224799E+03  0.66093988476E+03  0.47000000000E+01 0. -1.
        -11    1    4    4    0    0 -0.16819183087E+02 -0.10668032480E+02 -0.38200307248E+03  0.38252194606E+03  0.00000000000E+00 0.  1.
         12    1    4    4    0    0 -0.43288899181E+02  0.72125724961E+02 -0.51282207893E+03  0.51967541180E+03  0.00000000000E+00 0. -1.
         -5    1    5    5    0  502 -0.28099540745E+02 -0.90734930050E+02 -0.23185844309E+03  0.25060494678E+03  0.47000000000E+01 0.  1.
         11    1    6    6    0    0 -0.13039391380E+02 -0.17257585510E+02 -0.15977309567E+02  0.26890972578E+02  0.00000000000E+00 0. -1.
        -12    1    6    6    0    0  0.34202574486E+02  0.45076029132E+02 -0.15058415938E+03  0.16086408412E+03  0.00000000000E+00 0.  1.
</event>
<event>
12    1  0.8052519E-002  0.2026665E+03  0.7818608E-02  0.1149313E+00
         21   -1    0    0  501  502  0.00000000000E+00  0.00000000000E+00  0.33587664303E+03  0.33587664303E+03  0.00000000000E+00 0.  1.
         21   -1    0    0  502  503 -0.00000000000E+00 -0.00000000000E+00 -0.11722396226E+03  0.11722396226E+03  0.00000000000E+00 0.  1.
         -6    2    1    2    0  503  0.86259577289E+02  0.62453728114E+02  0.11426754612E+03  0.23266024313E+03  0.17243124372E+03 0.  0.
        -24    2    3    3    0    0  0.54200913417E+02  0.34831625321E+02  0.14674394894E+03  0.17911077785E+03  0.79974389985E+02 0.  0.
          6    2    1    2  501    0 -0.86259577289E+02 -0.62453728114E+02  0.10438513465E+03  0.22044036215E+03  0.16234689434E+03 0.  0.
         24    2    5    5    0    0 -0.62450986774E+02 -0.94041191238E+02  0.39543687409E+02  0.14434095290E+03  0.80788217403E+02 0.  0.
          5    1    5    5  501    0 -0.23808590515E+02  0.31587463124E+02  0.64841447239E+02  0.76099409255E+02  0.47000000000E+01 0. -1.
        -11    1    6    6    0    0 -0.66729399593E+02 -0.49747456556E+02  0.51987164857E+02  0.98134028316E+02  0.00000000000E+00 0.  1.
         12    1    6    6    0    0  0.42784128181E+01 -0.44293734682E+02 -0.12443477447E+02  0.46206924582E+02  0.00000000000E+00 0. -1.
         -5    1    3    3    0  503  0.32058663872E+02  0.27622102792E+02 -0.32476402822E+02  0.53549465284E+02  0.47000000000E+01 0.  1.
         13    1    4    4    0    0  0.14848683096E+02 -0.55665143065E+01  0.11146748432E+03  0.11258982872E+03  0.00000000000E+00 0. -1.
        -14    1    4    4    0    0  0.39352230321E+02  0.40398139628E+02  0.35276464621E+02  0.66520949127E+02  0.00000000000E+00 0.  1.
</event>
<event>
12    1  0.8052519E-002  0.2167420E+03  0.7818608E-02  0.1136690E+00
         21   -1    0    0  503  502  0.00000000000E+00  0.00000000000E+00  0.13989279540E+04  0.13989279540E+04  0.00000000000E+00 0. -1.
         21   -1    0    0  501  503 -0.00000000000E+00 -0.00000000000E+00 -0.65682995389E+02  0.65682995389E+02  0.00000000000E+00 0. -1.
          6    2    1    2  501    0 -0.99347705592E+02  0.83814545345E+02  0.15093175231E+03  0.26259530723E+03  0.17111708538E+03 0.  0.
         24    2    3    3    0    0 -0.18115796932E+02 -0.18529442562E+02  0.42973495395E+02  0.93037086902E+02  0.78343193020E+02 0.  0.
         -6    2    1    2    0  502  0.99347705592E+02 -0.83814545345E+02  0.11823132063E+04  0.12020156421E+04  0.17344232926E+03 0.  0.
        -24    2    5    5    0    0  0.11869807791E+03 -0.13854552209E+02  0.79498943121E+03  0.80792093997E+03  0.80292385545E+02 0.  0.
          5    1    3    3  501    0 -0.81231908660E+02  0.10234398791E+03  0.10795825692E+03  0.16955822033E+03  0.47000000000E+01 0. -1.
        -13    1    4    4    0    0  0.30435052633E+02 -0.13839846447E+02  0.21445005227E+02  0.39720549186E+02  0.00000000000E+00 0.  1.
         14    1    4    4    0    0 -0.48550849564E+02 -0.46895961149E+01  0.21528490168E+02  0.53316537716E+02  0.00000000000E+00 0. -1.
         -5    1    5    5    0  502 -0.19350372317E+02 -0.69959993136E+02  0.38732377504E+03  0.39409470215E+03  0.47000000000E+01 0.  1.
         11    1    6    6    0    0  0.31702290726E+02  0.56543558031E+01  0.46455821006E+03  0.46567299418E+03  0.00000000000E+00 0. -1.
        -12    1    6    6    0    0  0.86995787182E+02 -0.19508908012E+02  0.33043122116E+03  0.34224794579E+03  0.00000000000E+00 0.  1.
</event>
<event>
12    1  0.8052519E-002  0.2156598E+03  0.7818608E-02  0.1137503E+00
         21   -1    0    0  501  502  0.00000000000E+00  0.00000000000E+00  0.50497016405E+02  0.50497016405E+02  0.00000000000E+00 0. -1.
         21   -1    0    0  502  503 -0.00000000000E+00 -0.00000000000E+00 -0.11431130009E+04  0.11431130009E+04  0.00000000000E+00 0. -1.
         -6    2    1    2    0  503  0.92182369739E+02 -0.90365934440E+02 -0.81563405673E+03  0.84366348165E+03  0.17275868826E+03 0.  0.
        -24    2    3    3    0    0  0.40919318320E+02 -0.98792262693E+02 -0.34620887720E+03  0.37134897560E+03  0.81272216929E+02 0.  0.
          6    2    1    2  501    0 -0.92182369739E+02  0.90365934440E+02 -0.27698192772E+03  0.34994653562E+03  0.17052858443E+03 0.  0.
         24    2    5    5    0    0 -0.73587983771E+02  0.11090562553E+03 -0.13715402690E+03  0.20732268786E+03  0.80350610936E+02 0.  0.
          5    1    5    5  501    0 -0.18594385969E+02 -0.20539691089E+02 -0.13982790082E+03  0.14262384776E+03  0.47000000000E+01 0. -1.
        -13    1    6    6    0    0 -0.41218995381E+02  0.14600740775E+01 -0.39648468731E+02  0.57211349130E+02  0.00000000000E+00 0.  1.
         14    1    6    6    0    0 -0.32368988389E+02  0.10944555145E+03 -0.97505558168E+02  0.15011133873E+03  0.00000000000E+00 0. -1.
         -5    1    3    3    0  503  0.51263051419E+02  0.84263282524E+01 -0.46942517953E+03  0.47231450605E+03  0.47000000000E+01 0.  1.
         13    1    4    4    0    0  0.60128746332E+02 -0.97825874992E+02 -0.28812813157E+03  0.31016638786E+03  0.00000000000E+00 0. -1.
        -14    1    4    4    0    0 -0.19209428011E+02 -0.96638770038E+00 -0.58080745630E+02  0.61182587741E+02  0.00000000000E+00 0.  1.
</event>
<event>
12    1  0.8052519E-002  0.2132885E+03  0.7818608E-02  0.1139076E+00
         21   -1    0    0  503  502  0.00000000000E+00  0.00000000000E+00  0.10391585621E+03  0.10391585621E+03  0.00000000000E+00 0.  1.
         21   -1    0    0  501  503 -0.00000000000E+00 -0.00000000000E+00 -0.48370689655E+03  0.48370689655E+03  0.00000000000E+00 0.  1.
          6    2    1    2  501    0  0.11216495805E+03  0.56936638877E+02 -0.28152048842E+03  0.35319366394E+03  0.17224755494E+03 0.  0.
         24    2    3    3    0    0  0.12076054360E+03  0.91732803249E+02 -0.19596797502E+03  0.26031751148E+03  0.79773074826E+02 0.  0.
         -6    2    1    2    0  502 -0.11216495805E+03 -0.56936638877E+02 -0.98270551918E+02  0.23442908883E+03  0.17168907261E+03 0.  0.
        -24    2    5    5    0    0 -0.73671062637E+02 -0.88748901221E+02 -0.11706052132E+03  0.18086648089E+03  0.75536251696E+02 0.  0.
          5    1    3    3  501    0 -0.85955855512E+01 -0.34796164372E+02 -0.85552513407E+02  0.92876152462E+02  0.47000000000E+01 0. -1.
        -13    1    4    4    0    0  0.65424012764E+01  0.28386987711E+02 -0.81843476744E+02  0.86873349028E+02  0.00000000000E+00 0.  1.
         14    1    4    4    0    0  0.11421814232E+03  0.63345815538E+02 -0.11412449827E+03  0.17344416245E+03  0.00000000000E+00 0. -1.
         -5    1    5    5    0  502 -0.38493895410E+02  0.31812262343E+02  0.18789969398E+02  0.53562607939E+02  0.47000000000E+01 0.  1.
         13    1    6    6    0    0 -0.73405786238E+01  0.10769246501E+02 -0.30687963552E+02  0.33340843896E+02  0.00000000000E+00 0. -1.
        -14    1    6    6    0    0 -0.66330484013E+02 -0.99518147721E+02 -0.86372557765E+02  0.14752563699E+03  0.00000000000E+00 0.  1.
</event>
<event>
12    1  0.8052519E-002  0.2227154E+03  0.7818608E-02  0.1132311E+00
         21   -1    0    0  501  502  0.00000000000E+00  0.00000000000E+00  0.92075957126E+03  0.92075957126E+03  0.00000000000E+00 0.  1.
         21   -1    0    0  502  503 -0.00000000000E+00 -0.00000000000E+00 -0.12552875333E+03  0.12552875333E+03  0.00000000000E+00 0.  1.
         -6    2    1    2    0  503  0.91365170015E+00 -0.13797174748E+03  0.16898384278E+01  0.22272178384E+03  0.17482877218E+03 0.  0.
        -24    2    3    3    0    0  0.16574754151E+02 -0.51728217129E+01  0.27938775080E+02  0.86369587344E+02  0.79860189740E+02 0.  0.
          6    2    1    2  501    0 -0.91365170015E+00  0.13797174748E+03  0.79354097951E+03  0.82356654075E+03  0.17180664429E+03 0.  0.
         24    2    5    5    0    0 -0.60928680828E+02  0.11935103368E+03  0.56328199484E+03  0.58484112375E+03  0.82435192273E+02 0.  0.
          5    1    5    5  501    0  0.60015029128E+02  0.18620713798E+02  0.23025898467E+03  0.23872541700E+03  0.47000000000E+01 0. -1.
        -13    1    6    6    0    0 -0.19446750084E+02  0.23689371249E+02  0.30156391109E+03  0.30311739454E+03  0.00000000000E+00 0.  1.
         14    1    6    6    0    0 -0.41481930744E+02  0.95661662432E+02  0.26171808375E+03  0.28172372921E+03  0.00000000000E+00 0. -1.
         -5    1    3    3    0  503 -0.15661102451E+02 -0.13279892577E+03 -0.26248936652E+02  0.13635219650E+03  0.47000000000E+01 0.  1.
         11    1    4    4    0    0  0.20814140336E+02  0.34596429817E+02  0.61983153886E+01  0.40848017182E+02  0.00000000000E+00 0. -1.
        -12    1    4    4    0    0 -0.42393861849E+01 -0.39769251530E+02  0.21740459691E+02  0.45521570162E+02  0.00000000000E+00 0.  1.
</event>
<event>
12    1  0.8052519E-002  0.2222591E+03  0.7818608E-02  0.1132314E+00
         21   -1    0    0  501  502  0.00000000000E+00  0.00000000000E+00  0.48569153216E+03  0.48569153216E+03  0.00000000000E+00 0.  1.
         21   -1    0    0  502  503 -0.00000000000E+00 -0.00000000000E+00 -0.21307487580E+03  0.21307487580E+03  0.00000000000E+00 0. -1.
         -6    2    1    2    0  503 -0.79137227640E+02  0.11612565703E+03 -0.11648872873E+03  0.25093566812E+03  0.17219528622E+03 0.  0.
        -24    2    3    3    0    0 -0.99456194162E+02  0.10407997650E+03 -0.37993585275E+02  0.16882880869E+03  0.79595716310E+02 0.  0.
          6    2    1    2  501    0  0.79137227640E+02 -0.11612565703E+03  0.38910538509E+03  0.44783073984E+03  0.17146866135E+03 0.  0.
         24    2    5    5    0    0  0.26642315039E+02 -0.13392189425E+03  0.33428857547E+03  0.36973211934E+03  0.79423558647E+02 0.  0.
          5    1    5    5  501    0  0.52494912602E+02  0.17796237220E+02  0.54816809614E+02  0.78098620503E+02  0.47000000000E+01 0. -1.
        -11    1    6    6    0    0  0.41366408299E+02 -0.11860993688E+03  0.21870732245E+03  0.25221496735E+03  0.00000000000E+00 0.  1.
         12    1    6    6    0    0 -0.14724093260E+02 -0.15311957369E+02  0.11558125303E+03  0.11751715199E+03  0.00000000000E+00 0. -1.
         -5    1    3    3    0  503  0.20318966521E+02  0.12045680525E+02 -0.78495143456E+02  0.82106859433E+02  0.47000000000E+01 0.  1.
         13    1    4    4    0    0 -0.10231246395E+03  0.56607418761E+02 -0.26105107193E+02  0.11980699796E+03  0.00000000000E+00 0. -1.
        -14    1    4    4    0    0  0.28562697929E+01  0.47472557741E+02 -0.11888478082E+02  0.49021810725E+02  0.00000000000E+00 0.  1.
</event>
<event>
12    1  0.8052519E-002  0.2375401E+03  0.7818608E-02  0.1121497E+00
         21   -1    0    0  503  502  0.00000000000E+00  0.00000000000E+00  0.48070408455E+03  0.48070408455E+03  0.00000000000E+00 0.  1.
         21   -1    0    0  501  503 -0.00000000000E+00 -0.00000000000E+00 -0.12823927704E+03  0.12823927704E+03  0.00000000000E+00 0.  1.
          6    2    1    2  501    0 -0.12586715899E+03 -0.10361876618E+03  0.87094049235E+02  0.25300327880E+03  0.17275964590E+03 0.  0.
         24    2    3    3    0    0 -0.15011214942E+03 -0.10912165701E+03  0.51525276315E+02  0.20935320462E+03  0.82053133721E+02 0.  0.
         -6    2    1    2    0  502  0.12586715899E+03  0.10361876618E+03  0.26537075828E+03  0.35594008280E+03  0.17231457505E+03 0.  0.
        -24    2    5    5    0    0  0.13249543203E+03  0.58341751952E+02  0.12210914454E+03  0.20547439903E+03  0.79688681416E+02 0.  0.
          5    1    3    3  501    0  0.24244990430E+02  0.55028908276E+01  0.35568772920E+02  0.43650074175E+02  0.47000000000E+01 0. -1.
        -13    1    4    4    0    0 -0.46935109653E+02 -0.81084349957E+02  0.39805491372E+02  0.10179417208E+03  0.00000000000E+00 0.  1.
         14    1    4    4    0    0 -0.10317703977E+03 -0.28037307054E+02  0.11719784943E+02  0.10755903254E+03  0.00000000000E+00 0. -1.
         -5    1    5    5    0  502 -0.66282730385E+01  0.45277014232E+02  0.14326161374E+03  0.15046568377E+03  0.47000000000E+01 0.  1.
         11    1    6    6    0    0  0.41519156590E+02  0.49520708477E+02  0.85117671006E+02  0.10686982198E+03  0.00000000000E+00 0. -1.
        -12    1    6    6    0    0  0.90976275441E+02  0.88210434755E+01  0.36991473533E+02  0.98604577050E+02  0.00000000000E+00 0.  1.
</event>
<event>
12    1  0.8052519E-002  0.2448425E+03  0.7818608E-02  0.1116714E+00
         21   -1    0    0  503  502  0.00000000000E+00  0.00000000000E+00  0.11049584868E+03  0.11049584868E+03  0.00000000000E+00 0. -1.
         21   -1    0    0  501  503 -0.00000000000E+00 -0.00000000000E+00 -0.63068995971E+03  0.63068995971E+03  0.00000000000E+00 0. -1.
          6    2    1    2  501    0  0.20712999851E+02  0.17192096573E+03 -0.12071550283E+03  0.27298365165E+03  0.17309533392E+03 0.  0.
         24    2    3    3    0    0  0.54611954058E+01  0.11523608309E+02 -0.61229134574E+02  0.10116791368E+03  0.79519316104E+02 0.  0.
         -6    2    1    2    0  502 -0.20712999851E+02 -0.17192096573E+03 -0.39947860819E+03  0.46820215675E+03  0.17217506892E+03 0.  0.
        -24    2    5    5    0    0 -0.55765256034E+02 -0.18025858655E+03 -0.36288255225E+03  0.41663144902E+03  0.79341639643E+02 0.  0.
          5    1    3    3  501    0  0.15251804445E+02  0.16039735742E+03 -0.59486368256E+02  0.17181573797E+03  0.47000000000E+01 0. -1.
        -11    1    4    4    0    0 -0.94128105688E+01  0.41990053789E+02 -0.48787525755E+02  0.65053733861E+02  0.00000000000E+00 0.  1.
         12    1    4    4    0    0  0.14874005975E+02 -0.30466445479E+02 -0.12441608818E+02  0.36114179817E+02  0.00000000000E+00 0. -1.
         -5    1    5    5    0  502  0.35052256183E+02  0.83376208263E+01 -0.36596055946E+02  0.51570707726E+02  0.47000000000E+01 0.  1.
         13    1    6    6    0    0 -0.11396749881E+02 -0.12798126853E+03 -0.28646990049E+03  0.31396511731E+03  0.00000000000E+00 0. -1.
        -14    1    6    6    0    0 -0.44368506153E+02 -0.52277318020E+02 -0.76412651757E+02  0.10266633171E+03  0.00000000000E+00 0.  1.
</event>
<event>
12    1  0.8052519E-002  0.1847404E+03  0.7818608E-02  0.1163357E+00
         21   -1    0    0  501  502  0.00000000000E+00  0.00000000000E+00  0.49568943951E+03  0.49568943951E+03  0.00000000000E+00 0. -1.
         21   -1    0    0  502  503 -0.00000000000E+00 -0.00000000000E+00 -0.80387625443E+02  0.80387625443E+02  0.00000000000E+00 0. -1.
         -6    2    1    2    0  503  0.40956379878E+02 -0.55148342244E+02  0.97921791862E+02  0.20884541726E+03  0.17119861647E+03 0.  0.
        -24    2    3    3    0    0  0.46726833605E+01  0.19141284839E+02  0.95733844055E+02  0.12600622097E+03  0.79525945898E+02 0.  0.
          6    2    1    2  501    0 -0.40956379878E+02  0.55148342244E+02  0.31738002220E+03  0.36723164769E+03  0.17149413946E+03 0.  0.
         24    2    5    5    0    0  0.96095385534E+01 -0.18110724665E+02  0.22137903068E+03  0.23622751278E+03  0.79839971131E+02 0.  0.
          5    1    5    5  501    0 -0.50565918431E+02  0.73259066909E+02  0.96000991516E+02  0.13100413491E+03  0.47000000000E+01 0. -1.
        -13    1    6    6    0    0  0.27722096177E+02 -0.27152571212E+02  0.48245659621E+02  0.61914621957E+02  0.00000000000E+00 0.  1.
         14    1    6    6    0    0 -0.18112557623E+02  0.90418465465E+01  0.17313337106E+03  0.17431289083E+03  0.00000000000E+00 0. -1.
         -5    1    3    3    0  503  0.36283696517E+02 -0.74289627084E+02  0.21879478069E+01  0.82839196283E+02  0.47000000000E+01 0.  1.
         11    1    4    4    0    0  0.26141458305E+02 -0.20952730808E+02  0.57689942273E+02  0.66712234336E+02  0.00000000000E+00 0. -1.
        -12    1    4    4    0    0 -0.21468774945E+02  0.40094015648E+02  0.38043901782E+02  0.59293986636E+02  0.00000000000E+00 0.  1.
</event>
<event>
12    1  0.8052519E-002  0.1866082E+03  0.7818608E-02  0.1162617E+00
         21   -1    0    0  503  502  0.00000000000E+00  0.00000000000E+00  0.59306467219E+03  0.59306467219E+03  0.00000000000E+00 0.  1.
         21   -1    0    0  501  503 -0.00000000000E+00 -0.00000000000E+00 -0.61938260871E+02  0.61938260871E+02  0.00000000000E+00 0.  1.
          6    2    1    2  501    0 -0.49656109594E+02 -0.37427810007E+02  0.17895455650E+03  0.25854858386E+03  0.17594336231E+03 0.  0.
         24    2    3    3    0    0  0.22785761736E+02 -0.46953472775E+02  0.15386952734E+03  0.18115406428E+03  0.80107078447E+02 0.  0.
         -6    2    1    2    0  502  0.49656109594E+02  0.37427810007E+02  0.35217185481E+03  0.39645434920E+03  0.17112704490E+03 0.  0.
        -24    2    5    5    0    0 -0.16456208243E+02  0.14750602243E+02  0.30205720252E+03  0.31032269012E+03  0.67625670807E+02 0.  0.
          5    1    3    3  501    0 -0.72441871330E+02  0.95256627681E+01  0.25085029166E+02  0.77394519581E+02  0.47000000000E+01 0. -1.
        -11    1    4    4    0    0  0.30476865322E+02 -0.15710918093E+01  0.13389843772E+02  0.33325599253E+02  0.00000000000E+00 0.  1.
         12    1    4    4    0    0 -0.76911035866E+01 -0.45382380966E+02  0.14047968357E+03  0.14782846502E+03  0.00000000000E+00 0. -1.
         -5    1    5    5    0  502  0.66112317838E+02  0.22677207764E+02  0.50114652295E+02  0.86131659084E+02  0.47000000000E+01 0.  1.
         11    1    6    6    0    0 -0.32169205320E+02  0.79718083016E+01  0.68059690895E+02  0.75700257748E+02  0.00000000000E+00 0. -1.
        -12    1    6    6    0    0  0.15712997077E+02  0.67787939416E+01  0.23399751162E+03  0.23462243237E+03  0.00000000000E+00 0.  1.
</event>
<event>
12    1  0.8052519E-002  0.2160533E+03  0.7818608E-02  0.1137059E+00
         21   -1    0    0  503  502  0.00000000000E+00  0.00000000000E+00  0.49228173153E+03  0.49228173153E+03  0.00000000000E+00 0. -1.
         21   -1    0    0  501  503 -0.00000000000E+00 -0.00000000000E+00 -0.20103045962E+03  0.20103045962E+03  0.00000000000E+00 0. -1.
          6    2    1    2  501    0  0.46609982634E+02  0.12159288642E+03 -0.10704808459E+03  0.24018812268E+03  0.17109564972E+03 0.  0.
         24    2    3    3    0    0  0.45817030433E+02  0.20715314178E+02 -0.77131702422E+00  0.93580637611E+02  0.78920316057E+02 0.  0.
         -6    2    1    2    0  502 -0.46609982634E+02 -0.12159288642E+03  0.39829935649E+03  0.45312406847E+03  0.17239989426E+03 0.  0.
        -24    2    5    5    0    0 -0.79271320147E+02 -0.90820675405E+02  0.37656876573E+03  0.40304412724E+03  0.78154948036E+02 0.  0.
          5    1    3    3  501    0  0.79295220139E+00  0.10087757224E+03 -0.10627676756E+03  0.14660748507E+03  0.47000000000E+01 0. -1.
        -11    1    4    4    0    0  0.68007328011E+02  0.94227406606E+01 -0.14632951689E+01  0.68672599612E+02  0.00000000000E+00 0.  1.
         12    1    4    4    0    0 -0.22190297578E+02  0.11292573518E+02  0.69197814464E+00  0.24908038000E+02  0.00000000000E+00 0. -1.
         -5    1    5    5    0  502  0.32661337513E+02 -0.30772211015E+02  0.21730590761E+02  0.50079941231E+02  0.47000000000E+01 0.  1.
         11    1    6    6    0    0 -0.19071680100E+01 -0.60547351466E+02  0.15598648417E+03  0.16733619544E+03  0.00000000000E+00 0. -1.
        -12    1    6    6    0    0 -0.77364152137E+02 -0.30273323938E+02  0.22058228156E+03  0.23570793181E+03  0.00000000000E+00 0.  1.
</event>
<event>
12    1  0.8052519E-002  0.1805081E+03  0.7818608E-02  0.1167409E+00
         21   -1    0    0  501  502  0.00000000000E+00  0.00000000000E+00  0.26408616867E+03  0.26408616867E+03  0.00000000000E+00 0. -1.
         21   -1    0    0  502  503 -0.00000000000E+00 -0.00000000000E+00 -0.19037587346E+03  0.19037587346E+03  0.00000000000E+00 0. -1.
         -6    2    1    2    0  503 -0.25148687105E+02  0.51067557364E+02 -0.98191732469E+02  0.20548671703E+03  0.17129746837E+03 0.  0.
        -24    2    3    3    0    0 -0.59663039883E+01  0.74245286807E+02 -0.12474374620E+03  0.16508535074E+03  0.78385020357E+02 0.  0.
          6    2    1    2  501    0  0.25148687105E+02 -0.51067557364E+02  0.17190202767E+03  0.24897532511E+03  0.17087437934E+03 0.  0.
         24    2    5    5    0    0 -0.89070222147E+01 -0.42580216274E+02  0.20962469942E+02  0.93937696179E+02  0.80575776475E+02 0.  0.
          5    1    5    5  501    0  0.34055709319E+02 -0.84873410900E+01  0.15093955773E+03  0.15503762893E+03  0.47000000000E+01 0. -1.
        -11    1    6    6    0    0  0.24696821612E+02  0.11869172048E+02  0.90303274218E+01  0.28850598888E+02  0.00000000000E+00 0.  1.
         12    1    6    6    0    0 -0.33603843826E+02 -0.54449388323E+02  0.11932142520E+02  0.65087097291E+02  0.00000000000E+00 0. -1.
         -5    1    3    3    0  503 -0.19182383116E+02 -0.23177729443E+02  0.26552013735E+02  0.40401366283E+02  0.47000000000E+01 0.  1.
         13    1    4    4    0    0  0.35258572263E+02  0.46534363194E+02 -0.64345019893E+02  0.86884379844E+02  0.00000000000E+00 0. -1.
        -14    1    4    4    0    0 -0.41224876251E+02  0.27710923613E+02 -0.60398726311E+02  0.78200970898E+02  0.00000000000E+00 0.  1.
</event>
<event>
12    1  0.8052519E-002  0.2115651E+03  0.7818608E-02  0.1140443E+00
         21   -1    0    0  501  502  0.00000000000E+00  0.00000000000E+00  0.15234688238E+03  0.15234688238E+03  0.00000000000E+00 0.  1.
         21   -1    0    0  502  503 -0.00000000000E+00 -0.00000000000E+00 -0.39577086674E+03  0.39577086674E+03  0.00000000000E+00 0.  1.
         -6    2    1    2    0  503 -0.38712096659E+01 -0.12214119717E+03 -0.26147264022E+03  0.33634467723E+03  0.17270304574E+03 0.  0.
        -24    2    3    3    0    0 -0.46774793377E+02 -0.36922578915E+02 -0.19622139388E+03  0.22066086012E+03  0.81469145343E+02 0.  0.
          6    2    1    2  501    0  0.38712096659E+01  0.12214119717E+03  0.18048655864E+02  0.21177307189E+03  0.17201343461E+03 0.  0.
         24    2    5    5    0    0 -0.47777309228E+02  0.90709916357E+02  0.54562433690E+02  0.14098577862E+03  0.79931035271E+02 0.  0.
          5    1    5    5  501    0  0.51648518893E+02  0.31431280814E+02 -0.36513777827E+02  0.70787293271E+02  0.47000000000E+01 0. -1.
        -13    1    6    6    0    0 -0.19485434615E+02  0.93186340249E+02  0.21872097521E+02  0.97681957501E+02  0.00000000000E+00 0.  1.
         14    1    6    6    0    0 -0.28291874613E+02 -0.24764238925E+01  0.32690336170E+02  0.43303821117E+02  0.00000000000E+00 0. -1.
         -5    1    3    3    0  503  0.42903583711E+02 -0.85218618256E+02 -0.65251246335E+02  0.11568381711E+03  0.47000000000E+01 0.  1.
         13    1    4    4    0    0 -0.17621717608E+02  0.21924121888E+02 -0.26371876052E+02  0.38557332616E+02  0.00000000000E+00 0. -1.
        -14    1    4    4    0    0 -0.29153075769E+02 -0.58846700803E+02 -0.16984951783E+03  0.18210352751E+03  0.00000000000E+00 0.  1.
</event>
<event>
12    1  0.8052519E-002  0.2144172E+03  0.7818608E-02  0.1138801E+00
         21   -1    0    0  501  502  0.00000000000E+00  0.00000000000E+00  0.87701633678E+03  0.87701633678E+03  0.00000000000E+00 0. -1.
         21   -1    0    0  502  503 -0.00000000000E+00 -0.00000000000E+00 -0.83036123470E+02  0.83036123470E+02  0.00000000000E+00 0. -1.
         -6    2    1    2    0  503 -0.11519441997E+03  0.55431930257E+02  0.10351032018E+03  0.23809476843E+03  0.17214028897E+03 0.  0.
        -24    2    3    3    0    0 -0.14610473115E+03  0.67445880503E+02  0.95027011871E+02  0.20354279515E+03  0.80647363325E+02 0.  0.
          6    2    1    2  501    0  0.11519441997E+03 -0.55431930257E+02  0.69046989313E+03  0.72195769182E+03  0.16772531763E+03 0.  0.
         24    2    5    5    0    0  0.14592621092E+03 -0.59431276853E+02  0.62289159124E+03  0.64746370122E+03  0.79929808391E+02 0.  0.
          5    1    5    5  501    0 -0.30731790946E+02  0.39993465956E+01  0.67578301893E+02  0.74493990595E+02  0.47000000000E+01 0. -1.
        -11    1    6    6    0    0 -0.86721914495E+00 -0.46368982359E+01 -0.44264268191E+00  0.47380192949E+01  0.00000000000E+00 0.  1.
         12    1    6    6    0    0  0.14679343006E+03 -0.54794378617E+02  0.62333423392E+03  0.64272568193E+03  0.00000000000E+00 0. -1.
         -5    1    3    3    0  503  0.30910311179E+02 -0.12013950245E+02  0.84833083064E+01  0.34551973280E+02  0.47000000000E+01 0.  1.
         13    1    4    4    0    0 -0.64101163361E+02  0.68058485141E+02  0.73037931290E+02  0.11864002677E+03  0.00000000000E+00 0. -1.
        -14    1    4    4    0    0 -0.82003567787E+02 -0.61260463820E+00  0.21989080581E+02  0.84902768383E+02  0.00000000000E+00 0.  1.
</event>
<event>
12    1  0.8052519E-002  0.1888316E+03  0.7818608E-02  0.1160463E+00
         21   -1    0    0  501  502  0.00000000000E+00  0.00000000000E+00  0.10941235124E+04  0.10941235124E+04  0.00000000000E+00 0. -1.
         21   -1    0    0  502  503 -0.00000000000E+00 -0.00000000000E+00 -0.34038506582E+02  0.34038506582E+02  0.00000000000E+00 0. -1.
         -6    2    1    2    0  503 -0.75667696568E+01  0.68107544186E+02  0.38274450649E+03  0.42499239928E+03  0.17154966807E+03 0.  0.
        -24    2    3    3    0    0 -0.45666241905E+02  0.67329242465E+02  0.36562188052E+03  0.38295134959E+03  0.79710376310E+02 0.  0.
          6    2    1    2  501    0  0.75667696568E+01 -0.68107544186E+02  0.67734049928E+03  0.70316961966E+03  0.17595871240E+03 0.  0.
         24    2    5    5    0    0  0.10698401496E+02 -0.11562811060E+02  0.60884213087E+03  0.61416832508E+03  0.79157038936E+02 0.  0.
          5    1    5    5  501    0 -0.31316318390E+01 -0.56544733126E+02  0.68498368411E+02  0.89001294582E+02  0.47000000000E+01 0. -1.
        -11    1    6    6    0    0  0.22405385610E+00  0.33632230360E+02  0.29607610696E+03  0.29798026483E+03  0.00000000000E+00 0.  1.
         12    1    6    6    0    0  0.10474347640E+02 -0.45195041420E+02  0.31276602391E+03  0.31618806025E+03  0.00000000000E+00 0. -1.
         -5    1    3    3    0  503  0.38099472248E+02  0.77830172114E+00  0.17122625970E+02  0.42041049693E+02  0.47000000000E+01 0.  1.
         11    1    4    4    0    0  0.51340644044E+01  0.18440494896E+02  0.12504279492E+02  0.22864108882E+02  0.00000000000E+00 0. -1.
        -12    1    4    4    0    0 -0.50800306309E+02  0.48888747569E+02  0.35311760103E+03  0.36008724070E+03  0.00000000000E+00 0.  1.
</event>
<event>
12    1  0.8052519E-002  0.3168452E+03  0.7818608E-02  0.1077126E+00
         21   -1    0    0  503  502  0.00000000000E+00  0.00000000000E+00  0.17266308027E+04  0.17266308027E+04  0.00000000000E+00 0.  1.
         21   -1    0    0  501  503 -0.00000000000E+00 -0.00000000000E+00 -0.19774668440E+03  0.19774668440E+03  0.00000000000E+00 0. -1.
          6    2    1    2  501    0  0.26525158823E+03  0.18751646725E+02 -0.44033911259E+02  0.31989044168E+03  0.17228139779E+03 0.  0.
         24    2    3    3    0    0  0.11603697524E+03 -0.51643570047E+02 -0.39521059717E+02  0.15477550261E+03  0.79132193816E+02 0.  0.
         -6    2    1    2    0  502 -0.26525158823E+03 -0.18751646725E+02  0.15729180296E+04  0.16044870454E+04  0.17203930334E+03 0.  0.
        -24    2    5    5    0    0 -0.10901283732E+03  0.90464004935E+01  0.10118932940E+04  0.10214311968E+04  0.86185934267E+02 0.  0.
          5    1    3    3  501    0  0.14921461299E+03  0.70395216772E+02 -0.45128515419E+01  0.16511493907E+03  0.47000000000E+01 0. -1.
        -11    1    4    4    0    0  0.50436749398E+02 -0.40172813053E+02  0.17817409265E+02  0.66896791189E+02  0.00000000000E+00 0.  1.
         12    1    4    4    0    0  0.65600225838E+02 -0.11470756994E+02 -0.57338468982E+02  0.87878711422E+02  0.00000000000E+00 0. -1.
         -5    1    5    5    0  502 -0.15623875091E+03 -0.27798047218E+02  0.56102473556E+03  0.58305584863E+03  0.47000000000E+01 0.  1.
         11    1    6    6    0    0  0.37540906082E+01  0.18685463448E+02  0.63213326885E+02  0.66023968651E+02  0.00000000000E+00 0. -1.
        -12    1    6    6    0    0 -0.11276692793E+03 -0.96390629550E+01  0.94867996714E+03  0.95540722816E+03  0.00000000000E+00 0.  1.
</event>
<event>
12    1  0.8052519E-002  0.2161258E+03  0.7818608E-02  0.1136831E+00
         21   -1    0    0  503  502  0.00000000000E+00  0.00000000000E+00  0.23646676419E+02  0.23646676419E+02  0.00000000000E+00 0. -1.
         21   -1    0    0  501  503 -0.00000000000E+00 -0.00000000000E+00 -0.19898391015E+04  0.19898391015E+04  0.00000000000E+00 0. -1.
          6    2    1    2  501    0  0.15200582134E+02  0.12885987005E+03 -0.10729361922E+04  0.10944872921E+04  0.17284222944E+03 0.  0.
         24    2    3    3    0    0 -0.13107586776E+02  0.51433670592E+02 -0.25511037166E+03  0.27250351398E+03  0.79747301524E+02 0.  0.
         -6    2    1    2    0  502 -0.15200582134E+02 -0.12885987005E+03 -0.89325623291E+03  0.91899848583E+03  0.17267193029E+03 0.  0.
        -24    2    5    5    0    0 -0.66216451110E+02 -0.34015636131E+02 -0.45463316712E+03  0.46732345725E+03  0.78474296120E+02 0.  0.
          5    1    3    3  501    0  0.28308168910E+02  0.77426199459E+02 -0.81782582053E+03  0.82198377814E+03  0.47000000000E+01 0. -1.
        -13    1    4    4    0    0 -0.45224863836E+02  0.31165588832E+02 -0.18215419713E+03  0.19025439224E+03  0.00000000000E+00 0.  1.
         14    1    4    4    0    0  0.32117277060E+02  0.20268081760E+02 -0.72956174536E+02  0.82249121740E+02  0.00000000000E+00 0. -1.
         -5    1    5    5    0  502  0.51015868976E+02 -0.94844233920E+02 -0.43862306579E+03  0.45167502857E+03  0.47000000000E+01 0.  1.
         11    1    6    6    0    0 -0.85149468622E+01 -0.43924615249E+02 -0.26842374384E+03  0.27212714382E+03  0.00000000000E+00 0. -1.
        -12    1    6    6    0    0 -0.57701504248E+02  0.99089791183E+01 -0.18620942329E+03  0.19519631344E+03  0.00000000000E+00 0.  1.
</event>
<event>
12    1  0.8052519E-002  0.1927683E+03  0.7818608E-02  0.1156921E+00
         21   -1    0    0  503  502  0.00000000000E+00  0.00000000000E+00  0.23868847037E+02  0.23868847037E+02  0.00000000000E+00 0. -1.
         21   -1    0    0  501  503 -0.00000000000E+00 -0.00000000000E+00 -0.21279713231E+04  0.21279713231E+04  0.00000000000E+00 0. -1.
          6    2    1    2  501    0 -0.51147056690E+01  0.76880144513E+02 -0.16337756474E+04  0.16451086595E+04  0.17670008055E+03 0.  0.
         24    2    3    3    0    0 -0.72825516714E+02  0.59288407827E+02 -0.10542956965E+04  0.10614021179E+04  0.78843953705E+02 0.  0.
         -6    2    1    2    0  502  0.51147056690E+01 -0.76880144513E+02 -0.47032682863E+03  0.50673151068E+03  0.17214174783E+03 0.  0.
        -24    2    5    5    0    0 -0.56329610171E+02 -0.11921241188E+02 -0.24056819414E+03  0.26014241280E+03  0.80534948497E+02 0.  0.
          5    1    3    3  501    0  0.67710811045E+02  0.17591736686E+02 -0.57947995096E+03  0.58370654160E+03  0.47000000000E+01 0. -1.
        -13    1    4    4    0    0  0.25916539669E+01  0.42081954767E+02 -0.49327469850E+03  0.49507326303E+03  0.00000000000E+00 0.  1.
         14    1    4    4    0    0 -0.75417170681E+02  0.17206453061E+02 -0.56102099798E+03  0.56632885485E+03  0.00000000000E+00 0. -1.
         -5    1    5    5    0  502  0.61444315840E+02 -0.64958903325E+02 -0.22975863449E+03  0.24658909788E+03  0.47000000000E+01 0.  1.
         11    1    6    6    0    0  0.19305336669E+02 -0.82669625948E+01 -0.32216704902E+02  0.38457180983E+02  0.00000000000E+00 0. -1.
        -12    1    6    6    0    0 -0.75634946840E+02 -0.36542785933E+01 -0.20835148924E+03  0.22168523181E+03  0.00000000000E+00 0.  1.
</event>
<event>
12    1  0.8052519E-002  0.1794776E+03  0.7818608E-02  0.1168844E+00
         21   -1    0    0  501  502  0.00000000000E+00  0.00000000000E+00  0.15779780323E+03  0.15779780323E+03  0.00000000000E+00 0.  1.
         21   -1    0    0  502  503 -0.00000000000E+00 -0.00000000000E+00 -0.20190463649E+03  0.20190463649E+03  0.00000000000E+00 0. -1.
         -6    2    1    2    0  503 -0.24910432413E+02  0.38816924563E+02 -0.28502806364E+02  0.18172680783E+03  0.17345010648E+03 0.  0.
        -24    2    3    3    0    0 -0.33452135407E+02  0.67018210466E+02 -0.70665766700E+02  0.13007336225E+03  0.79466616169E+02 0.  0.
          6    2    1    2  501    0  0.24910432413E+02 -0.38816924563E+02 -0.15604026888E+02  0.17797563189E+03  0.17118573718E+03 0.  0.
         24    2    5    5    0    0 -0.85276809374E+01  0.33014729583E+02  0.23201947980E+02  0.89624697274E+02  0.79571114482E+02 0.  0.
          5    1    5    5  501    0  0.33438113350E+02 -0.71831654146E+02 -0.38805974868E+02  0.88350934614E+02  0.47000000000E+01 0. -1.
        -11    1    6    6    0    0  0.56952144094E+01  0.55773106951E+02  0.32013981451E+01  0.56154464437E+02  0.00000000000E+00 0.  1.
         12    1    6    6    0    0 -0.14222895347E+02 -0.22758377368E+02  0.20000549835E+02  0.33470232837E+02  0.00000000000E+00 0. -1.
         -5    1    3    3    0  503  0.85417029942E+01 -0.28201285903E+02  0.42162960336E+02  0.51653445586E+02  0.47000000000E+01 0.  1.
         11    1    4    4    0    0 -0.28618153569E+02  0.45379902204E+02  0.24138933077E+01  0.53704386400E+02  0.00000000000E+00 0. -1.
        -12    1    4    4    0    0 -0.48339818375E+01  0.21638308262E+02 -0.73079660008E+02  0.76368975845E+02  0.00000000000E+00 0.  1.
</event>
<event>
12    1  0.8052519E-002  0.1789614E+03  0.7818608E-02  0.1168938E+00
         21   -1    0    0  501  502  0.00000000000E+00  0.00000000000E+00  0.88973621788E+02  0.88973621788E+02  0.00000000000E+00 0.  1.
         21   -1    0    0  502  503 -0.00000000000E+00 -0.00000000000E+00 -0.44315301866E+03  0.44315301866E+03  0.00000000000E+00 0.  1.
         -6    2    1    2    0  503 -0.48768079128E+02 -0.37989908475E+01 -0.29329264504E+03  0.34358078676E+03  0.17214651759E+03 0.  0.
        -24    2    3    3    0    0 -0.91701170845E+02 -0.28303747569E+02 -0.23785662517E+03  0.26915649123E+03  0.81604140639E+02 0.  0.
          6    2    1    2  501    0  0.48768079128E+02  0.37989908475E+01 -0.60886751825E+02  0.18854585369E+03  0.17160881248E+03 0.  0.
         24    2    5    5    0    0 -0.16193749346E+02 -0.45746767649E+02 -0.12537064838E+02  0.93495321991E+02  0.78925236593E+02 0.  0.
          5    1    5    5  501    0  0.64961828474E+02  0.49545758496E+02 -0.48349686987E+02  0.95050531695E+02  0.47000000000E+01 0. -1.
        -11    1    6    6    0    0 -0.48571571608E+01 -0.12099646618E+02  0.33156952751E+02  0.35628316543E+02  0.00000000000E+00 0.  1.
         12    1    6    6    0    0 -0.11336592185E+02 -0.33647121031E+02 -0.45694017589E+02  0.57867005448E+02  0.00000000000E+00 0. -1.
         -5    1    3    3    0  503  0.42933091717E+02  0.24504756722E+02 -0.55436019869E+02  0.74424295531E+02  0.47000000000E+01 0.  1.
         13    1    4    4    0    0 -0.37241857898E+02  0.23952588014E+02 -0.13139231993E+03  0.13865289102E+03  0.00000000000E+00 0. -1.
        -14    1    4    4    0    0 -0.54459312947E+02 -0.52256335583E+02 -0.10646430524E+03  0.13050360020E+03  0.00000000000E+00 0.  1.
</event>
<event>
12    1  0.8052519E-002  0.2015974E+03  0.7818608E-02  0.1148794E+00
         21   -1    0    0  503  502  0.00000000000E+00  0.00000000000E+00  0.13412988711E+03  0.13412988711E+03  0.00000000000E+00 0.  1.
         21   -1    0    0  501  503 -0.00000000000E+00 -0.00000000000E+00 -0.30584415606E+03  0.30584415606E+03  0.00000000000E+00 0. -1.
          6    2    1    2  501    0 -0.10454490337E+03 -0.52347006359E+01 -0.55502669158E+02  0.20727972387E+03  0.17008027144E+03 0.  0.
         24    2    3    3    0    0 -0.49188530782E+02  0.58878111485E+02 -0.12265052737E+02  0.11206227727E+03  0.80755054918E+02 0.  0.
         -6    2    1    2    0  502  0.10454490337E+03  0.52347006359E+01 -0.11621159979E+03  0.23269431930E+03  0.17229182046E+03 0.  0.
        -24    2    5    5    0    0  0.13971968175E+03  0.15047455712E+02 -0.11191313306E+03  0.19562516754E+03  0.77437984431E+02 0.  0.
          5    1    3    3  501    0 -0.55356372591E+02 -0.64112812121E+02 -0.43237616421E+02  0.95217446606E+02  0.47000000000E+01 0. -1.
        -11    1    4    4    0    0  0.11615865632E+02  0.48279023455E+02 -0.62526598978E+01  0.50048858088E+02  0.00000000000E+00 0.  1.
         12    1    4    4    0    0 -0.60804396415E+02  0.10599088030E+02 -0.60123928388E+01  0.62013419177E+02  0.00000000000E+00 0. -1.
         -5    1    5    5    0  502 -0.35174778374E+02 -0.98127550756E+01 -0.42984667262E+01  0.37069151758E+02  0.47000000000E+01 0.  1.
         13    1    6    6    0    0  0.76393778231E+02  0.21373163999E+02 -0.10501816852E+03  0.13161169101E+03  0.00000000000E+00 0. -1.
        -14    1    6    6    0    0  0.63325903517E+02 -0.63257082872E+01 -0.68949645444E+01  0.64013476531E+02  0.00000000000E+00 0.  1.
</event>
<event>
12    1  0.8052519E-002  0.1880097E+03  0.7818608E-02  0.1160719E+00
         21   -1    0    0  501  502  0.00000000000E+00  0.00000000000E+00  0.43489040788E+03  0.43489040788E+03  0.00000000000E+00 0.  1.
         21   -1    0    0  502  503 -0.00000000000E+00 -0.00000000000E+00 -0.84213832505E+02  0.84213832505E+02  0.00000000000E+00 0.  1.
         -6    2    1    2    0  503 -0.69633683095E+02  0.16349556304E+02  0.22944301306E+03  0.29539636881E+03  0.17175203245E+03 0.  0.
        -24    2    3    3    0    0 -0.38743030250E+02 -0.11057808521E+02  0.23649300377E+03  0.25323965584E+03  0.81105393997E+02 0.  0.
          6    2    1    2  501    0  0.69633683095E+02 -0.16349556304E+02  0.12123356231E+03  0.22370787157E+03  0.17387201431E+03 0.  0.
         24    2    5    5    0    0  0.50662330370E+02 -0.18754506004E+02  0.16189043577E+03  0.17853301831E+03  0.52412996673E+02 0.  0.
          5    1    5    5  501    0  0.18971352724E+02  0.24049496997E+01 -0.40656873462E+02  0.45174853259E+02  0.47000000000E+01 0. -1.
        -13    1    6    6    0    0  0.49492765444E+02 -0.30617413870E+02  0.10170794243E+03  0.11718133562E+03  0.00000000000E+00 0.  1.
         14    1    6    6    0    0  0.11695649264E+01  0.11862907867E+02  0.60182493340E+02  0.61351682697E+02  0.00000000000E+00 0. -1.
         -5    1    3    3    0  503 -0.30890652844E+02  0.27407364825E+02 -0.70499907025E+01  0.42156712973E+02  0.47000000000E+01 0.  1.
         13    1    4    4    0    0  0.18563848766E+02  0.15333291226E+02  0.10019514054E+03  0.10304752538E+03  0.00000000000E+00 0. -1.
        -14    1    4    4    0    0 -0.57306879017E+02 -0.26391099747E+02  0.13629786323E+03  0.15019213045E+03  0.00000000000E+00 0.  1.
</event>
<event>
12    1  0.8052519E-002  0.2176456E+03  0.7818608E-02  0.1135839E+00
         21   -1    0    0  501  502  0.00000000000E+00  0.00000000000E+00  0.73665653648E+02  0.73665653648E+02  0.00000000000E+00 0.  1.
         21   -1    0    0  502  503 -0.00000000000E+00 -0.00000000000E+00 -0.69289570444E+03  0.69289570444E+03  0.00000000000E+00 0. -1.
         -6    2    1    2    0  503 -0.50471725799E+01 -0.13332330786E+03 -0.41476381402E+03  0.46793774539E+03  0.17069309819E+03 0.  0.
        -24    2    3    3    0    0 -0.67513049845E+02 -0.10383342845E+03 -0.28306498105E+03  0.31914825848E+03  0.79940194080E+02 0.  0.
          6    2    1    2  501    0  0.50471725799E+01  0.13332330786E+03 -0.20446623678E+03  0.29862361270E+03  0.17195651111E+03 0.  0.
         24    2    5    5    0    0  0.17694972552E+02  0.10142289758E+03 -0.47882901794E+02  0.13825518122E+03  0.78879697287E+02 0.  0.
          5    1    5    5  501    0 -0.12647799972E+02  0.31900410279E+02 -0.15658333498E+03  0.16036843148E+03  0.47000000000E+01 0. -1.
        -13    1    6    6    0    0  0.34599796957E+02  0.57418602293E+02 -0.59578434858E+02  0.89686296271E+02  0.00000000000E+00 0.  1.
         14    1    6    6    0    0 -0.16904824405E+02  0.44004295287E+02  0.11695533065E+02  0.48568884953E+02  0.00000000000E+00 0. -1.
         -5    1    3    3    0  503  0.62465877265E+02 -0.29489879409E+02 -0.13169883297E+03  0.14878948691E+03  0.47000000000E+01 0.  1.
         13    1    4    4    0    0 -0.34508035518E+02 -0.74498838367E+02 -0.25232081745E+03  0.26534256416E+03  0.00000000000E+00 0. -1.
        -14    1    4    4    0    0 -0.33005014328E+02 -0.29334590082E+02 -0.30744163598E+02  0.53805694322E+02  0.00000000000E+00 0.  1.
</event>
<event>
12    1  0.8052519E-002  0.1887367E+03  0.7818608E-02  0.1160588E+00
         21   -1    0    0  503  502  0.00000000000E+00  0.00000000000E+00  0.44255586225E+03  0.44255586225E+03  0.00000000000E+00 0.  1.
         21   -1    0    0  501  503 -0.00000000000E+00 -0.00000000000E+00 -0.83049028820E+02  0.83049028820E+02  0.00000000000E+00 0.  1.
          6    2    1    2  501    0 -0.66587004174E+02 -0.12262981643E+01  0.12143129117E+03  0.22442613673E+03  0.17659614787E+03 0.  0.
         24    2    3    3    0    0 -0.10559233138E+03 -0.14018593195E+02  0.50364464380E+02  0.14222125712E+03  0.79649515399E+02 0.  0.
         -6    2    1    2    0  502  0.66587004174E+02  0.12262981643E+01  0.23807554226E+03  0.30117875434E+03  0.17202716446E+03 0.  0.
        -24    2    5    5    0    0 -0.24349665480E+02 -0.77998433013E+00  0.65739398231E+02  0.10625482149E+03  0.79842996101E+02 0.  0.
          5    1    3    3  501    0  0.39005327203E+02  0.12792295031E+02  0.71066826790E+02  0.82204879614E+02  0.47000000000E+01 0. -1.
        -13    1    4    4    0    0 -0.64897876835E+02  0.13692493557E+02  0.62908312945E+02  0.91414849095E+02  0.00000000000E+00 0.  1.
         14    1    4    4    0    0 -0.40694454542E+02 -0.27711086752E+02 -0.12543848565E+02  0.50806408023E+02  0.00000000000E+00 0. -1.
         -5    1    5    5    0  502  0.90936669653E+02  0.20062824945E+01  0.17233614403E+03  0.19492393285E+03  0.47000000000E+01 0.  1.
         13    1    6    6    0    0 -0.37791342387E+02 -0.24432347620E+02  0.64977377145E+02  0.79039134043E+02  0.00000000000E+00 0. -1.
        -14    1    6    6    0    0  0.13441676907E+02  0.23652363290E+02  0.76202108577E+00  0.27215687451E+02  0.00000000000E+00 0.  1.
</event>
<event>
12    1  0.8052519E-002  0.2343355E+03  0.7818608E-02  0.1123697E+00
         21   -1    0    0  501  502  0.00000000000E+00  0.00000000000E+00  0.47701003093E+02  0.47701003093E+02  0.00000000000E+00 0.  1.
         21   -1    0    0  502  503 -0.00000000000E+00 -0.00000000000E+00 -0.12007083218E+04  0.12007083218E+04  0.00000000000E+00 0.  1.
         -6    2    1    2    0  503  0.14795279863E+03  0.57727553915E+02 -0.44665831419E+03  0.50420367211E+03  0.17174164383E+03 0.  0.
        -24    2    3    3    0    0  0.86234052049E+02 -0.10542702184E+02 -0.13627232772E+03  0.18042661587E+03  0.80225657428E+02 0.  0.
          6    2    1    2  501    0 -0.14795279863E+03 -0.57727553915E+02 -0.70634900456E+03  0.74420565283E+03  0.17230971058E+03 0.  0.
         24    2    5    5    0    0 -0.12849770274E+03 -0.48443960130E+02 -0.34098167552E+03  0.37817278409E+03  0.88812581899E+02 0.  0.
          5    1    5    5  501    0 -0.19455095896E+02 -0.92835937854E+01 -0.36536732904E+03  0.36603286874E+03  0.47000000000E+01 0. -1.
        -13    1    6    6    0    0 -0.65945582312E+02 -0.27801197778E+02 -0.27790557154E+03  0.28697253025E+03  0.00000000000E+00 0.  1.
         14    1    6    6    0    0 -0.62552120424E+02 -0.20642762352E+02 -0.63076103977E+02  0.91200253838E+02  0.00000000000E+00 0. -1.
         -5    1    3    3    0  503  0.61718746583E+02  0.68270256100E+02 -0.31038598647E+03  0.32377705624E+03  0.47000000000E+01 0.  1.
         13    1    4    4    0    0 -0.10916899099E+02  0.14257659080E+02 -0.22148931099E+02  0.28513762943E+02  0.00000000000E+00 0. -1.
        -14    1    4    4    0    0  0.97150951148E+02 -0.24800361264E+02 -0.11412339662E+03  0.15191285292E+03  0.00000000000E+00 0.  1.
</event>
<event>
12    1  0.8052519E-002  0.1781545E+03  0.7818608E-02  0.1169889E+00
         21   -1    0    0  501  502  0.00000000000E+00  0.00000000000E+00  0.77515894740E+03  0.77515894740E+03  0.00000000000E+00 0.  1.
         21   -1    0    0  502  503 -0.00000000000E+00 -0.00000000000E+00 -0.26648154862E+03  0.26648154862E+03  0.00000000000E+00 0.  1.
         -6    2    1    2    0  503  0.53525127421E+00 -0.46689282082E+02 -0.22521381709E+03  0.28643499722E+03  0.17071487536E+03 0.  0.
        -24    2    3    3    0    0 -0.22186612443E+01 -0.70753929203E+02 -0.63371898040E+02  0.12272309161E+03  0.77678303270E+02 0.  0.
          6    2    1    2  501    0 -0.53525127421E+00  0.46689282082E+02  0.73389121587E+03  0.75520549881E+03  0.17192688312E+03 0.  0.
         24    2    5    5    0    0 -0.57072176889E+02  0.29952431231E+01  0.55641871233E+03  0.56383106867E+03  0.70975247126E+02 0.  0.
          5    1    5    5  501    0  0.56536925615E+02  0.43694038959E+02  0.17747250354E+03  0.19137443014E+03  0.47000000000E+01 0. -1.
        -11    1    6    6    0    0  0.15582885255E+02  0.82596762633E+01  0.13742746681E+03  0.13855452789E+03  0.00000000000E+00 0.  1.
         12    1    6    6    0    0 -0.72655062144E+02 -0.52644331402E+01  0.41899124552E+03  0.42527654078E+03  0.00000000000E+00 0. -1.
         -5    1    3    3    0  503  0.27539125185E+01  0.24064647121E+02 -0.16184191905E+03  0.16371190560E+03  0.47000000000E+01 0.  1.
         11    1    4    4    0    0 -0.15300136152E+02 -0.57878803453E+02 -0.78649423791E+02  0.98842207169E+02  0.00000000000E+00 0. -1.
        -12    1    4    4    0    0  0.13081474908E+02 -0.12875125750E+02  0.15277525751E+02  0.23880884446E+02  0.00000000000E+00 0.  1.
</event>
<event>
12    1  0.8052519E-002  0.2382441E+03  0.7818608E-02  0.1121711E+00
         21   -1    0    0  503  502  0.00000000000E+00  0.00000000000E+00  0.10788388103E+04  0.10788388103E+04  0.00000000000E+00 0.  1.
         21   -1    0    0  501  503 -0.00000000000E+00 -0.00000000000E+00 -0.63298309836E+02  0.63298309836E+02  0.00000000000E+00 0. -1.
          6    2    1    2  501    0  0.11580811497E+03 -0.11766955725E+03  0.26665059231E+03  0.35757906832E+03  0.17176323100E+03 0.  0.
         24    2    3    3    0    0  0.22217734023E+02 -0.27881088354E+00  0.62269112341E+02  0.10393832614E+03  0.80199924240E+02 0.  0.
         -6    2    1    2    0  502 -0.11580811497E+03  0.11766955725E+03  0.74888990815E+03  0.78455805182E+03  0.16564298336E+03 0.  0.
        -24    2    5    5    0    0 -0.51252572592E+02  0.77803801551E+02  0.64057051043E+03  0.65222559754E+03  0.79921170711E+02 0.  0.
          5    1    3    3  501    0  0.93590380951E+02 -0.11739074637E+03  0.20438147997E+03  0.25364074218E+03  0.47000000000E+01 0. -1.
        -13    1    4    4    0    0  0.45155526555E+02  0.12221597481E+02  0.62183920250E+02  0.77815351706E+02  0.00000000000E+00 0.  1.
         14    1    4    4    0    0 -0.22937792532E+02 -0.12500408365E+02  0.85192090853E-01  0.26122974433E+02  0.00000000000E+00 0. -1.
         -5    1    5    5    0  502 -0.64555542381E+02  0.39865755703E+02  0.10831939773E+03  0.13233245427E+03  0.47000000000E+01 0.  1.
         13    1    6    6    0    0 -0.19015860518E+02 -0.13228085526E+02  0.75881122956E+02  0.79338074208E+02  0.00000000000E+00 0. -1.
        -14    1    6    6    0    0 -0.32236712074E+02  0.91031887078E+02  0.56468938747E+03  0.57288752333E+03  0.00000000000E+00 0.  1.
</event>
<event>
12    1  0.8052519E-002  0.2024409E+03  0.7818608E-02  0.1147985E+00
         21   -1    0    0  501  502  0.00000000000E+00  0.00000000000E+00  0.30062788555E+03  0.30062788555E+03  0.00000000000E+00 0. -1.
         21   -1    0    0  502  503 -0.00000000000E+00 -0.00000000000E+00 -0.13614255408E+03  0.13614255408E+03  0.00000000000E+00 0. -1.
         -6    2    1    2    0  503  0.81138851954E+02  0.68546166801E+02  0.65731269059E+02  0.21152686742E+03  0.17070713409E+03 0.  0.
        -24    2    3    3    0    0 -0.26480225042E+02  0.30463666736E+02  0.42222179819E+02  0.94878207672E+02  0.74765797750E+02 0.  0.
          6    2    1    2  501    0 -0.81138851954E+02 -0.68546166801E+02  0.98754062414E+02  0.22524357221E+03  0.17233749360E+03 0.  0.
         24    2    5    5    0    0 -0.19163825698E+02 -0.75115620270E+02  0.12197971001E+01  0.10940279999E+03  0.77187279506E+02 0.  0.
          5    1    5    5  501    0 -0.61975026256E+02  0.65694534692E+01  0.97534265314E+02  0.11584077222E+03  0.47000000000E+01 0. -1.
        -13    1    6    6    0    0 -0.95218983613E+01 -0.37850179249E+02  0.39207373329E+02  0.55321973400E+02  0.00000000000E+00 0.  1.
         14    1    6    6    0    0 -0.96419273367E+01 -0.37265441021E+02 -0.37987576229E+02  0.54080826593E+02  0.00000000000E+00 0. -1.
         -5    1    3    3    0  503  0.10761907700E+03  0.38082500065E+02  0.23509089240E+02  0.11664865975E+03  0.47000000000E+01 0.  1.
         11    1    4    4    0    0 -0.43620560248E+01  0.36156277955E+02  0.57024680622E+02  0.67661792530E+02  0.00000000000E+00 0. -1.
        -12    1    4    4    0    0 -0.22118169017E+02 -0.56926112189E+01 -0.14802500803E+02  0.27216415142E+02  0.00000000000E+00 0.  1.
</event>
<event>
12    1  0.8052519E-002  0.1913907E+03  0.7818608E-02  0.1157283E+00
         21   -1    0    0  503  502  0.00000000000E+00  0.00000000000E+00  0.21711378781E+03  0.21711378781E+03  0.00000000000E+00 0. -1.
         21   -1    0    0  501  503 -0.00000000000E+00 -0.00000000000E+00 -0.17530716731E+03  0.17530716731E+03  0.00000000000E+00 0. -1.
          6    2    1    2  501    0  0.74560916694E+02 -0.36075349480E+02  0.59751637115E+02  0.20050105574E+03  0.17253884802E+03 0.  0.
         24    2    3    3    0    0  0.11229856487E+03 -0.51647186997E+02  0.60485865457E+02  0.15940067491E+03  0.80446476888E+02 0.  0.
         -6    2    1    2    0  502 -0.74560916694E+02  0.36075349480E+02 -0.17945016611E+02  0.19191989937E+03  0.17219309805E+03 0.  0.
        -24    2    5    5    0    0 -0.81327620855E+02 -0.32035635928E+02 -0.31395983652E+02  0.12200628744E+03  0.79116133015E+02 0.  0.
          5    1    3    3  501    0 -0.37737648177E+02  0.15571837517E+02 -0.73422834230E+00  0.41100380836E+02  0.47000000000E+01 0. -1.
        -13    1    4    4    0    0  0.76620824205E+02 -0.62138971669E+02  0.70062476225E+02  0.12099897965E+03  0.00000000000E+00 0.  1.
         14    1    4    4    0    0  0.35677740667E+02  0.10491784672E+02 -0.95766107677E+01  0.38401695255E+02  0.00000000000E+00 0. -1.
         -5    1    5    5    0  502  0.67667041606E+01  0.68110985409E+02  0.13450967041E+02  0.69913611928E+02  0.47000000000E+01 0.  1.
         11    1    6    6    0    0 -0.14992983644E+02 -0.42974944681E+02  0.45977456346E+01  0.45746854469E+02  0.00000000000E+00 0. -1.
        -12    1    6    6    0    0 -0.66334637211E+02  0.10939308752E+02 -0.35993729286E+02  0.76259432976E+02  0.00000000000E+00 0.  1.
</event>
<event>
12    1  0.8052519E-002  0.1809980E+03  0.7818608E-02  0.1166883E+00
         21   -1    0    0  501  502  0.00000000000E+00  0.00000000000E+00  0.34708708828E+03  0.34708708828E+03  0.00000000000E+00 0.  1.
         21   -1    0    0  502  503 -0.00000000000E+00 -0.00000000000E+00 -0.10446778335E+03  0.10446778335E+03  0.00000000000E+00 0.  1.
         -6    2    1    2    0  503  0.37864223729E+02 -0.41274841803E+02  0.50795928029E+02  0.18781925537E+03  0.17192595609E+03 0.  0.
        -24    2    3    3    0    0  0.39350072700E+02 -0.11192147093E+02  0.97603426461E+02  0.13196043173E+03  0.78825340524E+02 0.  0.
          6    2    1    2  501    0 -0.37864223729E+02  0.41274841803E+02  0.19182337690E+03  0.26373561626E+03  0.17211320505E+03 0.  0.
         24    2    5    5    0    0 -0.21784273105E+02  0.85906205901E+02  0.79867906212E+02  0.14205307482E+03  0.77108772891E+02 0.  0.
          5    1    5    5  501    0 -0.16079950624E+02 -0.44631364098E+02  0.11195547069E+03  0.12168254143E+03  0.47000000000E+01 0. -1.
        -13    1    6    6    0    0  0.15492363676E+02 -0.71879061078E+01  0.13903283192E+02  0.22022275314E+02  0.00000000000E+00 0.  1.
         14    1    6    6    0    0 -0.37276636781E+02  0.93094112009E+02  0.65964623020E+02  0.12003079951E+03  0.00000000000E+00 0. -1.
         -5    1    3    3    0  503 -0.14858489706E+01 -0.30082694709E+02 -0.46807498431E+02  0.55858823632E+02  0.47000000000E+01 0.  1.
         13    1    4    4    0    0  0.11318066627E+02  0.33757115406E+02  0.34610827046E+02  0.49654313221E+02  0.00000000000E+00 0. -1.
        -14    1    4    4    0    0  0.28032006073E+02 -0.44949262499E+02  0.62992599415E+02  0.82306118514E+02  0.00000000000E+00 0.  1.
</event>
<event>
12    1  0.8052519E-002  0.1733358E+03  0.7818608E-02  0.1174427E+00
         21   -1    0    0  503  502  0.00000000000E+00  0.00000000000E+00  0.26683309894E+03  0.26683309894E+03  0.00000000000E+00 0. -1.
         21   -1    0    0  501  503 -0.00000000000E+00 -0.00000000000E+00 -0.20285313481E+03  0.20285313481E+03  0.00000000000E+00 0. -1.
          6    2    1    2  501    0  0.20271262020E+02  0.58629204531E+01 -0.12468307683E+03  0.21352086362E+03  0.17204648108E+03 0.  0.
         24    2    3    3    0    0  0.75402107260E+02  0.18249602124E+02 -0.10741121347E+03  0.15424821188E+03  0.78973516655E+02 0.  0.
         -6    2    1    2    0  502 -0.20271262020E+02 -0.58629204531E+01  0.18866304095E+03  0.25616537013E+03  0.17199318572E+03 0.  0.
        -24    2    5    5    0    0  0.44698545040E+02  0.18910642231E+02  0.15069345648E+03  0.17680174759E+03  0.78706847281E+02 0.  0.
          5    1    3    3  501    0 -0.55130845240E+02 -0.12386681671E+02 -0.17271863353E+02  0.59272651732E+02  0.47000000000E+01 0. -1.
        -11    1    4    4    0    0  0.72856751544E+02 -0.65050955497E+01 -0.42192410658E+02  0.84443010550E+02  0.00000000000E+00 0.  1.
         12    1    4    4    0    0  0.25453557159E+01  0.24754697673E+02 -0.65218802815E+02  0.69805201334E+02  0.00000000000E+00 0. -1.
         -5    1    5    5    0  502 -0.64969807060E+02 -0.24773562684E+02  0.37969584472E+02  0.79363622538E+02  0.47000000000E+01 0.  1.
         13    1    6    6    0    0 -0.67912617030E+01  0.36340000181E+02  0.74937202470E+02  0.83560164927E+02  0.00000000000E+00 0. -1.
        -14    1    6    6    0    0  0.51489806743E+02 -0.17429357949E+02  0.75756254009E+02  0.93241582668E+02  0.00000000000E+00 0.  1.
</event>
<event>
12    1  0.8052519E-002  0.2212415E+03  0.7818608E-02  0.1132977E+00
         21   -1    0    0  503  502  0.00000000000E+00  0.00000000000E+00  0.80456930047E+02  0.80456930047E+02  0.00000000000E+00 0. -1.
         21   -1    0    0  501  503 -0.00000000000E+00 -0.00000000000E+00 -0.11278413091E+04  0.11278413091E+04  0.00000000000E+00 0. -1.
          6    2    1    2  501    0 -0.91646976145E+02  0.10383267525E+03 -0.93374548146E+03  0.95957835847E+03  0.17242276302E+03 0.  0.
         24    2    3    3    0    0 -0.11293784981E+03  0.58872515414E+02 -0.47558759830E+03  0.49870369744E+03  0.79378102737E+02 0.  0.
         -6    2    1    2    0  502  0.91646976145E+02 -0.10383267525E+03 -0.11363889758E+03  0.24871988066E+03  0.17253227904E+03 0.  0.
        -24    2    5    5    0    0  0.49112325830E+02 -0.10905447774E+03 -0.13856539993E+03  0.19892144476E+03  0.77874716462E+02 0.  0.
          5    1    3    3  501    0  0.21290873666E+02  0.44960159833E+02 -0.45815788316E+03  0.46087466103E+03  0.47000000000E+01 0. -1.
        -11    1    4    4    0    0 -0.96571726521E+01  0.28656556216E+02 -0.40725719176E+02  0.50725175211E+02  0.00000000000E+00 0.  1.
         12    1    4    4    0    0 -0.10328067716E+03  0.30215959198E+02 -0.43486187912E+03  0.44797852223E+03  0.00000000000E+00 0. -1.
         -5    1    5    5    0  502  0.42534650314E+02  0.52218024941E+01  0.24926502355E+02  0.49798435902E+02  0.47000000000E+01 0.  1.
         11    1    6    6    0    0  0.61921167067E+02 -0.10910273450E+03 -0.10709932971E+03  0.16494818590E+03  0.00000000000E+00 0. -1.
        -12    1    6    6    0    0 -0.12808841237E+02  0.48256761334E-01 -0.31466070224E+02  0.33973258865E+02  0.00000000000E+00 0.  1.
</event>
<event>
12    1  0.8052519E-002  0.1756136E+03  0.7818608E-02  0.1172475E+00
         21   -1    0    0  501  502  0.00000000000E+00  0.00000000000E+00  0.23324553905E+04  0.23324553905E+04  0.00000000000E+00 0. -1.
         21   -1    0    0  502  503 -0.00000000000E+00 -0.00000000000E+00 -0.17147915046E+02  0.17147915046E+02  0.00000000000E+00 0.  1.
         -6    2    1    2    0  503 -0.17821008995E+02 -0.28718992552E+02  0.59153485775E+03  0.61705236235E+03  0.17233038343E+03 0.  0.
        -24    2    3    3    0    0  0.32142995744E+02 -0.59893773682E+02  0.26305223805E+03  0.28329917481E+03  0.80258994537E+02 0.  0.
          6    2    1    2  501    0  0.17821008995E+02  0.28718992552E+02  0.17237726177E+04  0.17325509432E+04  0.17087528881E+03 0.  0.
         24    2    5    5    0    0  0.77485232651E+02  0.15374621910E+02  0.12191898736E+04  0.12242560214E+04  0.78348694438E+02 0.  0.
          5    1    5    5  501    0 -0.59664223656E+02  0.13344370641E+02  0.50458274411E+03  0.50829492174E+03  0.47000000000E+01 0. -1.
        -11    1    6    6    0    0  0.24113804691E+02  0.39556374609E+02  0.74864352874E+03  0.75007553984E+03  0.00000000000E+00 0.  1.
         12    1    6    6    0    0  0.53371427960E+02 -0.24181752699E+02  0.47054634485E+03  0.47418048160E+03  0.00000000000E+00 0. -1.
         -5    1    3    3    0  503 -0.49964004739E+02  0.31174781131E+02  0.32848261970E+03  0.33375318754E+03  0.47000000000E+01 0.  1.
         13    1    4    4    0    0  0.30149626541E+02  0.10326749436E+02  0.11649589404E+03  0.12077638454E+03  0.00000000000E+00 0. -1.
        -14    1    4    4    0    0  0.19933692035E+01 -0.70220523118E+02  0.14655634401E+03  0.16252279027E+03  0.00000000000E+00 0.  1.
</event>
<event>
12    1  0.8052519E-002  0.1964397E+03  0.7818608E-02  0.1153204E+00
         21   -1    0    0  503  502  0.00000000000E+00  0.00000000000E+00  0.32446985650E+03  0.32446985650E+03  0.00000000000E+00 0.  1.
         21   -1    0    0  501  503 -0.00000000000E+00 -0.00000000000E+00 -0.19626455643E+03  0.19626455643E+03  0.00000000000E+00 0.  1.
          6    2    1    2  501    0  0.35426989939E+02  0.83921161793E+02  0.22859617753E+03  0.30012871940E+03  0.17182317310E+03 0.  0.
         24    2    3    3    0    0  0.89602285787E+01  0.10772880843E+03  0.22664579824E+03  0.26416780347E+03  0.82039799279E+02 0.  0.
         -6    2    1    2    0  502 -0.35426989939E+02 -0.83921161793E+02 -0.10039087747E+03  0.22060569353E+03  0.17404226707E+03 0.  0.
        -24    2    5    5    0    0 -0.48836962072E+02 -0.97373187496E+02 -0.18828662166E+02  0.13672918125E+03  0.80459704068E+02 0.  0.
          5    1    3    3  501    0  0.26466761361E+02 -0.23807646639E+02  0.19503792931E+01  0.35960915934E+02  0.47000000000E+01 0. -1.
        -13    1    4    4    0    0  0.44038249018E+02  0.66176875804E+02  0.15529743676E+03  0.17445927929E+03  0.00000000000E+00 0.  1.
         14    1    4    4    0    0 -0.35078020439E+02  0.41551932629E+02  0.71348361480E+02  0.89708524171E+02  0.00000000000E+00 0. -1.
         -5    1    5    5    0  502  0.13409972132E+02  0.13452025702E+02 -0.81562215300E+02  0.83876512283E+02  0.47000000000E+01 0.  1.
         11    1    6    6    0    0 -0.51247217938E+02 -0.69554519133E+02 -0.45905714303E+02  0.97833752273E+02  0.00000000000E+00 0. -1.
        -12    1    6    6    0    0  0.24102558660E+01 -0.27818668363E+02  0.27077052137E+02  0.38895428976E+02  0.00000000000E+00 0.  1.
</event>
<event>
12    1  0.8052519E-002  0.1816388E+03  0.7818608E-02  0.1166314E+00
         21   -1    0    0  503  502  0.00000000000E+00  0.00000000000E+00  0.93395191024E+02  0.93395191024E+02  0.00000000000E+00 0. -1.
         21   -1    0    0  501  503 -0.00000000000E+00 -0.00000000000E+00 -0.36315665712E+03  0.36315665712E+03  0.00000000000E+00 0. -1.
          6    2    1    2  501    0 -0.41820336030E+01  0.55999361137E+02 -0.96001113430E+02  0.20544800403E+03  0.17274041428E+03 0.  0.
         24    2    3    3    0    0 -0.60573214826E+02  0.26666949946E+01 -0.75338646521E+02  0.12499077231E+03  0.79186841619E+02 0.  0.
         -6    2    1    2    0  502  0.41820336030E+01 -0.55999361137E+02 -0.17376035267E+03  0.25110384411E+03  0.17235736862E+03 0.  0.
        -24    2    5    5    0    0 -0.62342897854E+02 -0.16729146398E+02 -0.12288390211E+03  0.15848516623E+03  0.76489170914E+02 0.  0.
          5    1    3    3  501    0  0.56391181223E+02  0.53332666142E+02 -0.20662466908E+02  0.80457231722E+02  0.47000000000E+01 0. -1.
        -11    1    4    4    0    0  0.15074057121E+02  0.16790482132E+02 -0.20606447179E+02  0.30557702035E+02  0.00000000000E+00 0.  1.
         12    1    4    4    0    0 -0.75647271947E+02 -0.14123787137E+02 -0.54732199342E+02  0.94433070272E+02  0.00000000000E+00 0. -1.
         -5    1    5    5    0  502  0.66524931456E+02 -0.39270214739E+02 -0.50876450561E+02  0.92618677882E+02  0.47000000000E+01 0.  1.
         11    1    6    6    0    0 -0.24090046890E+02  0.26526299542E+01 -0.11151879064E+03  0.11412189742E+03  0.00000000000E+00 0. -1.
        -12    1    6    6    0    0 -0.38252850964E+02 -0.19381776352E+02 -0.11365111469E+02  0.44363268817E+02  0.00000000000E+00 0.  1.
</event>
<event>
12    1  0.8052519E-002  0.2653613E+03  0.7818608E-02  0.1103993E+00
         21   -1    0    0  503  502  0.00000000000E+00  0.00000000000E+00  0.11677366866E+03  0.11677366866E+03  0.00000000000E+00 0. -1.
         21   -1    0    0  501  503 -0.00000000000E+00 -0.00000000000E+00 -0.11318294787E+04  0.11318294787E+04  0.00000000000E+00 0.  1.
          6    2    1    2  501    0 -0.20121923355E+03  0.82952232016E+01 -0.93433908340E+03  0.97123727475E+03  0.17249443594E+03 0.  0.
         24    2    3    3    0    0 -0.12870803772E+03 -0.37548407513E+02 -0.38391693653E+03  0.41415008072E+03  0.78437448482E+02 0.  0.
         -6    2    1    2    0  502  0.20121923355E+03 -0.82952232016E+01 -0.80716726633E+02  0.27736587259E+03  0.17279654695E+03 0.  0.
        -24    2    5    5    0    0  0.34539344201E+02  0.22519259089E+02 -0.54189598826E+01  0.91829995973E+02  0.81873681402E+02 0.  0.
          5    1    3    3  501    0 -0.72511195835E+02  0.45843630715E+02 -0.55042214687E+03  0.55708719404E+03  0.47000000000E+01 0. -1.
        -11    1    4    4    0    0 -0.11398819817E+03 -0.13479565155E+02 -0.35759349503E+03  0.37556373052E+03  0.00000000000E+00 0.  1.
         12    1    4    4    0    0 -0.14719839551E+02 -0.24068842358E+02 -0.26323441501E+02  0.38586350194E+02  0.00000000000E+00 0. -1.
         -5    1    5    5    0  502  0.16667988935E+03 -0.30814482291E+02 -0.75297766750E+02  0.18553587661E+03  0.47000000000E+01 0.  1.
         13    1    6    6    0    0  0.37134282912E+02 -0.23478336734E+02  0.60623214165E+01  0.44350186067E+02  0.00000000000E+00 0. -1.
        -14    1    6    6    0    0 -0.25949387110E+01  0.45997595823E+02 -0.11481281299E+02  0.47479809906E+02  0.00000000000E+00 0.  1.
</event>
<event>
12    1  0.8052519E-002  0.1880195E+03  0.7818608E-02  0.1160704E+00
         21   -1    0    0  501  502  0.00000000000E+00  0.00000000000E+00  0.19829580130E+03  0.19829580130E+03  0.00000000000E+00 0.  1.
         21   -1    0    0  502  503 -0.00000000000E+00 -0.00000000000E+00 -0.23251552928E+03  0.23251552928E+03  0.00000000000E+00 0.  1.
         -6    2    1    2    0  503 -0.26349733304E+02 -0.70659545985E+02 -0.12281767126E+03  0.22296295804E+03  0.17012119327E+03 0.  0.
        -24    2    3    3    0    0 -0.52028527858E+02 -0.29564493590E+02 -0.14013884695E+03  0.17128784848E+03  0.78227895409E+02 0.  0.
          6    2    1    2  501    0  0.26349733304E+02  0.70659545985E+02  0.88597943275E+02  0.20784837254E+03  0.17223318649E+03 0.  0.
         24    2    5    5    0    0  0.61413981388E+02  0.99737553380E+02  0.57992864330E+02  0.15276849540E+03  0.79093515600E+02 0.  0.
          5    1    5    5  501    0 -0.35064248084E+02 -0.29078007396E+02  0.30605078945E+02  0.55079877133E+02  0.47000000000E+01 0. -1.
        -13    1    6    6    0    0 -0.13368287054E+02 -0.34624267425E+01  0.71951980002E+01  0.15571460175E+02  0.00000000000E+00 0.  1.
         14    1    6    6    0    0  0.74782268442E+02  0.10319998012E+03  0.50797666329E+02  0.13719703523E+03  0.00000000000E+00 0. -1.
         -5    1    3    3    0  503  0.25678794554E+02 -0.41095052395E+02  0.17321175688E+02  0.51675109562E+02  0.47000000000E+01 0.  1.
         11    1    4    4    0    0 -0.73958352424E+00  0.17654266271E+02 -0.36752783056E+01  0.18047929853E+02  0.00000000000E+00 0. -1.
        -12    1    4    4    0    0 -0.51288944334E+02 -0.47218759861E+02 -0.13646356864E+03  0.15323991862E+03  0.00000000000E+00 0.  1.
</event>
<event>
12    1  0.8052519E-002  0.2337387E+03  0.7818608E-02  0.1126253E+00
         21   -1    0    0  503  502  0.00000000000E+00  0.00000000000E+00  0.83101770904E+02  0.83101770904E+02  0.00000000000E+00 0.  1.
         21   -1    0    0  501  503 -0.00000000000E+00 -0.00000000000E+00 -0.64356925261E+03  0.64356925261E+03  0.00000000000E+00 0.  1.
          6    2    1    2  501    0 -0.13189734118E+03  0.38393973407E+02 -0.35298216427E+03  0.42335588132E+03  0.18911051837E+03 0.  0.
         24    2    3    3    0    0 -0.14123733087E+03  0.55939142480E+01 -0.16530281850E+03  0.23254522618E+03  0.82298146433E+02 0.  0.
         -6    2    1    2    0  502  0.13189734118E+03 -0.38393973407E+02 -0.20748531744E+03  0.30331514219E+03  0.17343273257E+03 0.  0.
        -24    2    5    5    0    0  0.64613677273E+02  0.44318555977E+02 -0.12329161596E+03  0.16737720299E+03  0.81702165331E+02 0.  0.
          5    1    3    3  501    0  0.93399896982E+01  0.32800059159E+02 -0.18767934577E+03  0.19081065514E+03  0.47000000000E+01 0. -1.
        -13    1    4    4    0    0 -0.62642819958E+02  0.34136023093E+02 -0.39663198621E+02  0.81624507899E+02  0.00000000000E+00 0.  1.
         14    1    4    4    0    0 -0.78594510916E+02 -0.28542108845E+02 -0.12563961988E+03  0.15092071828E+03  0.00000000000E+00 0. -1.
         -5    1    5    5    0  502  0.67283663903E+02 -0.82712529384E+02 -0.84193701471E+02  0.13593793920E+03  0.47000000000E+01 0.  1.
         13    1    6    6    0    0  0.44448053624E+02  0.42706120515E+02 -0.24164701314E+02  0.66207061481E+02  0.00000000000E+00 0. -1.
        -14    1    6    6    0    0  0.20165623649E+02  0.16124354628E+01 -0.99126914650E+02  0.10117014151E+03  0.00000000000E+00 0.  1.
</event>
<event>
12    1  0.8052519E-002  0.1720536E+03  0.7818608E-02  0.1175857E+00
         21   -1    0    0  503  502  0.00000000000E+00  0.00000000000E+00  0.63262550733E+03  0.63262550733E+03  0.00000000000E+00 0.  1.
         21   -1    0    0  501  503 -0.00000000000E+00 -0.00000000000E+00 -0.62855463006E+02  0.62855463006E+02  0.00000000000E+00 0.  1.
          6    2    1    2  501    0 -0.23299718022E+01  0.13036318057E+01  0.10800506233E+03  0.20270380096E+03  0.17151270860E+03 0.  0.
         24    2    3    3    0    0  0.56309061535E+02 -0.28808459567E+02  0.44717352574E+02  0.11120135027E+03  0.79783838754E+02 0.  0.
         -6    2    1    2    0  502  0.23299718022E+01 -0.13036318057E+01  0.46176498199E+03  0.49277716937E+03  0.17203288009E+03 0.  0.
        -24    2    5    5    0    0  0.36765896254E+02 -0.29722932787E+02  0.13120168712E+03  0.15917910062E+03  0.76739295724E+02 0.  0.
          5    1    3    3  501    0 -0.58639033337E+02  0.30112091373E+02  0.63287709755E+02  0.91502450697E+02  0.47000000000E+01 0. -1.
        -11    1    4    4    0    0  0.37380233028E+01 -0.42888986867E+02  0.40105321789E+01  0.43237973831E+02  0.00000000000E+00 0.  1.
         12    1    4    4    0    0  0.52571038232E+02  0.14080527299E+02  0.40706820395E+02  0.67963376435E+02  0.00000000000E+00 0. -1.
         -5    1    5    5    0  502 -0.34435924451E+02  0.28419300981E+02  0.33056329487E+03  0.33359806875E+03  0.47000000000E+01 0.  1.
         11    1    6    6    0    0  0.28732722080E+02  0.18110980615E+01  0.12201578193E+03  0.12536626514E+03  0.00000000000E+00 0. -1.
        -12    1    6    6    0    0  0.80331741737E+01 -0.31534030849E+02  0.91859051912E+01  0.33812835478E+02  0.00000000000E+00 0.  1.
</event>
<event>
12    1  0.8052519E-002  0.2703041E+03  0.7818608E-02  0.1101217E+00
         21   -1    0    0  501  502  0.00000000000E+00  0.00000000000E+00  0.22648642211E+03  0.22648642211E+03  0.00000000000E+00 0.  1.
         21   -1    0    0  502  503 -0.00000000000E+00 -0.00000000000E+00 -0.46753862843E+03  0.46753862843E+03  0.00000000000E+00 0. -1.
         -6    2    1    2    0  503  0.20132092488E+03  0.56700845504E+02 -0.31447171969E+03  0.41467670829E+03  0.17122852929E+03 0.  0.
        -24    2    3    3    0    0  0.13319111193E+03  0.77356249484E+01 -0.28644986047E+03  0.32609579143E+03  0.80530928459E+02 0.  0.
          6    2    1    2  501    0 -0.20132092488E+03 -0.56700845504E+02  0.73419513374E+02  0.27934834224E+03  0.16999991380E+03 0.  0.
         24    2    5    5    0    0 -0.20430697061E+03 -0.70969065819E+02  0.29409720910E+02  0.23274951809E+03  0.80805073758E+02 0.  0.
          5    1    5    5  501    0  0.29860457211E+01  0.14268220316E+02  0.44009792464E+02  0.46598824156E+02  0.47000000000E+01 0. -1.
        -11    1    6    6    0    0 -0.64568203679E+01  0.46456854885E+01  0.19101634840E+02  0.20691674086E+02  0.00000000000E+00 0.  1.
         12    1    6    6    0    0 -0.19785015024E+03 -0.75614751308E+02  0.10308086070E+02  0.21205784400E+03  0.00000000000E+00 0. -1.
         -5    1    3    3    0  503  0.68129812958E+02  0.48965220555E+02 -0.28021859217E+02  0.88580916860E+02  0.47000000000E+01 0.  1.
         11    1    4    4    0    0  0.22412554429E+02 -0.16217365235E+02 -0.12997203984E+03  0.13288362078E+03  0.00000000000E+00 0. -1.
        -12    1    4    4    0    0  0.11077855750E+03  0.23952990184E+02 -0.15647782063E+03  0.19321217065E+03  0.00000000000E+00 0.  1.
</event>
<event>
12    1  0.8052519E-002  0.2050286E+03  0.7818608E-02  0.1146037E+00
         21   -1    0    0  503  502  0.00000000000E+00  0.00000000000E+00  0.32129661676E+02  0.32129661676E+02  0.00000000000E+00 0.  1.
         21   -1    0    0  501  503 -0.00000000000E+00 -0.00000000000E+00 -0.13191592047E+04  0.13191592047E+04  0.00000000000E+00 0. -1.
          6    2    1    2  501    0 -0.65621660976E+02  0.83803048467E+02 -0.55322256442E+03  0.58999315479E+03  0.17523573721E+03 0.  0.
         24    2    3    3    0    0 -0.51866493366E+02  0.10645335485E+03 -0.54362871649E+03  0.56142091418E+03  0.75092020854E+02 0.  0.
         -6    2    1    2    0  502  0.65621660976E+02 -0.83803048467E+02 -0.73380697865E+03  0.76129571163E+03  0.17253789529E+03 0.  0.
        -24    2    5    5    0    0  0.68582676828E+02 -0.90711368277E+02 -0.73840263143E+03  0.75131059661E+03  0.79353831541E+02 0.  0.
          5    1    3    3  501    0 -0.13755167610E+02 -0.22650306383E+02 -0.95938479286E+01  0.28572240607E+02  0.47000000000E+01 0. -1.
        -11    1    4    4    0    0 -0.15393976602E+02  0.17689321976E+02 -0.26171039982E+02  0.35139862853E+02  0.00000000000E+00 0.  1.
         12    1    4    4    0    0 -0.36472516764E+02  0.88764032874E+02 -0.51745767651E+03  0.52628105133E+03  0.00000000000E+00 0. -1.
         -5    1    5    5    0  502 -0.29610158518E+01  0.69083198102E+01  0.45956527810E+01  0.99851150197E+01  0.47000000000E+01 0.  1.
         13    1    6    6    0    0  0.75653500124E+02 -0.63478688263E+02 -0.67163694402E+03  0.67885873385E+03  0.00000000000E+00 0. -1.
        -14    1    6    6    0    0 -0.70708232959E+01 -0.27232680014E+02 -0.66765687409E+02  0.72451862765E+02  0.00000000000E+00 0.  1.
</event>
<event>
12    1  0.8052519E-002  0.3337582E+03  0.7818608E-02  0.1070035E+00
         21   -1    0    0  503  502  0.00000000000E+00  0.00000000000E+00  0.72038170918E+02  0.72038170918E+02  0.00000000000E+00 0.  1.
         21   -1    0    0  501  503 -0.00000000000E+00 -0.00000000000E+00 -0.16367140985E+04  0.16367140985E+04  0.00000000000E+00 0. -1.
          6    2    1    2  501    0 -0.27494687430E+03  0.64657652652E+02 -0.56289263640E+03  0.65440254057E+03  0.17781498601E+03 0.  0.
         24    2    3    3    0    0 -0.50343943289E+02  0.40411869052E+01 -0.23467695545E+03  0.25207374995E+03  0.76922416591E+02 0.  0.
         -6    2    1    2    0  502  0.27494687430E+03 -0.64657652652E+02 -0.10017832912E+04  0.10543497288E+04  0.16824741456E+03 0.  0.
        -24    2    5    5    0    0  0.97725787590E+02 -0.62198529348E+02 -0.57973003573E+03  0.59656768322E+03  0.79919332619E+02 0.  0.
          5    1    3    3  501    0 -0.22460293102E+03  0.60616465747E+02 -0.32821568095E+03  0.40232879062E+03  0.47000000000E+01 0. -1.
        -11    1    4    4    0    0 -0.16247387428E+02 -0.35562415447E+02 -0.85720285457E+02  0.94215870900E+02  0.00000000000E+00 0.  1.
         12    1    4    4    0    0 -0.34096555861E+02  0.39603602352E+02 -0.14895667000E+03  0.15785787905E+03  0.00000000000E+00 0. -1.
         -5    1    5    5    0  502  0.17722108671E+03 -0.24591233046E+01 -0.42205325545E+03  0.45778204563E+03  0.47000000000E+01 0.  1.
         13    1    6    6    0    0  0.68759974318E+02 -0.43063483255E+01 -0.20446306454E+03  0.21575825237E+03  0.00000000000E+00 0. -1.
        -14    1    6    6    0    0  0.28965813272E+02 -0.57892181022E+02 -0.37526697119E+03  0.38080943085E+03  0.00000000000E+00 0.  1.
</event>
<event>
12    1  0.8052519E-002  0.1845466E+03  0.7818608E-02  0.1163601E+00
         21   -1    0    0  503  502  0.00000000000E+00  0.00000000000E+00  0.11100147639E+03  0.11100147639E+03  0.00000000000E+00 0. -1.
         21   -1    0    0  501  503 -0.00000000000E+00 -0.00000000000E+00 -0.35827339266E+03  0.35827339266E+03  0.00000000000E+00 0. -1.
          6    2    1    2  501    0  0.23007760850E+02  0.61420309768E+02 -0.21348600256E+03  0.28219445416E+03  0.17249818887E+03 0.  0.
         24    2    3    3    0    0  0.27629063783E+02  0.30601776884E+02 -0.31047377328E+02  0.97053749873E+02  0.82192802674E+02 0.  0.
         -6    2    1    2    0  502 -0.23007760850E+02 -0.61420309768E+02 -0.33785913712E+02  0.18708041488E+03  0.17191795181E+03 0.  0.
        -24    2    5    5    0    0 -0.73699525688E+02 -0.89203051576E+01 -0.73961315066E+01  0.10933457183E+03  0.79925927621E+02 0.  0.
          5    1    3    3  501    0 -0.46213029337E+01  0.30818532883E+02 -0.18243862523E+03  0.18514070429E+03  0.47000000000E+01 0. -1.
        -11    1    4    4    0    0  0.86157261947E+01  0.51859395164E+02  0.29803808095E+01  0.52654632032E+02  0.00000000000E+00 0.  1.
         12    1    4    4    0    0  0.19013337589E+02 -0.21257618280E+02 -0.34027758138E+02  0.44399117841E+02  0.00000000000E+00 0. -1.
         -5    1    5    5    0  502  0.50691764838E+02 -0.52500004610E+02 -0.26389782206E+02  0.77745843049E+02  0.47000000000E+01 0.  1.
         11    1    6    6    0    0 -0.54653054504E+01  0.21495071953E+02  0.19899949145E+02  0.29797913650E+02  0.00000000000E+00 0. -1.
        -12    1    6    6    0    0 -0.68234220238E+02 -0.30415377110E+02 -0.27296080652E+02  0.79536658184E+02  0.00000000000E+00 0.  1.
</event>
<event>
12    1  0.8052519E-002  0.1989628E+03  0.7818608E-02  0.1150786E+00
         21   -1    0    0  503  502  0.00000000000E+00  0.00000000000E+00  0.15308751388E+03  0.15308751388E+03  0.00000000000E+00 0. -1.
         21   -1    0    0  501  503 -0.00000000000E+00 -0.00000000000E+00 -0.27115013921E+03  0.27115013921E+03  0.00000000000E+00 0. -1.
          6    2    1    2  501    0 -0.70695374337E+02  0.69407953052E+02 -0.10641351391E+03  0.22493413695E+03  0.17162817403E+03 0.  0.
         24    2    3    3    0    0  0.16354038227E+02 -0.76202679491E+01 -0.44867051852E+02  0.93324851369E+02  0.79818246606E+02 0.  0.
         -6    2    1    2    0  502  0.70695374337E+02 -0.69407953052E+02 -0.11649111423E+02  0.19930351614E+03  0.17254242913E+03 0.  0.
        -24    2    5    5    0    0  0.97401351299E+00  0.18362645088E+02  0.42455049074E+02  0.74747921183E+02  0.58708475472E+02 0.  0.
          5    1    3    3  501    0 -0.87049412564E+02  0.77028221001E+02 -0.61546462059E+02  0.13160928558E+03  0.47000000000E+01 0. -1.
        -13    1    4    4    0    0 -0.12736452720E+02 -0.37220398369E+02 -0.29084017363E+02  0.48922953188E+02  0.00000000000E+00 0.  1.
         14    1    4    4    0    0  0.29090490948E+02  0.29600130420E+02 -0.15783034489E+02  0.44401898181E+02  0.00000000000E+00 0. -1.
         -5    1    5    5    0  502  0.69721360824E+02 -0.87770598140E+02 -0.54104160497E+02  0.12455559496E+03  0.47000000000E+01 0.  1.
         11    1    6    6    0    0  0.27824392950E+02  0.92162596321E+00  0.28437454903E+02  0.39796169147E+02  0.00000000000E+00 0. -1.
        -12    1    6    6    0    0 -0.26850379437E+02  0.17441019125E+02  0.14017594171E+02  0.34951752035E+02  0.00000000000E+00 0.  1.
</event>
<event>
12    1  0.8052519E-002  0.2423078E+03  0.7818608E-02  0.1118424E+00
         21   -1    0    0  503  502  0.00000000000E+00  0.00000000000E+00  0.18737676394E+03  0.18737676394E+03  0.00000000000E+00 0. -1.
         21   -1    0    0  501  503 -0.00000000000E+00 -0.00000000000E+00 -0.11600747953E+04  0.11600747953E+04  0.00000000000E+00 0.  1.
          6    2    1    2  501    0  0.16634984871E+03 -0.37336579896E+02 -0.10626240866E+04  0.10899004594E+04  0.17218237298E+03 0.  0.
         24    2    3    3    0    0  0.30275507405E+02 -0.41329893494E+02 -0.28194607318E+03  0.29742811061E+03  0.79656301431E+02 0.  0.
         -6    2    1    2    0  502 -0.16634984871E+03  0.37336579896E+02  0.89926055219E+02  0.25755109988E+03  0.17082031869E+03 0.  0.
        -24    2    5    5    0    0 -0.12301157269E+03  0.55345093047E+02  0.13138846053E+03  0.19475194567E+03  0.49703787002E+02 0.  0.
          5    1    3    3  501    0  0.13607434130E+03  0.39933135976E+01 -0.78067801341E+03  0.79247234875E+03  0.47000000000E+01 0. -1.
        -13    1    4    4    0    0  0.52535684675E+01 -0.39103249585E+02 -0.47986742777E+02  0.62124001739E+02  0.00000000000E+00 0.  1.
         14    1    4    4    0    0  0.25021938938E+02 -0.22266439084E+01 -0.23395933040E+03  0.23530410887E+03  0.00000000000E+00 0. -1.
         -5    1    5    5    0  502 -0.43338276019E+02 -0.18008513152E+02 -0.41462405315E+02  0.62799154204E+02  0.47000000000E+01 0.  1.
         11    1    6    6    0    0 -0.93751426305E+02  0.39930861675E+02  0.65805115541E+02  0.12130175959E+03  0.00000000000E+00 0. -1.
        -12    1    6    6    0    0 -0.29260146384E+02  0.15414231373E+02  0.65583344994E+02  0.73450186084E+02  0.00000000000E+00 0.  1.
</event>
<event>
12    1  0.8052519E-002  0.1755185E+03  0.7818608E-02  0.1172915E+00
         21   -1    0    0  501  502  0.00000000000E+00  0.00000000000E+00  0.12294757619E+04  0.12294757619E+04  0.00000000000E+00 0. -1.
         21   -1    0    0  502  503 -0.00000000000E+00 -0.00000000000E+00 -0.46750713699E+02  0.46750713699E+02  0.00000000000E+00 0. -1.
         -6    2    1    2    0  503 -0.33560975889E+01  0.59891859753E+01  0.15023440959E+03  0.22892342600E+03  0.17259323105E+03 0.  0.
        -24    2    3    3    0    0  0.32737835479E+02  0.29947215752E+01  0.10686278171E+02  0.84675341764E+02  0.77298012475E+02 0.  0.
          6    2    1    2  501    0  0.33560975889E+01 -0.59891859753E+01  0.10324906387E+04  0.10473030496E+04  0.17538422151E+03 0.  0.
         24    2    5    5    0    0  0.56066953530E+02  0.39732471007E+02  0.54350492229E+03  0.55334148732E+03  0.77891132384E+02 0.  0.
          5    1    5    5  501    0 -0.52710855941E+02 -0.45721656983E+02  0.48898571636E+03  0.49396156232E+03  0.47000000000E+01 0. -1.
        -11    1    6    6    0    0 -0.19268060758E+02  0.14778534767E+02  0.11244695271E+03  0.11503903872E+03  0.00000000000E+00 0.  1.
         12    1    6    6    0    0  0.75335014288E+02  0.24953936240E+02  0.43105796958E+03  0.43830244860E+03  0.00000000000E+00 0. -1.
         -5    1    3    3    0  503 -0.36093933068E+02  0.29944644001E+01  0.13954813142E+03  0.14424808423E+03  0.47000000000E+01 0.  1.
         13    1    4    4    0    0 -0.10748429582E+02  0.22618429237E+02 -0.16283551074E+02  0.29870991199E+02  0.00000000000E+00 0. -1.
        -14    1    4    4    0    0  0.43486265061E+02 -0.19623707662E+02  0.26969829246E+02  0.54804350565E+02  0.00000000000E+00 0.  1.
</event>
<event>
12    1  0.8052519E-002  0.2076745E+03  0.7818608E-02  0.1144266E+00
         21   -1    0    0  501  502  0.00000000000E+00  0.00000000000E+00  0.13480305525E+04  0.13480305525E+04  0.00000000000E+00 0. -1.
         21   -1    0    0  502  503 -0.00000000000E+00 -0.00000000000E+00 -0.32035125539E+02  0.32035125539E+02  0.00000000000E+00 0. -1.
         -6    2    1    2    0  503 -0.29276295322E+02  0.10740822442E+03  0.75196642529E+03  0.77901875376E+03  0.17036163244E+03 0.  0.
        -24    2    3    3    0    0 -0.31172221147E+02  0.13677188472E+03  0.70721176466E+03  0.72525176827E+03  0.78507270282E+02 0.  0.
          6    2    1    2  501    0  0.29276295322E+02 -0.10740822442E+03  0.56402900170E+03  0.60104692430E+03  0.17531418173E+03 0.  0.
         24    2    5    5    0    0 -0.51121821444E+02 -0.69870826012E+02  0.36490227782E+03  0.38299542667E+03  0.77694604281E+02 0.  0.
          5    1    5    5  501    0  0.80398116766E+02 -0.37537398410E+02  0.19912672388E+03  0.21805149764E+03  0.47000000000E+01 0. -1.
        -13    1    6    6    0    0 -0.42796216993E+02 -0.67830660848E+02  0.17068624635E+03  0.18859032169E+03  0.00000000000E+00 0.  1.
         14    1    6    6    0    0 -0.83256044509E+01 -0.20401651633E+01  0.19421603147E+03  0.19440510498E+03  0.00000000000E+00 0. -1.
         -5    1    3    3    0  503  0.18959258253E+01 -0.29363660294E+02  0.44754660622E+02  0.53766985484E+02  0.47000000000E+01 0.  1.
         13    1    4    4    0    0 -0.20803498010E+02  0.16419763971E+02  0.45935048802E+02  0.53032281553E+02  0.00000000000E+00 0. -1.
        -14    1    4    4    0    0 -0.10368723137E+02  0.12035212074E+03  0.66127671586E+03  0.67221948672E+03  0.00000000000E+00 0.  1.
</event>
<event>
12    1  0.8052519E-002  0.1835897E+03  0.7818608E-02  0.1164886E+00
         21   -1    0    0  501  502  0.00000000000E+00  0.00000000000E+00  0.11248886926E+03  0.11248886926E+03  0.00000000000E+00 0. -1.
         21   -1    0    0  502  503 -0.00000000000E+00 -0.00000000000E+00 -0.33934415544E+03  0.33934415544E+03  0.00000000000E+00 0. -1.
         -6    2    1    2    0  503 -0.31593090887E+02 -0.54205540921E+02 -0.32210051820E+02  0.18426629921E+03  0.17023577041E+03 0.  0.
        -24    2    3    3    0    0  0.43154405124E+02 -0.54298318574E+02 -0.25235772839E+02  0.10904710395E+03  0.80273386426E+02 0.  0.
          6    2    1    2  501    0  0.31593090887E+02  0.54205540921E+02 -0.19464523437E+03  0.26756672549E+03  0.17253643461E+03 0.  0.
         24    2    5    5    0    0 -0.17812089331E+02  0.82899485594E+02 -0.89585128945E+02  0.14788410334E+03  0.81575838667E+02 0.  0.
          5    1    5    5  501    0  0.49405180218E+02 -0.28693944673E+02 -0.10506010542E+03  0.11968262215E+03  0.47000000000E+01 0. -1.
        -13    1    6    6    0    0  0.21633341030E+02 -0.41613833650E+01 -0.18512178202E+02  0.28775324453E+02  0.00000000000E+00 0.  1.
         14    1    6    6    0    0 -0.39445430361E+02  0.87060868959E+02 -0.71072950744E+02  0.11910877889E+03  0.00000000000E+00 0. -1.
         -5    1    3    3    0  503 -0.74747496011E+02  0.92777653393E-01 -0.69742789808E+01  0.75219195256E+02  0.47000000000E+01 0.  1.
         13    1    4    4    0    0  0.56204628287E+02 -0.35682141656E+02  0.97891942231E+01  0.67290443583E+02  0.00000000000E+00 0. -1.
        -14    1    4    4    0    0 -0.13050223162E+02 -0.18616176919E+02 -0.35024967062E+02  0.41756660371E+02  0.00000000000E+00 0.  1.
</event>
<event>
12    1  0.8052519E-002  0.2155011E+03  0.7818608E-02  0.1138943E+00
         21   -1    0    0  503  502  0.00000000000E+00  0.00000000000E+00  0.10816482717E+03  0.10816482717E+03  0.00000000000E+00 0.  1.
         21   -1    0    0  501  503 -0.00000000000E+00 -0.00000000000E+00 -0.56630595742E+03  0.56630595742E+03  0.00000000000E+00 0.  1.
          6    2    1    2  501    0  0.11810018017E+03  0.13190271577E+01 -0.40809213982E+03  0.46149745128E+03  0.18025346203E+03 0.  0.
         24    2    3    3    0    0  0.11521960656E+03 -0.51130841668E+02 -0.21680485699E+03  0.26307315586E+03  0.79455765133E+02 0.  0.
         -6    2    1    2    0  502 -0.11810018017E+03 -0.13190271577E+01 -0.50048990431E+02  0.21297333330E+03  0.17000984343E+03 0.  0.
        -24    2    5    5    0    0 -0.82997247904E+02 -0.50025808915E+02  0.11095105060E+02  0.12715225864E+03  0.81568810234E+02 0.  0.
          5    1    3    3  501    0  0.28805736052E+01  0.52449868825E+02 -0.19128728282E+03  0.19842429542E+03  0.47000000000E+01 0. -1.
        -11    1    4    4    0    0  0.12088640168E+03 -0.32610240068E+02 -0.20552288748E+03  0.24065869431E+03  0.00000000000E+00 0.  1.
         12    1    4    4    0    0 -0.56667951183E+01 -0.18520601600E+02 -0.11281969512E+02  0.22414461551E+02  0.00000000000E+00 0. -1.
         -5    1    5    5    0  502 -0.35102932265E+02  0.48706781757E+02 -0.61144095491E+02  0.85821074662E+02  0.47000000000E+01 0.  1.
         11    1    6    6    0    0 -0.17113557823E+02  0.22283736401E+02 -0.32453588995E+01  0.28283760777E+02  0.00000000000E+00 0. -1.
        -12    1    6    6    0    0 -0.65883690081E+02 -0.72309545315E+02  0.14340463960E+02  0.98868497860E+02  0.00000000000E+00 0.  1.
</event>
<event>
12    1  0.8052519E-002  0.1741389E+03  0.7818608E-02  0.1173790E+00
         21   -1    0    0  501  502  0.00000000000E+00  0.00000000000E+00  0.37089551684E+02  0.37089551684E+02  0.00000000000E+00 0.  1.
         21   -1    0    0  502  503 -0.00000000000E+00 -0.00000000000E+00 -0.81702819157E+03  0.81702819157E+03  0.00000000000E+00 0.  1.
         -6    2    1    2    0  503  0.15947471734E+02 -0.84617218396E+01 -0.36339955722E+03  0.40264330773E+03  0.17244266432E+03 0.  0.
        -24    2    3    3    0    0  0.20796128275E+01  0.59598812589E+02 -0.17174945631E+03  0.19874037729E+03  0.80271530285E+02 0.  0.
          6    2    1    2  501    0 -0.15947471734E+02  0.84617218396E+01 -0.41653908266E+03  0.45147443552E+03  0.17320056569E+03 0.  0.
         24    2    5    5    0    0 -0.67944423893E+02  0.38806487210E+02 -0.31978818287E+03  0.33742482163E+03  0.73950254638E+02 0.  0.
          5    1    5    5  501    0  0.51996952159E+02 -0.30344765370E+02 -0.96750899793E+02  0.11404961390E+03  0.47000000000E+01 0. -1.
        -11    1    6    6    0    0 -0.56391642414E+02 -0.95145842448E+01 -0.15060781897E+03  0.16110015451E+03  0.00000000000E+00 0.  1.
         12    1    6    6    0    0 -0.11552781479E+02  0.48321071454E+02 -0.16918036390E+03  0.17632466712E+03  0.00000000000E+00 0. -1.
         -5    1    3    3    0  503  0.13867858907E+02 -0.68060534429E+02 -0.19165010092E+03  0.20390293043E+03  0.47000000000E+01 0.  1.
         11    1    4    4    0    0 -0.38595340647E+02  0.27974854569E+02 -0.95201765809E+02  0.10646862928E+03  0.00000000000E+00 0. -1.
        -12    1    4    4    0    0  0.40674953475E+02  0.31623958020E+02 -0.76547690497E+02  0.92271748014E+02  0.00000000000E+00 0.  1.
</event>
<event>
12    1  0.8052519E-002  0.1769998E+03  0.7818608E-02  0.1170760E+00
         21   -1    0    0  503  502  0.00000000000E+00  0.00000000000E+00  0.45000052687E+03  0.45000052687E+03  0.00000000000E+00 0.  1.
         21   -1    0    0  501  503 -0.00000000000E+00 -0.00000000000E+00 -0.15013470062E+03  0.15013470062E+03  0.00000000000E+00 0. -1.
          6    2    1    2  501    0  0.21579136352E+02  0.35585100442E+02 -0.69840440138E+02  0.19028038428E+03  0.17203772570E+03 0.  0.
         24    2    3    3    0    0  0.36409025421E+02 -0.25047727410E+02 -0.86358606093E+02  0.12554086598E+03  0.79684969746E+02 0.  0.
         -6    2    1    2    0  502 -0.21579136352E+02 -0.35585100442E+02  0.36970626638E+03  0.40985484321E+03  0.17194856963E+03 0.  0.
        -24    2    5    5    0    0 -0.39990597949E+02 -0.62791933679E+02  0.13202158201E+03  0.16986464991E+03  0.76695673369E+02 0.  0.
          5    1    3    3  501    0 -0.14829889069E+02  0.60632827853E+02  0.16518165955E+02  0.64739518300E+02  0.47000000000E+01 0. -1.
        -11    1    4    4    0    0  0.17710213280E+02  0.80903119671E+01  0.10038471644E+02  0.21906065715E+02  0.00000000000E+00 0.  1.
         12    1    4    4    0    0  0.18698812141E+02 -0.33138039377E+02 -0.96397077737E+02  0.10363480026E+03  0.00000000000E+00 0. -1.
         -5    1    5    5    0  502  0.18411461597E+02  0.27206833236E+02  0.23768468438E+03  0.23999019330E+03  0.47000000000E+01 0.  1.
         13    1    6    6    0    0 -0.56225285966E+02 -0.21013686623E+02  0.58877822388E+02  0.84080055760E+02  0.00000000000E+00 0. -1.
        -14    1    6    6    0    0  0.16234688017E+02 -0.41778247056E+02  0.73143759619E+02  0.85784594149E+02  0.00000000000E+00 0.  1.
</event>
<event>
12    1  0.8052519E-002  0.1809878E+03  0.7818608E-02  0.1168227E+00
         21   -1    0    0  503  502  0.00000000000E+00  0.00000000000E+00  0.74043119815E+02  0.74043119815E+02  0.00000000000E+00 0.  1.
         21   -1    0    0  501  503 -0.00000000000E+00 -0.00000000000E+00 -0.62131300958E+03  0.62131300958E+03  0.00000000000E+00 0.  1.
          6    2    1    2  501    0 -0.40515118414E+02  0.15598238601E+02 -0.46419700390E+03  0.49621370774E+03  0.16989527790E+03 0.  0.
         24    2    3    3    0    0 -0.55432485212E+02  0.36630398044E+02 -0.45726540457E+03  0.46910251757E+03  0.80938095494E+02 0.  0.
         -6    2    1    2    0  502  0.40515118414E+02 -0.15598238601E+02 -0.83072885867E+02  0.19914242166E+03  0.17570378445E+03 0.  0.
        -24    2    5    5    0    0  0.89345710133E+02 -0.16669191018E+02 -0.26825019459E+02  0.12450003355E+03  0.80747500498E+02 0.  0.
          5    1    3    3  501    0  0.14917366798E+02 -0.21032159443E+02 -0.69315993339E+01  0.27111190168E+02  0.47000000000E+01 0. -1.
        -11    1    4    4    0    0  0.15779950509E+02  0.22305077267E+02 -0.19717716190E+03  0.19906118779E+03  0.00000000000E+00 0.  1.
         12    1    4    4    0    0 -0.71212435722E+02  0.14325320777E+02 -0.26008824267E+03  0.27004132978E+03  0.00000000000E+00 0. -1.
         -5    1    5    5    0  502 -0.48830591719E+02  0.10709524169E+01 -0.56247866408E+02  0.74642388106E+02  0.47000000000E+01 0.  1.
         11    1    6    6    0    0  0.30035170385E+02  0.17689734460E+02 -0.41710763531E+02  0.54358310861E+02  0.00000000000E+00 0. -1.
        -12    1    6    6    0    0  0.59310539748E+02 -0.34358925478E+02  0.14885744072E+02  0.70141722689E+02  0.00000000000E+00 0.  1.
</event>
<event>
12    1  0.8052519E-002  0.2389182E+03  0.7818608E-02  0.1120592E+00
         21   -1    0    0  503  502  0.00000000000E+00  0.00000000000E+00  0.13301531086E+03  0.13301531086E+03  0.00000000000E+00 0.  1.
         21   -1    0    0  501  503 -0.00000000000E+00 -0.00000000000E+00 -0.47795507821E+03  0.47795507821E+03  0.00000000000E+00 0.  1.
          6    2    1    2  501    0 -0.11084533006E+03 -0.12182800142E+03 -0.74174132103E+02  0.25016733547E+03  0.17306976840E+03 0.  0.
         24    2    3    3    0    0 -0.14580417483E+03 -0.11068558321E+03 -0.75642908765E+02  0.21314677880E+03  0.78737182687E+02 0.  0.
         -6    2    1    2    0  502  0.11084533006E+03  0.12182800142E+03 -0.27076563525E+03  0.36080305360E+03  0.17244148320E+03 0.  0.
        -24    2    5    5    0    0  0.95723119305E+02  0.10775905935E+03 -0.11749232644E+03  0.20607292214E+03  0.88806936802E+02 0.  0.
          5    1    3    3  501    0  0.34958844768E+02 -0.11142418210E+02  0.14687766625E+01  0.37020556667E+02  0.47000000000E+01 0. -1.
        -11    1    4    4    0    0 -0.41893206327E+02 -0.63166081951E+02 -0.62291619391E+02  0.98108310004E+02  0.00000000000E+00 0.  1.
         12    1    4    4    0    0 -0.10391096850E+03 -0.47519501263E+02 -0.13351289374E+02  0.11503846879E+03  0.00000000000E+00 0. -1.
         -5    1    5    5    0  502  0.15122210753E+02  0.14068942073E+02 -0.15327330881E+03  0.15473013147E+03  0.47000000000E+01 0.  1.
         11    1    6    6    0    0  0.46711902232E+02 -0.41061651588E+01 -0.37935396186E+02  0.60315476340E+02  0.00000000000E+00 0. -1.
        -12    1    6    6    0    0  0.49011217074E+02  0.11186522451E+03 -0.79556930255E+02  0.14575744580E+03  0.00000000000E+00 0.  1.
</event>
<event>
12    1  0.8052519E-002  0.2066154E+03  0.7818608E-02  0.1144349E+00
         21   -1    0    0  503  502  0.00000000000E+00  0.00000000000E+00  0.26566413679E+03  0.26566413679E+03  0.00000000000E+00 0. -1.
         21   -1    0    0  501  503 -0.00000000000E+00 -0.00000000000E+00 -0.20478301205E+03  0.20478301205E+03  0.00000000000E+00 0. -1.
          6    2    1    2  501    0  0.11522004797E+03  0.77302314373E+01 -0.79078573403E+02  0.22089026241E+03  0.17089081696E+03 0.  0.
         24    2    3    3    0    0  0.36617153169E+02 -0.67882603371E+01 -0.10512508260E+03  0.13668983297E+03  0.79031203094E+02 0.  0.
         -6    2    1    2    0  502 -0.11522004797E+03 -0.77302314373E+01  0.13995969815E+03  0.24955688643E+03  0.17133156897E+03 0.  0.
        -24    2    5    5    0    0 -0.12254217299E+03 -0.40043209674E+02  0.15168270200E+03  0.21409901147E+03  0.78808006090E+02 0.  0.
          5    1    3    3  501    0  0.78602894806E+02  0.14518491774E+02  0.26046509197E+02  0.84200429432E+02  0.47000000000E+01 0. -1.
        -13    1    4    4    0    0 -0.14962534317E+02 -0.21953589063E+02 -0.11983033407E+02  0.29144992632E+02  0.00000000000E+00 0.  1.
         14    1    4    4    0    0  0.51579687485E+02  0.15165328726E+02 -0.93142049192E+02  0.10754484034E+03  0.00000000000E+00 0. -1.
         -5    1    5    5    0  502  0.73221250148E+01  0.32312978237E+02 -0.11723003854E+02  0.35457874959E+02  0.47000000000E+01 0.  1.
         13    1    6    6    0    0 -0.92644586066E+02 -0.52569280200E+02  0.73372107333E+02  0.12934455799E+03  0.00000000000E+00 0. -1.
        -14    1    6    6    0    0 -0.29897586923E+02  0.12526070526E+02  0.78310594667E+02  0.84754453474E+02  0.00000000000E+00 0.  1.
</event>
<event>
12    1  0.8052519E-002  0.1917390E+03  0.7818608E-02  0.1157131E+00
         21   -1    0    0  503  502  0.00000000000E+00  0.00000000000E+00  0.21882145687E+03  0.21882145687E+03  0.00000000000E+00 0.  1.
         21   -1    0    0  501  503 -0.00000000000E+00 -0.00000000000E+00 -0.16733246060E+03  0.16733246060E+03  0.00000000000E+00 0.  1.
          6    2    1    2  501    0  0.63103167990E+02 -0.56276104010E+02  0.18682209306E+02  0.19162856429E+03  0.17094874090E+03 0.  0.
         24    2    3    3    0    0  0.10133458848E+03 -0.27135634848E+02  0.41837182253E+02  0.13806503912E+03  0.79413876041E+02 0.  0.
         -6    2    1    2    0  502 -0.63103167990E+02  0.56276104010E+02  0.32806786964E+02  0.19452535318E+03  0.17208956408E+03 0.  0.
        -24    2    5    5    0    0 -0.90139109126E+01 -0.82410985405E+01 -0.32910113031E+02  0.87619235011E+02  0.80280062962E+02 0.  0.
          5    1    3    3  501    0 -0.38231420493E+02 -0.29140469162E+02 -0.23154972947E+02  0.53563525165E+02  0.47000000000E+01 0. -1.
        -11    1    4    4    0    0  0.53252324222E+02 -0.52560790741E+02  0.36967494481E+02  0.83456829598E+02  0.00000000000E+00 0.  1.
         12    1    4    4    0    0  0.48082264261E+02  0.25425155893E+02  0.48696877721E+01  0.54608209526E+02  0.00000000000E+00 0. -1.
         -5    1    5    5    0  502 -0.54089257077E+02  0.64517202551E+02  0.65716899995E+02  0.10690611816E+03  0.47000000000E+01 0.  1.
         11    1    6    6    0    0 -0.14266463075E+01 -0.10914384475E+02 -0.59154372447E+02  0.60169750604E+02  0.00000000000E+00 0. -1.
        -12    1    6    6    0    0 -0.75872646050E+01  0.26732859346E+01  0.26244259417E+02  0.27449484407E+02  0.00000000000E+00 0.  1.
</event>
<event>
12    1  0.8052519E-002  0.2271042E+03  0.7818608E-02  0.1129734E+00
         21   -1    0    0  503  502  0.00000000000E+00  0.00000000000E+00  0.73548742691E+02  0.73548742691E+02  0.00000000000E+00 0.  1.
         21   -1    0    0  501  503 -0.00000000000E+00 -0.00000000000E+00 -0.71579416502E+03  0.71579416502E+03  0.00000000000E+00 0. -1.
          6    2    1    2  501    0  0.14741876994E+03  0.16540671379E+02 -0.24143314056E+03  0.33146084323E+03  0.17196058181E+03 0.  0.
         24    2    3    3    0    0  0.54193305361E+02  0.11667571810E+02 -0.32081655822E+02  0.10219054750E+03  0.79628065277E+02 0.  0.
         -6    2    1    2    0  502 -0.14741876994E+03 -0.16540671379E+02 -0.40081228177E+03  0.45788206448E+03  0.16431558725E+03 0.  0.
        -24    2    5    5    0    0  0.43823325500E+01  0.89741352538E+01 -0.79190067617E+02  0.10129053526E+03  0.62361572960E+02 0.  0.
          5    1    3    3  501    0  0.93225464574E+02  0.48730995685E+01 -0.20935148473E+03  0.22927029573E+03  0.47000000000E+01 0. -1.
        -11    1    4    4    0    0  0.62465315199E+01 -0.31736147926E+02 -0.11168420367E+02  0.34218940000E+02  0.00000000000E+00 0.  1.
         12    1    4    4    0    0  0.47946773841E+02  0.43403719737E+02 -0.20913235455E+02  0.67971607499E+02  0.00000000000E+00 0. -1.
         -5    1    5    5    0  502 -0.15180110249E+03 -0.25514806633E+02 -0.32162221416E+03  0.35659152922E+03  0.47000000000E+01 0.  1.
         13    1    6    6    0    0  0.69658673451E+01 -0.90433419507E+01 -0.82071989989E+02  0.82862035229E+02  0.00000000000E+00 0. -1.
        -14    1    6    6    0    0 -0.25835347951E+01  0.18017477205E+02  0.28819223723E+01  0.18428500032E+02  0.00000000000E+00 0.  1.
</event>
<event>
12    1  0.8052519E-002  0.2192668E+03  0.7818608E-02  0.1134519E+00
         21   -1    0    0  501  502  0.00000000000E+00  0.00000000000E+00  0.42931871569E+02  0.42931871569E+02  0.00000000000E+00 0.  1.
         21   -1    0    0  502  503 -0.00000000000E+00 -0.00000000000E+00 -0.11795769109E+04  0.11795769109E+04  0.00000000000E+00 0.  1.
         -6    2    1    2    0  503  0.12911283244E+03  0.37016969356E+02 -0.70799607775E+03  0.74103412866E+03  0.17272160897E+03 0.  0.
        -24    2    3    3    0    0  0.29813882537E+02 -0.34488367493E+02 -0.39055259333E+03  0.40079046531E+03  0.77610268914E+02 0.  0.
          6    2    1    2  501    0 -0.12911283244E+03 -0.37016969356E+02 -0.42864896156E+03  0.48147465379E+03  0.17331338805E+03 0.  0.
         24    2    5    5    0    0 -0.37052436031E+02 -0.71917353604E+02 -0.20098085017E+03  0.23338593508E+03  0.86779627755E+02 0.  0.
          5    1    5    5  501    0 -0.92060396406E+02  0.34900384248E+02 -0.22766811139E+03  0.24808871871E+03  0.47000000000E+01 0. -1.
        -13    1    6    6    0    0  0.48468556618E+01 -0.41615096321E+02 -0.16538646033E+03  0.17061063716E+03  0.00000000000E+00 0.  1.
         14    1    6    6    0    0 -0.41899291692E+02 -0.30302257283E+02 -0.35594389836E+02  0.62775297917E+02  0.00000000000E+00 0. -1.
         -5    1    3    3    0  503  0.99298949900E+02  0.71505336849E+02 -0.31744348442E+03  0.34024366335E+03  0.47000000000E+01 0.  1.
         13    1    4    4    0    0 -0.25973369922E+02 -0.53385302316E+01 -0.96518308606E+02  0.10009445412E+03  0.00000000000E+00 0. -1.
        -14    1    4    4    0    0  0.55787252459E+02 -0.29149837262E+02 -0.29403428472E+03  0.30069601119E+03  0.00000000000E+00 0.  1.
</event>
<event>
12    1  0.8052519E-002  0.2119182E+03  0.7818608E-02  0.1140157E+00
         21   -1    0    0  503  502  0.00000000000E+00  0.00000000000E+00  0.67451180994E+03  0.67451180994E+03  0.00000000000E+00 0. -1.
         21   -1    0    0  501  503 -0.00000000000E+00 -0.00000000000E+00 -0.93829189647E+02  0.93829189647E+02  0.00000000000E+00 0. -1.
          6    2    1    2  501    0 -0.87331244114E+02 -0.87128616483E+02  0.82951578471E+02  0.22757482110E+03  0.17231132527E+03 0.  0.
         24    2    3    3    0    0 -0.44678216043E+02 -0.42435199792E+02 -0.24113587025E+02  0.10387428770E+03  0.80071926393E+02 0.  0.
         -6    2    1    2    0  502  0.87331244114E+02  0.87128616483E+02  0.49773104182E+03  0.54076617849E+03  0.17167914200E+03 0.  0.
        -24    2    5    5    0    0  0.55851933090E+02  0.97689814803E+02  0.21343144923E+03  0.25449561717E+03  0.80946261751E+02 0.  0.
          5    1    3    3  501    0 -0.42653028071E+02 -0.44693416691E+02  0.10706516550E+03  0.12370053339E+03  0.47000000000E+01 0. -1.
        -13    1    4    4    0    0 -0.20968000186E+01  0.20864909250E+02 -0.17474483561E+02  0.27296493988E+02  0.00000000000E+00 0.  1.
         14    1    4    4    0    0 -0.42581416024E+02 -0.63300109042E+02 -0.66391034641E+01  0.76577793714E+02  0.00000000000E+00 0. -1.
         -5    1    5    5    0  502  0.31479311023E+02 -0.10561198320E+02  0.28429959259E+03  0.28627056132E+03  0.47000000000E+01 0.  1.
         11    1    6    6    0    0  0.57560469511E+02  0.89857862093E+02  0.21974895864E+03  0.24428927085E+03  0.00000000000E+00 0. -1.
        -12    1    6    6    0    0 -0.17085364205E+01  0.78319527104E+01 -0.63175094107E+01  0.10206346316E+02  0.00000000000E+00 0.  1.
</event>
<event>
12    1  0.8052519E-002  0.1909603E+03  0.7818608E-02  0.1157886E+00
         21   -1    0    0  503  502  0.00000000000E+00  0.00000000000E+00  0.18031876182E+02  0.18031876182E+02  0.00000000000E+00 0. -1.
         21   -1    0    0  501  503 -0.00000000000E+00 -0.00000000000E+00 -0.20116061622E+04  0.20116061622E+04  0.00000000000E+00 0. -1.
          6    2    1    2  501    0 -0.73112759134E+02 -0.46292327601E+02 -0.10382193602E+04  0.10556350172E+04  0.17022747881E+03 0.  0.
         24    2    3    3    0    0 -0.94021353997E+02 -0.47805813110E+02 -0.50465843883E+03  0.52164175248E+03  0.79401305212E+02 0.  0.
         -6    2    1    2    0  502  0.73112759134E+02  0.46292327601E+02 -0.95535492582E+03  0.97400302117E+03  0.16879098260E+03 0.  0.
        -24    2    5    5    0    0  0.82419821062E+02  0.89042544369E+02 -0.69666002934E+03  0.71159238514E+03  0.79416147568E+02 0.  0.
          5    1    3    3  501    0  0.20908594863E+02  0.15134855092E+01 -0.53356092139E+03  0.53399326476E+03  0.47000000000E+01 0. -1.
        -13    1    4    4    0    0 -0.20693420563E+02 -0.49656622746E+02 -0.14688332086E+03  0.15642476717E+03  0.00000000000E+00 0.  1.
         14    1    4    4    0    0 -0.73327933434E+02  0.18508096365E+01 -0.35777511797E+03  0.36521698531E+03  0.00000000000E+00 0. -1.
         -5    1    5    5    0  502 -0.93070619284E+01 -0.42750216769E+02 -0.25869489648E+03  0.26241063603E+03  0.47000000000E+01 0.  1.
         11    1    6    6    0    0  0.17991684597E+02 -0.13576117574E+02 -0.14847011714E+03  0.15017119353E+03  0.00000000000E+00 0. -1.
        -12    1    6    6    0    0  0.64428136465E+02  0.10261866194E+03 -0.54818991221E+03  0.56142119161E+03  0.00000000000E+00 0.  1.
</event>
<event>
12    1  0.8052519E-002  0.1830072E+03  0.7818608E-02  0.1165022E+00
         21   -1    0    0  501  502  0.00000000000E+00  0.00000000000E+00  0.41870858505E+03  0.41870858505E+03  0.00000000000E+00 0.  1.
         21   -1    0    0  502  503 -0.00000000000E+00 -0.00000000000E+00 -0.11870633148E+03  0.11870633148E+03  0.00000000000E+00 0.  1.
         -6    2    1    2    0  503  0.59944902650E+02 -0.50050331086E+01 -0.37050509690E+01  0.18304467720E+03  0.17283860894E+03 0.  0.
        -24    2    3    3    0    0  0.64244103306E+02  0.48956340478E+02  0.32306631285E+02  0.11785844994E+03  0.79516461917E+02 0.  0.
          6    2    1    2  501    0 -0.59944902650E+02  0.50050331086E+01  0.30370730454E+03  0.35437023933E+03  0.17239982012E+03 0.  0.
         24    2    5    5    0    0 -0.89112761015E+02  0.47853918220E+02  0.19143192104E+03  0.23061789527E+03  0.79418836335E+02 0.  0.
          5    1    5    5  501    0  0.29167858366E+02 -0.42848885112E+02  0.11227538351E+03  0.12375234406E+03  0.47000000000E+01 0. -1.
        -13    1    6    6    0    0 -0.96452684047E+02  0.19917053013E+02  0.13365063343E+03  0.16601897806E+03  0.00000000000E+00 0.  1.
         14    1    6    6    0    0  0.73399230315E+01  0.27936865207E+02  0.57781287602E+02  0.64598917210E+02  0.00000000000E+00 0. -1.
         -5    1    3    3    0  503 -0.42992006567E+01 -0.53961373587E+02 -0.36011682254E+02  0.65186227260E+02  0.47000000000E+01 0.  1.
         11    1    4    4    0    0 -0.54677524765E+01 -0.14947178380E+02  0.14696229800E+02  0.21663186031E+02  0.00000000000E+00 0. -1.
        -12    1    4    4    0    0  0.69711855783E+02  0.63903518857E+02  0.17610401484E+02  0.96195263914E+02  0.00000000000E+00 0.  1.
</event>
<event>
12    1  0.8052519E-002  0.2570053E+03  0.7818608E-02  0.1109128E+00
         21   -1    0    0  501  502  0.00000000000E+00  0.00000000000E+00  0.18814858478E+03  0.18814858478E+03  0.00000000000E+00 0. -1.
         21   -1    0    0  502  503 -0.00000000000E+00 -0.00000000000E+00 -0.38879881804E+03  0.38879881804E+03  0.00000000000E+00 0.  1.
         -6    2    1    2    0  503 -0.15557274860E+03  0.11095687334E+03 -0.19220628233E+03  0.32092831908E+03  0.17186454892E+03 0.  0.
        -24    2    3    3    0    0 -0.12489362501E+03  0.82643449352E+01 -0.13127806884E+03  0.19755368144E+03  0.78273933898E+02 0.  0.
          6    2    1    2  501    0  0.15557274860E+03 -0.11095687334E+03 -0.84439509387E+01  0.25601908373E+03  0.17017685824E+03 0.  0.
         24    2    5    5    0    0  0.78364124425E+02  0.78655223910E+01 -0.16016171742E+02  0.11403541600E+03  0.80899665677E+02 0.  0.
          5    1    5    5  501    0  0.77208624171E+02 -0.11882239573E+03  0.75722208032E+01  0.14198366773E+03  0.47000000000E+01 0. -1.
        -11    1    6    6    0    0  0.33661154445E+02 -0.26322959628E+02 -0.34371768068E+02  0.54839675075E+02  0.00000000000E+00 0.  1.
         12    1    6    6    0    0  0.44702969979E+02  0.34188482019E+02  0.18355596326E+02  0.59195740930E+02  0.00000000000E+00 0. -1.
         -5    1    3    3    0  503 -0.30679123585E+02  0.10269252840E+03 -0.60928213488E+02  0.12337463764E+03  0.47000000000E+01 0.  1.
         11    1    4    4    0    0  0.42599608456E+01 -0.92361929911E+00 -0.37323150175E+02  0.37576826343E+02  0.00000000000E+00 0. -1.
        -12    1    4    4    0    0 -0.12915358586E+03  0.91879642343E+01 -0.93954918663E+02  0.15997685510E+03  0.00000000000E+00 0.  1.
</event>
<event>
12    1  0.8052519E-002  0.1935275E+03  0.7818608E-02  0.1155715E+00
         21   -1    0    0  503  502  0.00000000000E+00  0.00000000000E+00  0.19062318261E+04  0.19062318261E+04  0.00000000000E+00 0. -1.
         21   -1    0    0  501  503 -0.00000000000E+00 -0.00000000000E+00 -0.27621728851E+02  0.27621728851E+02  0.00000000000E+00 0. -1.
          6    2    1    2  501    0 -0.86731543703E+02  0.22786816080E+02  0.41081425830E+03  0.45335448402E+03  0.16947074586E+03 0.  0.
         24    2    3    3    0    0 -0.71628378878E+02  0.71903789929E+02  0.21095903068E+03  0.24694521894E+03  0.78596748419E+02 0.  0.
         -6    2    1    2    0  502  0.86731543703E+02 -0.22786816080E+02  0.14677958389E+04  0.14804990709E+04  0.17149715601E+03 0.  0.
        -24    2    5    5    0    0  0.42699758907E+02  0.28952145560E+01  0.13365505241E+04  0.13396239935E+04  0.79959294672E+02 0.  0.
          5    1    3    3  501    0 -0.15103164825E+02 -0.49116973849E+02  0.19985522762E+03  0.20640926509E+03  0.47000000000E+01 0. -1.
        -11    1    4    4    0    0 -0.31434558429E+02  0.50516530119E+02  0.18544067386E+03  0.19475188010E+03  0.00000000000E+00 0.  1.
         12    1    4    4    0    0 -0.40193820449E+02  0.21387259809E+02  0.25518356823E+02  0.52193338842E+02  0.00000000000E+00 0. -1.
         -5    1    5    5    0  502  0.44031784796E+02 -0.25682030636E+02  0.13124531479E+03  0.14087507737E+03  0.47000000000E+01 0.  1.
         13    1    6    6    0    0 -0.94322638520E+01 -0.24791179792E+02  0.64986968679E+03  0.65041077790E+03  0.00000000000E+00 0. -1.
        -14    1    6    6    0    0  0.52132022759E+02  0.27686394348E+02  0.68668083734E+03  0.68921321563E+03  0.00000000000E+00 0.  1.
</event>
<event>
12    1  0.8052519E-002  0.1861990E+03  0.7818608E-02  0.1162224E+00
         21   -1    0    0  503  502  0.00000000000E+00  0.00000000000E+00  0.13387995383E+03  0.13387995383E+03  0.00000000000E+00 0.  1.
         21   -1    0    0  501  503 -0.00000000000E+00 -0.00000000000E+00 -0.54417028557E+03  0.54417028557E+03  0.00000000000E+00 0. -1.
          6    2    1    2  501    0 -0.62500347979E+02 -0.31895176152E+02 -0.45165019733E+03  0.48852630593E+03  0.17247160657E+03 0.  0.
         24    2    3    3    0    0 -0.78123619317E+02  0.25624355413E+01 -0.43125026031E+03  0.44528672867E+03  0.78699540928E+02 0.  0.
         -6    2    1    2    0  502  0.62500347979E+02  0.31895176152E+02  0.41359865597E+02  0.18952393347E+03  0.17112886115E+03 0.  0.
        -24    2    5    5    0    0  0.67345627615E+02  0.28988739315E+02 -0.27163283286E+02  0.12060778121E+03  0.91829256577E+02 0.  0.
          5    1    3    3  501    0  0.15623271338E+02 -0.34457611694E+02 -0.20399937024E+02  0.43239577259E+02  0.47000000000E+01 0. -1.
        -11    1    4    4    0    0 -0.11683702107E+01 -0.24085307404E+02 -0.16816558528E+03  0.16988564152E+03  0.00000000000E+00 0.  1.
         12    1    4    4    0    0 -0.76955249106E+02  0.26647742945E+02 -0.26308467503E+03  0.27540108715E+03  0.00000000000E+00 0. -1.
         -5    1    5    5    0  502 -0.48452796356E+01  0.29064368372E+01  0.68523148883E+02  0.68916152262E+02  0.47000000000E+01 0.  1.
         13    1    6    6    0    0 -0.19416268511E+01 -0.18128132086E+02 -0.31836991815E+02  0.36687779104E+02  0.00000000000E+00 0. -1.
        -14    1    6    6    0    0  0.69287254466E+02  0.47116871401E+02  0.46737085290E+01  0.83920002106E+02  0.00000000000E+00 0.  1.
</event>
<event>
12    1  0.8052519E-002  0.1893481E+03  0.7818608E-02  0.1162762E+00
         21   -1    0    0  501  502  0.00000000000E+00  0.00000000000E+00  0.64409932359E+02  0.64409932359E+02  0.00000000000E+00 0.  1.
         21   -1    0    0  502  503 -0.00000000000E+00 -0.00000000000E+00 -0.17025007917E+04  0.17025007917E+04  0.00000000000E+00 0.  1.
         -6    2    1    2    0  503 -0.80510989772E+02  0.15668735261E+02 -0.15471250718E+04  0.15568452973E+04  0.15311356315E+03 0.  0.
        -24    2    3    3    0    0 -0.10424736881E+03 -0.66742841402E+00 -0.14307815143E+04  0.14368944769E+04  0.81621301507E+02 0.  0.
          6    2    1    2  501    0  0.80510989772E+02 -0.15668735261E+02 -0.90965787539E+02  0.21006542675E+03  0.17066100982E+03 0.  0.
         24    2    5    5    0    0  0.46804478172E+02 -0.50400989701E+02 -0.11474016324E+03  0.15593808280E+03  0.80127783360E+02 0.  0.
          5    1    5    5  501    0  0.33706511600E+02  0.34732254440E+02  0.23774375706E+02  0.54127343948E+02  0.47000000000E+01 0. -1.
        -13    1    6    6    0    0  0.65463518379E+02 -0.19391809351E+02 -0.63753868312E+02  0.93413437112E+02  0.00000000000E+00 0.  1.
         14    1    6    6    0    0 -0.18659040207E+02 -0.31009180350E+02 -0.50986294933E+02  0.62524645688E+02  0.00000000000E+00 0. -1.
         -5    1    3    3    0  503  0.23736379038E+02  0.16336163675E+02 -0.11634355756E+03  0.11995082042E+03  0.47000000000E+01 0.  1.
         11    1    4    4    0    0 -0.23315526858E+02  0.19575661990E+02 -0.13323710400E+03  0.13667094138E+03  0.00000000000E+00 0. -1.
        -12    1    4    4    0    0 -0.80931841952E+02 -0.20243090404E+02 -0.12975444103E+04  0.13002235355E+04  0.00000000000E+00 0.  1.
</event>
<event>
12    1  0.8052519E-002  0.1973477E+03  0.7818608E-02  0.1152430E+00
         21   -1    0    0  503  502  0.00000000000E+00  0.00000000000E+00  0.90445586310E+03  0.90445586310E+03  0.00000000000E+00 0. -1.
         21   -1    0    0  501  503 -0.00000000000E+00 -0.00000000000E+00 -0.42973380667E+02  0.42973380667E+02  0.00000000000E+00 0.  1.
          6    2    1    2  501    0  0.94381314938E+02 -0.16199730083E+02  0.47135749533E+03  0.51022948773E+03  0.17025268831E+03 0.  0.
         24    2    3    3    0    0  0.17233728608E+02  0.66832517094E+01  0.95863182396E+02  0.12618072783E+03  0.79938470596E+02 0.  0.
         -6    2    1    2    0  502 -0.94381314938E+02  0.16199730083E+02  0.39012498710E+03  0.43719975604E+03  0.17255682327E+03 0.  0.
        -24    2    5    5    0    0 -0.11188753572E+03  0.12582486663E+02  0.39581937980E+03  0.41785891004E+03  0.72497914816E+02 0.  0.
          5    1    3    3  501    0  0.77147586330E+02 -0.22882981792E+02  0.37549431294E+03  0.38404875990E+03  0.47000000000E+01 0. -1.
        -13    1    4    4    0    0 -0.50404159004E+00  0.27977652709E+02  0.94364564416E+02  0.98425982984E+02  0.00000000000E+00 0.  1.
         14    1    4    4    0    0  0.17737770198E+02 -0.21294401000E+02  0.14986179799E+01  0.27754744845E+02  0.00000000000E+00 0. -1.
         -5    1    5    5    0  502  0.17506220782E+02  0.36172434196E+01 -0.56943926952E+01  0.19340846005E+02  0.47000000000E+01 0.  1.
         11    1    6    6    0    0 -0.86350278336E+02  0.20631400281E+02  0.18340014652E+03  0.20375877647E+03  0.00000000000E+00 0. -1.
        -12    1    6    6    0    0 -0.25537257383E+02 -0.80489136178E+01  0.21241923328E+03  0.21410013356E+03  0.00000000000E+00 0.  1.
</event>
<event>
12    1  0.8052519E-002  0.2046700E+03  0.7818608E-02  0.1145956E+00
         21   -1    0    0  501  502  0.00000000000E+00  0.00000000000E+00  0.10029215405E+04  0.10029215405E+04  0.00000000000E+00 0.  1.
         21   -1    0    0  502  503 -0.00000000000E+00 -0.00000000000E+00 -0.45405734529E+02  0.45405734529E+02  0.00000000000E+00 0. -1.
         -6    2    1    2    0  503  0.10453890010E+03  0.38233335126E+02  0.32788361971E+03  0.38626498152E+03  0.17118060149E+03 0.  0.
        -24    2    3    3    0    0  0.10091813288E+02 -0.11486524243E+02  0.22046853474E+03  0.23476446303E+03  0.79209805948E+02 0.  0.
          6    2    1    2  501    0 -0.10453890010E+03 -0.38233335126E+02  0.62963218625E+03  0.66206229350E+03  0.17175453694E+03 0.  0.
         24    2    5    5    0    0 -0.62553382379E+02  0.23708812551E+02  0.50886654369E+03  0.51991432911E+03  0.83010342046E+02 0.  0.
          5    1    5    5  501    0 -0.41985517720E+02 -0.61942147677E+02  0.12076564257E+03  0.14214796440E+03  0.47000000000E+01 0. -1.
        -13    1    6    6    0    0 -0.32915460556E+02 -0.28829421002E+02  0.16019005152E+03  0.16605847062E+03  0.00000000000E+00 0.  1.
         14    1    6    6    0    0 -0.29637921824E+02  0.52538233553E+02  0.34867649217E+03  0.35385585849E+03  0.00000000000E+00 0. -1.
         -5    1    3    3    0  503  0.94447086811E+02  0.49719859369E+02  0.10741508497E+03  0.15150051849E+03  0.47000000000E+01 0.  1.
         11    1    4    4    0    0 -0.11362111393E+02  0.11647646604E+00 -0.14987592141E+01  0.11461126527E+02  0.00000000000E+00 0. -1.
        -12    1    4    4    0    0  0.21453924681E+02 -0.11603000709E+02  0.22196729396E+03  0.22330333651E+03  0.00000000000E+00 0.  1.
</event>
<event>
12    1  0.8052519E-002  0.2623980E+03  0.7818608E-02  0.1105753E+00
         21   -1    0    0  503  502  0.00000000000E+00  0.00000000000E+00  0.25036768109E+03  0.25036768109E+03  0.00000000000E+00 0.  1.
         21   -1    0    0  501  503 -0.00000000000E+00 -0.00000000000E+00 -0.36232079708E+03  0.36232079708E+03  0.00000000000E+00 0. -1.
          6    2    1    2  501    0  0.17006825803E+03 -0.10087368710E+03 -0.20659166827E+03  0.33374550257E+03  0.17206751569E+03 0.  0.
         24    2    3    3    0    0  0.18384680431E+03 -0.73331308471E+02 -0.21347012587E+03  0.30184198965E+03  0.79761919592E+02 0.  0.
         -6    2    1    2    0  502 -0.17006825803E+03  0.10087368710E+03  0.94638552280E+02  0.27894297560E+03  0.17249352139E+03 0.  0.
        -24    2    5    5    0    0 -0.32741609234E+02  0.88548614229E+02  0.61534790954E+02  0.13706815435E+03  0.78027420709E+02 0.  0.
          5    1    3    3  501    0 -0.13778546283E+02 -0.27542378627E+02  0.68784576052E+01  0.31903512928E+02  0.47000000000E+01 0. -1.
        -11    1    4    4    0    0  0.14052404900E+01 -0.10326837498E+02 -0.43260660236E+02  0.44498348257E+02  0.00000000000E+00 0.  1.
         12    1    4    4    0    0  0.18244156382E+03 -0.63004470973E+02 -0.17020946564E+03  0.25734364139E+03  0.00000000000E+00 0. -1.
         -5    1    5    5    0  502 -0.13732664879E+03  0.12325072868E+02  0.33103761326E+02  0.14187482125E+03  0.47000000000E+01 0.  1.
         13    1    6    6    0    0  0.11692557721E+02 -0.85476763223E+01  0.14821907319E+01  0.14559380685E+02  0.00000000000E+00 0. -1.
        -14    1    6    6    0    0 -0.44434166955E+02  0.97096290552E+02  0.60052600222E+02  0.12250877367E+03  0.00000000000E+00 0.  1.
</event>
<event>
12    1  0.8052519E-002  0.2431905E+03  0.7818608E-02  0.1117762E+00
         21   -1    0    0  501  502  0.00000000000E+00  0.00000000000E+00  0.11604661743E+03  0.11604661743E+03  0.00000000000E+00 0. -1.
         21   -1    0    0  502  503 -0.00000000000E+00 -0.00000000000E+00 -0.51696484686E+03  0.51696484686E+03  0.00000000000E+00 0. -1.
         -6    2    1    2    0  503 -0.93695029104E+02 -0.14342681888E+03 -0.16015991051E+03  0.29080361782E+03  0.17194631821E+03 0.  0.
        -24    2    3    3    0    0 -0.12190317520E+03 -0.13873008549E+03 -0.16622062840E+03  0.26119650530E+03  0.80547478736E+02 0.  0.
          6    2    1    2  501    0  0.93695029104E+02  0.14342681888E+03 -0.24075831892E+03  0.34220784648E+03  0.17260252377E+03 0.  0.
         24    2    5    5    0    0  0.11553264638E+03  0.57462560493E+02 -0.17401674199E+03  0.23110760643E+03  0.80493235868E+02 0.  0.
          5    1    5    5  501    0 -0.21837617271E+02  0.85964258389E+02 -0.66741576921E+02  0.11110024005E+03  0.47000000000E+01 0. -1.
        -11    1    6    6    0    0 -0.31509350744E+01  0.19780729258E+02 -0.56278221448E+02  0.59736453286E+02  0.00000000000E+00 0.  1.
         12    1    6    6    0    0  0.11868358145E+03  0.37681831235E+02 -0.11773852055E+03  0.17137115315E+03  0.00000000000E+00 0. -1.
         -5    1    3    3    0  503  0.28208146093E+02 -0.46967333878E+01  0.60607178822E+01  0.29607112520E+02  0.47000000000E+01 0.  1.
         13    1    4    4    0    0 -0.95802338073E+02 -0.49814198940E+02 -0.77568832981E+02  0.13295287228E+03  0.00000000000E+00 0. -1.
        -14    1    4    4    0    0 -0.26100837124E+02 -0.88915886554E+02 -0.88651795415E+02  0.12824363302E+03  0.00000000000E+00 0.  1.
</event>
<event>
12    1  0.8052519E-002  0.2344757E+03  0.7818608E-02  0.1123554E+00
         21   -1    0    0  503  502  0.00000000000E+00  0.00000000000E+00  0.14103032583E+03  0.14103032583E+03  0.00000000000E+00 0.  1.
         21   -1    0    0  501  503 -0.00000000000E+00 -0.00000000000E+00 -0.42449785374E+03  0.42449785374E+03  0.00000000000E+00 0.  1.
          6    2    1    2  501    0  0.12809290971E+03  0.94438064182E+02 -0.22277594711E+03  0.32332510011E+03  0.17199900076E+03 0.  0.
         24    2    3    3    0    0  0.63127674095E+02 -0.14297332359E+02 -0.73484868808E+02  0.12748387778E+03  0.81624727884E+02 0.  0.
         -6    2    1    2    0  502 -0.12809290971E+03 -0.94438064182E+02 -0.60691580802E+02  0.24220307946E+03  0.17219907733E+03 0.  0.
        -24    2    5    5    0    0 -0.13444132947E+03 -0.12251447311E+03 -0.34089344665E+02  0.20272705966E+03  0.82776265351E+02 0.  0.
          5    1    3    3  501    0  0.64965235620E+02  0.10873539654E+03 -0.14929107830E+03  0.19584122232E+03  0.47000000000E+01 0. -1.
        -13    1    4    4    0    0  0.67195845767E+02  0.10947892342E+02 -0.75706596067E+02  0.10181663284E+03  0.00000000000E+00 0.  1.
         14    1    4    4    0    0 -0.40681716725E+01 -0.25245224701E+02  0.22217272593E+01  0.25667244943E+02  0.00000000000E+00 0. -1.
         -5    1    5    5    0  502  0.63484197604E+01  0.28076408928E+02 -0.26602236137E+02  0.39476019800E+02  0.47000000000E+01 0.  1.
         13    1    6    6    0    0 -0.35534984385E+02  0.53558125643E+01 -0.18222320948E+02  0.40292342004E+02  0.00000000000E+00 0. -1.
        -14    1    6    6    0    0 -0.98906345090E+02 -0.12787028567E+03 -0.15867023716E+02  0.16243471765E+03  0.00000000000E+00 0.  1.
</event>
<event>
12    1  0.8052519E-002  0.2534863E+03  0.7818608E-02  0.1111131E+00
         21   -1    0    0  503  502  0.00000000000E+00  0.00000000000E+00  0.96680352326E+02  0.96680352326E+02  0.00000000000E+00 0. -1.
         21   -1    0    0  501  503 -0.00000000000E+00 -0.00000000000E+00 -0.74315545619E+03  0.74315545619E+03  0.00000000000E+00 0. -1.
          6    2    1    2  501    0 -0.45706361948E+02  0.18023489997E+03 -0.45993238052E+03  0.52516007887E+03  0.17228355434E+03 0.  0.
         24    2    3    3    0    0 -0.73579197515E+02  0.76414990454E+02 -0.33616688163E+03  0.36116173347E+03  0.78590561465E+02 0.  0.
         -6    2    1    2    0  502  0.45706361948E+02 -0.18023489997E+03 -0.18654272334E+03  0.31467572965E+03  0.17218866544E+03 0.  0.
        -24    2    5    5    0    0  0.12922581586E+01 -0.11903009158E+03 -0.19125491347E+03  0.23876172619E+03  0.79113129966E+02 0.  0.
          5    1    3    3  501    0  0.27872835568E+02  0.10381990952E+03 -0.12376549890E+03  0.16399834539E+03  0.47000000000E+01 0. -1.
        -11    1    4    4    0    0 -0.30452622584E+01  0.64573991191E+01 -0.14980443371E+03  0.14997446444E+03  0.00000000000E+00 0.  1.
         12    1    4    4    0    0 -0.70533935257E+02  0.69957591335E+02 -0.18636244792E+03  0.21118726903E+03  0.00000000000E+00 0. -1.
         -5    1    5    5    0  502  0.44414103789E+02 -0.61204808392E+02  0.47121901254E+01  0.75914003461E+02  0.47000000000E+01 0.  1.
         11    1    6    6    0    0  0.12516179859E+01 -0.14694792998E+02  0.57537500296E+01  0.15830638909E+02  0.00000000000E+00 0. -1.
        -12    1    6    6    0    0  0.40640172670E-01 -0.10433529858E+03 -0.19700866350E+03  0.22293108728E+03  0.00000000000E+00 0.  1.
</event>
<event>
12    1  0.8052519E-002  0.2691522E+03  0.7818608E-02  0.1101772E+00
         21   -1    0    0  501  502  0.00000000000E+00  0.00000000000E+00  0.32541444907E+03  0.32541444907E+03  0.00000000000E+00 0.  1.
         21   -1    0    0  502  503 -0.00000000000E+00 -0.00000000000E+00 -0.49093966900E+03  0.49093966900E+03  0.00000000000E+00 0. -1.
         -6    2    1    2    0  503 -0.83929754641E+01 -0.20732714588E+03 -0.38454728598E+03  0.46938204994E+03  0.17142901210E+03 0.  0.
        -24    2    3    3    0    0  0.45562082063E+02 -0.16349352770E+03 -0.21153358916E+03  0.28286566030E+03  0.80377145463E+02 0.  0.
          6    2    1    2  501    0  0.83929754641E+01  0.20732714588E+03  0.21902206605E+03  0.34697206813E+03  0.17135916429E+03 0.  0.
         24    2    5    5    0    0  0.54293292971E+02  0.12446293405E+03  0.19270464963E+03  0.24854436289E+03  0.78742839187E+02 0.  0.
          5    1    5    5  501    0 -0.45900317507E+02  0.82864211835E+02  0.26317416418E+02  0.98427705231E+02  0.47000000000E+01 0. -1.
        -11    1    6    6    0    0  0.19077895915E+02  0.11829454531E+03  0.16145597078E+03  0.20106117493E+03  0.00000000000E+00 0.  1.
         12    1    6    6    0    0  0.35215397056E+02  0.61683887385E+01  0.31248678847E+02  0.47483187963E+02  0.00000000000E+00 0. -1.
         -5    1    3    3    0  503 -0.53955057527E+02 -0.43833618183E+02 -0.17301369682E+03  0.18651638963E+03  0.47000000000E+01 0.  1.
         13    1    4    4    0    0 -0.23319273864E+02 -0.36641259459E+02 -0.50400686647E+02  0.66532696043E+02  0.00000000000E+00 0. -1.
        -14    1    4    4    0    0  0.68881355927E+02 -0.12685226824E+03 -0.16113290252E+03  0.21633296426E+03  0.00000000000E+00 0.  1.
</event>
<event>
12    1  0.8052519E-002  0.1802516E+03  0.7818608E-02  0.1167619E+00
         21   -1    0    0  501  502  0.00000000000E+00  0.00000000000E+00  0.30677581787E+02  0.30677581787E+02  0.00000000000E+00 0.  1.
         21   -1    0    0  502  503 -0.00000000000E+00 -0.00000000000E+00 -0.13386787645E+04  0.13386787645E+04  0.00000000000E+00 0.  1.
         -6    2    1    2    0  503  0.50653872605E+02  0.34297276932E+02 -0.96734852697E+03  0.98395414690E+03  0.16929404170E+03 0.  0.
        -24    2    3    3    0    0 -0.16718084707E+02 -0.92996405816E+01 -0.71339719684E+03  0.71758402860E+03  0.75001999776E+02 0.  0.
          6    2    1    2  501    0 -0.50653872605E+02 -0.34297276932E+02 -0.34065265575E+03  0.38540219939E+03  0.16955384222E+03 0.  0.
         24    2    5    5    0    0 -0.98086948244E+02 -0.37953205288E+02 -0.25913503877E+03  0.29090101234E+03  0.80068317415E+02 0.  0.
          5    1    5    5  501    0  0.47433075639E+02  0.36559283566E+01 -0.81517616981E+02  0.94501187056E+02  0.47000000000E+01 0. -1.
        -13    1    6    6    0    0 -0.52199558509E+02 -0.63110318513E+01 -0.43690546842E+02  0.68362905987E+02  0.00000000000E+00 0.  1.
         14    1    6    6    0    0 -0.45887389735E+02 -0.31642173437E+02 -0.21544449193E+03  0.22253810635E+03  0.00000000000E+00 0. -1.
         -5    1    3    3    0  503  0.67371957312E+02  0.43596917514E+02 -0.25395133012E+03  0.26637011829E+03  0.47000000000E+01 0.  1.
         11    1    4    4    0    0 -0.10731173000E+02  0.95023087375E+01 -0.24358444487E+02  0.28262798218E+02  0.00000000000E+00 0. -1.
        -12    1    4    4    0    0 -0.59869117070E+01 -0.18801949319E+02 -0.68903875235E+03  0.68932123038E+03  0.00000000000E+00 0.  1.
</event>
<event>
12    1  0.8052519E-002  0.2445454E+03  0.7818608E-02  0.1116835E+00
         21   -1    0    0  501  502  0.00000000000E+00  0.00000000000E+00  0.49065824371E+03  0.49065824371E+03  0.00000000000E+00 0.  1.
         21   -1    0    0  502  503 -0.00000000000E+00 -0.00000000000E+00 -0.12865370649E+03  0.12865370649E+03  0.00000000000E+00 0.  1.
         -6    2    1    2    0  503 -0.15101710075E+03 -0.87726405162E+02  0.25265927590E+03  0.35162364276E+03  0.17117356561E+03 0.  0.
        -24    2    3    3    0    0 -0.10079314109E+03 -0.16805386366E+02  0.22408941762E+03  0.26002362183E+03  0.83393875796E+02 0.  0.
          6    2    1    2  501    0  0.15101710075E+03  0.87726405162E+02  0.10934526132E+03  0.26768830744E+03  0.17087585227E+03 0.  0.
         24    2    5    5    0    0  0.14851086884E+03  0.20355349034E+02  0.45077655357E+02  0.17442762131E+03  0.76962209327E+02 0.  0.
          5    1    5    5  501    0  0.25062319069E+01  0.67371056128E+02  0.64267605960E+02  0.93260686133E+02  0.47000000000E+01 0. -1.
        -13    1    6    6    0    0  0.92509965670E+02  0.47638226128E+02  0.41519203470E+02  0.11203275679E+03  0.00000000000E+00 0.  1.
         14    1    6    6    0    0  0.56000903175E+02 -0.27282877095E+02  0.35584518866E+01  0.62394864522E+02  0.00000000000E+00 0. -1.
         -5    1    3    3    0  503 -0.50223959660E+02 -0.70921018796E+02  0.28569858284E+02  0.91600020924E+02  0.47000000000E+01 0.  1.
         13    1    4    4    0    0 -0.23150862171E+02  0.13719150345E+02  0.13624084362E+03  0.13887312546E+03  0.00000000000E+00 0. -1.
        -14    1    4    4    0    0 -0.77642278921E+02 -0.30524536711E+02  0.87848574005E+02  0.12115049638E+03  0.00000000000E+00 0.  1.
</event>
<event>
12    1  0.8052519E-002  0.1904336E+03  0.7818608E-02  0.1158316E+00
         21   -1    0    0  503  502  0.00000000000E+00  0.00000000000E+00  0.13642281263E+03  0.13642281263E+03  0.00000000000E+00 0. -1.
         21   -1    0    0  501  503 -0.00000000000E+00 -0.00000000000E+00 -0.30278651498E+03  0.30278651498E+03  0.00000000000E+00 0. -1.
          6    2    1    2  501    0  0.25737915167E+02  0.77382113558E+02 -0.46939021570E+01  0.18940522280E+03  0.17088555799E+03 0.  0.
         24    2    3    3    0    0  0.19822947257E+02  0.32771747730E+02 -0.67250308957E+02  0.11220117098E+03  0.81237688473E+02 0.  0.
         -6    2    1    2    0  502 -0.25737915167E+02 -0.77382113558E+02 -0.16166980018E+03  0.24980410481E+03  0.17208874081E+03 0.  0.
        -24    2    5    5    0    0 -0.24920247898E+01 -0.73828163186E+02 -0.25912784100E+02  0.11194526614E+03  0.80021636855E+02 0.  0.
          5    1    3    3  501    0  0.59149679094E+01  0.44610365829E+02  0.62556406800E+02  0.77204051814E+02  0.47000000000E+01 0. -1.
        -11    1    4    4    0    0 -0.28881624433E+02 -0.30085318089E+01 -0.26491041394E+02  0.39306167044E+02  0.00000000000E+00 0.  1.
         12    1    4    4    0    0  0.48704571690E+02  0.35780279539E+02 -0.40759267562E+02  0.72895003941E+02  0.00000000000E+00 0. -1.
         -5    1    5    5    0  502 -0.23245890377E+02 -0.35539503727E+01 -0.13575701608E+03  0.13785883867E+03  0.47000000000E+01 0.  1.
         13    1    6    6    0    0 -0.38515006560E+02 -0.42799195605E+02 -0.28671041392E+02  0.64321112313E+02  0.00000000000E+00 0. -1.
        -14    1    6    6    0    0  0.36022981770E+02 -0.31028967581E+02  0.27582572915E+01  0.47624153830E+02  0.00000000000E+00 0.  1.
</event>
<event>
12    1  0.8052519E-002  0.2037482E+03  0.7818608E-02  0.1146841E+00
         21   -1    0    0  501  502  0.00000000000E+00  0.00000000000E+00  0.25641134763E+03  0.25641134763E+03  0.00000000000E+00 0. -1.
         21   -1    0    0  502  503 -0.00000000000E+00 -0.00000000000E+00 -0.20483876210E+03  0.20483876210E+03  0.00000000000E+00 0. -1.
         -6    2    1    2    0  503  0.28778292364E+02  0.10009899387E+03 -0.80810400271E+02  0.21918859081E+03  0.17511515887E+03 0.  0.
        -24    2    3    3    0    0 -0.47723673240E+02  0.26058399133E+02 -0.39230338339E+02  0.10479649336E+03  0.80540029926E+02 0.  0.
          6    2    1    2  501    0 -0.28778292364E+02 -0.10009899387E+03  0.13238298581E+03  0.24206151892E+03  0.17384051693E+03 0.  0.
         24    2    5    5    0    0  0.78586249734E+01  0.75562818000E+01  0.33787193503E+02  0.91478842792E+02  0.84308652300E+02 0.  0.
          5    1    5    5  501    0 -0.36636917338E+02 -0.10765527567E+03  0.98595792303E+02  0.15058267613E+03  0.47000000000E+01 0. -1.
        -13    1    6    6    0    0 -0.45212677292E+01 -0.30111292667E+02 -0.10338500645E+02  0.32156125444E+02  0.00000000000E+00 0.  1.
         14    1    6    6    0    0  0.12379892703E+02  0.37667574467E+02  0.44125694147E+02  0.59322717348E+02  0.00000000000E+00 0. -1.
         -5    1    3    3    0  503  0.76501965605E+02  0.74040594735E+02 -0.41580061933E+02  0.11439209746E+03  0.47000000000E+01 0.  1.
         11    1    4    4    0    0 -0.40041459061E+02  0.54498343944E+02 -0.25232980707E+02  0.72180961837E+02  0.00000000000E+00 0. -1.
        -12    1    4    4    0    0 -0.76822141791E+01 -0.28439944811E+02 -0.13997357632E+02  0.32615531518E+02  0.00000000000E+00 0.  1.
</event>
<event>
12    1  0.8052519E-002  0.2351632E+03  0.7818608E-02  0.1123099E+00
         21   -1    0    0  503  502  0.00000000000E+00  0.00000000000E+00  0.61449641504E+03  0.61449641504E+03  0.00000000000E+00 0.  1.
         21   -1    0    0  501  503 -0.00000000000E+00 -0.00000000000E+00 -0.92116355835E+02  0.92116355835E+02  0.00000000000E+00 0.  1.
          6    2    1    2  501    0  0.43010679894E+02  0.15407921893E+03  0.20655223178E+03  0.31299451114E+03  0.17236999523E+03 0.  0.
         24    2    3    3    0    0  0.91397487608E+02  0.84245400614E+02  0.15078199797E+03  0.21125732854E+03  0.80272409255E+02 0.  0.
         -6    2    1    2    0  502 -0.43010679894E+02 -0.15407921893E+03  0.31582782742E+03  0.39361825974E+03  0.17204009280E+03 0.  0.
        -24    2    5    5    0    0 -0.57429451817E+02 -0.99773920965E+02  0.10378938430E+03  0.17421142818E+03  0.79526147741E+02 0.  0.
          5    1    3    3  501    0 -0.48386807714E+02  0.69833818321E+02  0.55770233813E+02  0.10173718259E+03  0.47000000000E+01 0. -1.
        -11    1    4    4    0    0  0.49664479687E+02  0.91343394537E+02  0.92085731777E+02  0.13888829420E+03  0.00000000000E+00 0.  1.
         12    1    4    4    0    0  0.41733007921E+02 -0.70979939232E+01  0.58696266189E+02  0.72369034347E+02  0.00000000000E+00 0. -1.
         -5    1    5    5    0  502  0.14418771923E+02 -0.54305297970E+02  0.21203844313E+03  0.21940683156E+03  0.47000000000E+01 0.  1.
         13    1    6    6    0    0  0.28656436445E+01  0.48590758276E+01 -0.79071512814E+01  0.97131649210E+01  0.00000000000E+00 0. -1.
        -14    1    6    6    0    0 -0.60295095461E+02 -0.10463299679E+03  0.11169653558E+03  0.16449826326E+03  0.00000000000E+00 0.  1.
</event>
<event>
12    1  0.8052519E-002  0.1752585E+03  0.7818608E-02  0.1172940E+00
         21   -1    0    0  501  502  0.00000000000E+00  0.00000000000E+00  0.20971116828E+03  0.20971116828E+03  0.00000000000E+00 0.  1.
         21   -1    0    0  502  503 -0.00000000000E+00 -0.00000000000E+00 -0.14540851987E+03  0.14540851987E+03  0.00000000000E+00 0.  1.
         -6    2    1    2    0  503  0.23311693560E+02  0.19282806341E+02  0.21694089135E+02  0.17475605365E+03  0.17074478940E+03 0.  0.
        -24    2    3    3    0    0  0.22735690979E+02  0.28868992187E+02 -0.48132337915E+02  0.10411579138E+03  0.84693835126E+02 0.  0.
          6    2    1    2  501    0 -0.23311693560E+02 -0.19282806341E+02  0.42608559280E+02  0.18036363450E+03  0.17262760396E+03 0.  0.
         24    2    5    5    0    0  0.50364829952E+02 -0.32462344257E+02  0.33743509163E+02  0.10484801062E+03  0.79145821304E+02 0.  0.
          5    1    5    5  501    0 -0.73676523512E+02  0.13179537916E+02  0.88650501172E+01  0.75515623880E+02  0.47000000000E+01 0. -1.
        -13    1    6    6    0    0  0.33076562958E+02  0.12191543530E+02 -0.13342030059E+02  0.37692207641E+02  0.00000000000E+00 0.  1.
         14    1    6    6    0    0  0.17288266994E+02 -0.44653887787E+02  0.47085539222E+02  0.67155802981E+02  0.00000000000E+00 0. -1.
         -5    1    3    3    0  503  0.57600258074E+00 -0.95861858458E+01  0.69826427051E+02  0.70640262264E+02  0.47000000000E+01 0.  1.
         13    1    4    4    0    0  0.54402266851E+02  0.25974324005E+02 -0.35030486471E+02  0.69723791696E+02  0.00000000000E+00 0. -1.
        -14    1    4    4    0    0 -0.31666575872E+02  0.28946681820E+01 -0.13101851444E+02  0.34391999689E+02  0.00000000000E+00 0.  1.
</event>
<event>
12    1  0.8052519E-002  0.1965788E+03  0.7818608E-02  0.1158036E+00
         21   -1    0    0  501  502  0.00000000000E+00  0.00000000000E+00  0.95800597556E+02  0.95800597556E+02  0.00000000000E+00 0.  1.
         21   -1    0    0  502  503 -0.00000000000E+00 -0.00000000000E+00 -0.39544430394E+03  0.39544430394E+03  0.00000000000E+00 0.  1.
         -6    2    1    2    0  503 -0.21852619106E+02  0.19040256541E+02 -0.21778949452E+03  0.27830515804E+03  0.17082572622E+03 0.  0.
        -24    2    3    3    0    0  0.14902658000E+02 -0.48613098712E+02 -0.89347717262E+02  0.12848090427E+03  0.77064944046E+02 0.  0.
          6    2    1    2  501    0  0.21852619106E+02 -0.19040256541E+02 -0.81854211867E+02  0.21293974346E+03  0.19443033203E+03 0.  0.
         24    2    5    5    0    0 -0.23748637933E+02 -0.24857097010E+01  0.31737307530E+02  0.89332903262E+02  0.80018337646E+02 0.  0.
          5    1    5    5  501    0  0.45601257039E+02 -0.16554546840E+02 -0.11359151940E+03  0.12360684020E+03  0.47000000000E+01 0. -1.
        -11    1    6    6    0    0 -0.31901338502E+02  0.82893524061E+01 -0.18164252516E+02  0.37634410199E+02  0.00000000000E+00 0.  1.
         12    1    6    6    0    0  0.81527005686E+01 -0.10775062107E+02  0.49901560046E+02  0.51698493063E+02  0.00000000000E+00 0. -1.
         -5    1    3    3    0  503 -0.36755277105E+02  0.67653355253E+02 -0.12844177726E+03  0.14982425377E+03  0.47000000000E+01 0.  1.
         13    1    4    4    0    0 -0.11244740220E+02 -0.11674712203E+01  0.10148748271E+02  0.15192243519E+02  0.00000000000E+00 0. -1.
        -14    1    4    4    0    0  0.26147398220E+02 -0.47445627491E+02 -0.99496465533E+02  0.11328866075E+03  0.00000000000E+00 0.  1.
</event>
<event>
12    1  0.8052519E-002  0.2192548E+03  0.7818608E-02  0.1134566E+00
         21   -1    0    0  503  502  0.00000000000E+00  0.00000000000E+00  0.24962475365E+02  0.24962475365E+02  0.00000000000E+00 0. -1.
         21   -1    0    0  501  503 -0.00000000000E+00 -0.00000000000E+00 -0.20934093718E+04  0.20934093718E+04  0.00000000000E+00 0. -1.
          6    2    1    2  501    0 -0.13604003673E+03 -0.66168768041E+01 -0.72784773491E+03  0.75996146297E+03  0.17096322804E+03 0.  0.
         24    2    3    3    0    0 -0.13468838193E+03 -0.15728849063E+02 -0.73201728603E+03  0.74881111922E+03  0.80501107447E+02 0.  0.
         -6    2    1    2    0  502  0.13604003673E+03  0.66168768041E+01 -0.13405991615E+04  0.13584103842E+04  0.17181963027E+03 0.  0.
        -24    2    5    5    0    0  0.10806633775E+03  0.50177726285E+02 -0.12011604104E+04  0.12095973110E+04  0.78378476997E+02 0.  0.
          5    1    3    3  501    0 -0.13516547952E+01  0.91119722587E+01  0.41695511261E+01  0.11150343749E+02  0.47000000000E+01 0. -1.
        -11    1    4    4    0    0 -0.63146934099E+02 -0.42452181355E+02 -0.46108191414E+03  0.46731815130E+03  0.00000000000E+00 0.  1.
         12    1    4    4    0    0 -0.71541447832E+02  0.26723332292E+02 -0.27093537189E+03  0.28149296792E+03  0.00000000000E+00 0. -1.
         -5    1    5    5    0  502  0.27973698972E+02 -0.43560849481E+02 -0.13943875111E+03  0.14881307319E+03  0.47000000000E+01 0.  1.
         11    1    6    6    0    0  0.90971534032E+02  0.25542415364E+01 -0.83844645894E+03  0.84337109783E+03  0.00000000000E+00 0. -1.
        -12    1    6    6    0    0  0.17094803722E+02  0.47623484749E+02 -0.36271395150E+03  0.36622621319E+03  0.00000000000E+00 0.  1.
</event>
<event>
12    1  0.8052519E-002  0.2645103E+03  0.7818608E-02  0.1104476E+00
         21   -1    0    0  501  502  0.00000000000E+00  0.00000000000E+00  0.96297640292E+02  0.96297640292E+02  0.00000000000E+00 0.  1.
         21   -1    0    0  502  503 -0.00000000000E+00 -0.00000000000E+00 -0.80350007434E+03  0.80350007434E+03  0.00000000000E+00 0.  1.
         -6    2    1    2    0  503 -0.10504710358E+01 -0.20082255055E+03 -0.21410388638E+03  0.34023370086E+03  0.17201074601E+03 0.  0.
        -24    2    3    3    0    0 -0.57174858039E+02 -0.91871615835E+02 -0.15618133678E+03  0.20459681524E+03  0.75880752875E+02 0.  0.
          6    2    1    2  501    0  0.10504710358E+01  0.20082255055E+03 -0.49309854768E+03  0.55956401378E+03  0.17214792329E+03 0.  0.
         24    2    5    5    0    0  0.60216244660E+02  0.80284758316E+02 -0.22889623687E+03  0.26316074261E+03  0.82392054573E+02 0.  0.
          5    1    5    5  501    0 -0.59165773624E+02  0.12053779223E+03 -0.26420231080E+03  0.29640327117E+03  0.47000000000E+01 0. -1.
        -13    1    6    6    0    0 -0.39623314243E+00  0.51303491888E+02 -0.15508718714E+03  0.16335311719E+03  0.00000000000E+00 0.  1.
         14    1    6    6    0    0  0.60612477802E+02  0.28981266427E+02 -0.73809049731E+02  0.99807625416E+02  0.00000000000E+00 0. -1.
         -5    1    3    3    0  503  0.56124387003E+02 -0.10895093471E+03 -0.57922549591E+02  0.13563688563E+03  0.47000000000E+01 0.  1.
         11    1    4    4    0    0 -0.13447774722E+02 -0.81004717443E+02 -0.12589459400E+03  0.15030653909E+03  0.00000000000E+00 0. -1.
        -12    1    4    4    0    0 -0.43727083317E+02 -0.10866898392E+02 -0.30286742784E+02  0.54290276151E+02  0.00000000000E+00 0.  1.
</event>
<event>
12    1  0.8052519E-002  0.2188420E+03  0.7818608E-02  0.1135054E+00
         21   -1    0    0  501  502  0.00000000000E+00  0.00000000000E+00  0.42359892876E+02  0.42359892876E+02  0.00000000000E+00 0.  1.
         21   -1    0    0  502  503 -0.00000000000E+00 -0.00000000000E+00 -0.11355076930E+04  0.11355076930E+04  0.00000000000E+00 0.  1.
         -6    2    1    2    0  503 -0.11068251505E+02 -0.13348866211E+03 -0.61217619630E+03  0.65011655180E+03  0.17306099072E+03 0.  0.
        -24    2    3    3    0    0 -0.53287069061E+02 -0.94186033476E+02 -0.24778169819E+03  0.28115508305E+03  0.77083656725E+02 0.  0.
          6    2    1    2  501    0  0.11068251505E+02  0.13348866211E+03 -0.48097160383E+03  0.52775103409E+03  0.17101386254E+03 0.  0.
         24    2    5    5    0    0 -0.20791944339E+02  0.15641817604E+03 -0.39848884601E+03  0.43628338939E+03  0.81552956492E+02 0.  0.
          5    1    5    5  501    0  0.31860195844E+02 -0.22929513939E+02 -0.82482757822E+02  0.91467644698E+02  0.47000000000E+01 0. -1.
        -13    1    6    6    0    0  0.22392370253E+02  0.88933196958E+02 -0.26696658580E+03  0.28227945320E+03  0.00000000000E+00 0.  1.
         14    1    6    6    0    0 -0.43184314592E+02  0.67484979086E+02 -0.13152226022E+03  0.15400393619E+03  0.00000000000E+00 0. -1.
         -5    1    3    3    0  503  0.42218817556E+02 -0.39302628629E+02 -0.36439449811E+03  0.36896146876E+03  0.47000000000E+01 0.  1.
         13    1    4    4    0    0 -0.43289124969E+02 -0.51241960364E+02 -0.66008667647E+02  0.94110738213E+02  0.00000000000E+00 0. -1.
        -14    1    4    4    0    0 -0.99979440919E+01 -0.42944073113E+02 -0.18177303054E+03  0.18704434483E+03  0.00000000000E+00 0.  1.
</event>
<event>
12    1  0.8052519E-002  0.2371965E+03  0.7818608E-02  0.1121836E+00
         21   -1    0    0  503  502  0.00000000000E+00  0.00000000000E+00  0.42062236378E+03  0.42062236378E+03  0.00000000000E+00 0.  1.
         21   -1    0    0  501  503 -0.00000000000E+00 -0.00000000000E+00 -0.16937107050E+03  0.16937107050E+03  0.00000000000E+00 0.  1.
          6    2    1    2  501    0 -0.16164639128E+03  0.11744749006E+02 -0.10456381920E+02  0.23742684329E+03  0.17318970826E+03 0.  0.
         24    2    3    3    0    0 -0.14870261967E+03  0.50227429808E+02  0.31383131871E+02  0.17893673421E+03  0.79988687217E+02 0.  0.
         -6    2    1    2    0  502  0.16164639128E+03 -0.11744749006E+02  0.26170767520E+03  0.35256659099E+03  0.17188600548E+03 0.  0.
        -24    2    5    5    0    0  0.71649329779E+02 -0.44704680148E+02  0.65689394149E+02  0.13432112220E+03  0.81209189634E+02 0.  0.
          5    1    3    3  501    0 -0.12943771611E+02 -0.38482680802E+02 -0.41839513790E+02  0.58490109074E+02  0.47000000000E+01 0. -1.
        -11    1    4    4    0    0 -0.55693218553E+02 -0.11622791237E+02 -0.13643026649E+02  0.58506034263E+02  0.00000000000E+00 0.  1.
         12    1    4    4    0    0 -0.93009401119E+02  0.61850221045E+02  0.45026158520E+02  0.12043069995E+03  0.00000000000E+00 0. -1.
         -5    1    5    5    0  502  0.89997061504E+02  0.32959931142E+02  0.19601828105E+03  0.21824546878E+03  0.47000000000E+01 0.  1.
         13    1    6    6    0    0  0.80118137253E+02 -0.24383947160E+02  0.73028178667E+02  0.11111529002E+03  0.00000000000E+00 0. -1.
        -14    1    6    6    0    0 -0.84688074745E+01 -0.20320732987E+02 -0.73387845182E+01  0.23205832185E+02  0.00000000000E+00 0.  1.
</event>
<event>
12    1  0.8052519E-002  0.1967713E+03  0.7818608E-02  0.1153320E+00
         21   -1    0    0  501  502  0.00000000000E+00  0.00000000000E+00  0.80136523474E+03  0.80136523474E+03  0.00000000000E+00 0. -1.
         21   -1    0    0  502  503 -0.00000000000E+00 -0.00000000000E+00 -0.56567338947E+02  0.56567338947E+02  0.00000000000E+00 0. -1.
         -6    2    1    2    0  503 -0.58766603556E+02  0.65182930080E+02  0.54215716831E+03  0.57547513702E+03  0.17185723758E+03 0.  0.
        -24    2    3    3    0    0 -0.95610319549E+02  0.65272540848E+02  0.50102044240E+03  0.52005142678E+03  0.77654137030E+02 0.  0.
          6    2    1    2  501    0  0.58766603556E+02 -0.65182930080E+02  0.20264072749E+03  0.28245743667E+03  0.17611533445E+03 0.  0.
         24    2    5    5    0    0 -0.24797420371E+02  0.66871723307E+01  0.11769442442E+03  0.14322302239E+03  0.77467582077E+02 0.  0.
          5    1    5    5  501    0  0.83564023927E+02 -0.71870102411E+02  0.84946303073E+02  0.13923441428E+03  0.47000000000E+01 0. -1.
        -13    1    6    6    0    0  0.11287982661E+02  0.31077309929E+02  0.76209643365E+02  0.83073025025E+02  0.00000000000E+00 0.  1.
         14    1    6    6    0    0 -0.36085403032E+02 -0.24390137599E+02  0.41484781050E+02  0.60149997364E+02  0.00000000000E+00 0. -1.
         -5    1    3    3    0  503  0.36843715993E+02 -0.89610768282E-01  0.41136725907E+02  0.55423710239E+02  0.47000000000E+01 0.  1.
         13    1    4    4    0    0 -0.84302362256E+02  0.23905513679E+02  0.41231534872E+03  0.42152379370E+03  0.00000000000E+00 0. -1.
        -14    1    4    4    0    0 -0.11307957294E+02  0.41367027169E+02  0.88705093681E+02  0.98527633078E+02  0.00000000000E+00 0.  1.
</event>
<event>
12    1  0.8052519E-002  0.2083971E+03  0.7818608E-02  0.1143327E+00
         21   -1    0    0  503  502  0.00000000000E+00  0.00000000000E+00  0.15293166230E+03  0.15293166230E+03  0.00000000000E+00 0. -1.
         21   -1    0    0  501  503 -0.00000000000E+00 -0.00000000000E+00 -0.45639692503E+03  0.45639692503E+03  0.00000000000E+00 0. -1.
          6    2    1    2  501    0  0.11415665799E+03 -0.39432374518E+01 -0.34130168673E+03  0.39989520402E+03  0.17430444958E+03 0.  0.
         24    2    3    3    0    0  0.41989755283E+02  0.33705226350E+02 -0.11112254444E+03  0.15570266478E+03  0.94846813886E+02 0.  0.
         -6    2    1    2    0  502 -0.11415665799E+03  0.39432374518E+01  0.37836423999E+02  0.20943338332E+03  0.17141603012E+03 0.  0.
        -24    2    5    5    0    0 -0.28334104194E+02 -0.46714273954E+02  0.50857084700E+02  0.10881866369E+03  0.79183417778E+02 0.  0.
          5    1    3    3  501    0  0.72166902702E+02 -0.37648463802E+02 -0.23017914229E+03  0.24419253923E+03  0.47000000000E+01 0. -1.
        -11    1    4    4    0    0  0.11762584934E+02 -0.29087287344E+02 -0.10073698703E+02  0.32953119654E+02  0.00000000000E+00 0.  1.
         12    1    4    4    0    0  0.30227170349E+02  0.62792513695E+02 -0.10104884574E+03  0.12274954513E+03  0.00000000000E+00 0. -1.
         -5    1    5    5    0  502 -0.85822553791E+02  0.50657511406E+02 -0.13020660701E+02  0.10061471963E+03  0.47000000000E+01 0.  1.
         11    1    6    6    0    0 -0.44407627810E+02 -0.50189369819E+02  0.14003463001E+02  0.68462451216E+02  0.00000000000E+00 0. -1.
        -12    1    6    6    0    0  0.16073523615E+02  0.34750958652E+01  0.36853621699E+02  0.40356212471E+02  0.00000000000E+00 0.  1.
</event>
<event>
12    1  0.8052519E-002  0.2011521E+03  0.7818608E-02  0.1148781E+00
         21   -1    0    0  503  502  0.00000000000E+00  0.00000000000E+00  0.24563318707E+03  0.24563318707E+03  0.00000000000E+00 0. -1.
         21   -1    0    0  501  503 -0.00000000000E+00 -0.00000000000E+00 -0.28089766681E+03  0.28089766681E+03  0.00000000000E+00 0. -1.
          6    2    1    2  501    0 -0.96778723409E+02 -0.38566537211E+02 -0.18696680128E+03  0.27462476147E+03  0.17207171684E+03 0.  0.
         24    2    3    3    0    0 -0.39156861105E+02 -0.21671810017E+01 -0.18570002179E+03  0.20629550802E+03  0.80841710091E+02 0.  0.
         -6    2    1    2    0  502  0.96778723409E+02  0.38566537211E+02  0.15170232154E+03  0.25190609241E+03  0.17201623741E+03 0.  0.
        -24    2    5    5    0    0  0.86137945956E+02  0.89923381047E+02  0.10231307457E+03  0.17971094527E+03  0.79511624489E+02 0.  0.
          5    1    3    3  501    0 -0.57621862304E+02 -0.36399356209E+02 -0.12667794903E+01  0.68329253458E+02  0.47000000000E+01 0. -1.
        -13    1    4    4    0    0  0.18583897821E+02 -0.18258359637E+02 -0.87028018173E+02  0.90843849004E+02  0.00000000000E+00 0.  1.
         14    1    4    4    0    0 -0.57740758926E+02  0.16091178635E+02 -0.98672003617E+02  0.11545165901E+03  0.00000000000E+00 0. -1.
         -5    1    5    5    0  502  0.10640777453E+02 -0.51356843837E+02  0.49389246975E+02  0.72195147139E+02  0.47000000000E+01 0.  1.
         13    1    6    6    0    0  0.29830516215E+02 -0.45841703725E-02  0.57008838654E+02  0.64341801368E+02  0.00000000000E+00 0. -1.
        -14    1    6    6    0    0  0.56307429741E+02  0.89927965218E+02  0.45304235913E+02  0.11536914390E+03  0.00000000000E+00 0.  1.
</event>
<event>
12    1  0.8052519E-002  0.1887583E+03  0.7818608E-02  0.1159940E+00
         21   -1    0    0  503  502  0.00000000000E+00  0.00000000000E+00  0.57378149477E+03  0.57378149477E+03  0.00000000000E+00 0.  1.
         21   -1    0    0  501  503 -0.00000000000E+00 -0.00000000000E+00 -0.10164390155E+03  0.10164390155E+03  0.00000000000E+00 0.  1.
          6    2    1    2  501    0  0.29556766749E+02  0.69070426762E+02  0.24656751274E+02  0.19036187145E+03  0.17316281473E+03 0.  0.
         24    2    3    3    0    0 -0.42950705985E+02  0.36367900001E+02  0.46058325960E+02  0.10785789422E+03  0.79652800710E+02 0.  0.
         -6    2    1    2    0  502 -0.29556766749E+02 -0.69070426762E+02  0.44748084195E+03  0.48506352487E+03  0.17147359253E+03 0.  0.
        -24    2    5    5    0    0 -0.14764644168E+02 -0.69539624340E+02  0.45520229392E+03  0.46772172976E+03  0.80627129611E+02 0.  0.
          5    1    3    3  501    0  0.72507472733E+02  0.32702526762E+02 -0.21401574686E+02  0.82503977224E+02  0.47000000000E+01 0. -1.
        -13    1    4    4    0    0  0.15119677857E+02  0.35413390786E+02  0.25789275802E+02  0.46344359439E+02  0.00000000000E+00 0.  1.
         14    1    4    4    0    0 -0.58070383841E+02  0.95450921438E+00  0.20269050159E+02  0.61513534784E+02  0.00000000000E+00 0. -1.
         -5    1    5    5    0  502 -0.14792122581E+02  0.46919757791E+00 -0.77214519768E+01  0.17341795104E+02  0.47000000000E+01 0.  1.
         11    1    6    6    0    0  0.92450214003E+01 -0.66758305664E+02  0.41772174862E+03  0.42312362385E+03  0.00000000000E+00 0. -1.
        -12    1    6    6    0    0 -0.24009665568E+02 -0.27813186766E+01  0.37480545308E+02  0.44598105911E+02  0.00000000000E+00 0.  1.
</event>
<event>
12    1  0.8052519E-002  0.1841307E+03  0.7818608E-02  0.1164423E+00
         21   -1    0    0  501  502  0.00000000000E+00  0.00000000000E+00  0.82257604880E+02  0.82257604880E+02  0.00000000000E+00 0.  1.
         21   -1    0    0  502  503 -0.00000000000E+00 -0.00000000000E+00 -0.46074209628E+03  0.46074209628E+03  0.00000000000E+00 0.  1.
         -6    2    1    2    0  503  0.64045441922E+01  0.58844610513E+02 -0.28312840133E+03  0.33773627318E+03  0.17435708247E+03 0.  0.
        -24    2    3    3    0    0 -0.26805063459E+02  0.54797939282E+02 -0.72166845606E+02  0.12408674338E+03  0.80424751800E+02 0.  0.
          6    2    1    2  501    0 -0.64045441922E+01 -0.58844610513E+02 -0.95356090077E+02  0.20526342799E+03  0.17186210921E+03 0.  0.
         24    2    5    5    0    0  0.15675055872E+02 -0.32253397267E+02 -0.12961760320E+03  0.15637025216E+03  0.79780597210E+02 0.  0.
          5    1    5    5  501    0 -0.22079600064E+02 -0.26591213246E+02  0.34261513121E+02  0.48893175825E+02  0.47000000000E+01 0. -1.
        -11    1    6    6    0    0  0.19145461756E+02  0.41535378419E+01  0.20688212121E+01  0.19699761512E+02  0.00000000000E+00 0.  1.
         12    1    6    6    0    0 -0.34704058840E+01 -0.36406935109E+02 -0.13168642441E+03  0.13667049065E+03  0.00000000000E+00 0. -1.
         -5    1    3    3    0  503  0.33209607651E+02  0.40466712315E+01 -0.21096155572E+03  0.21364952979E+03  0.47000000000E+01 0.  1.
         11    1    4    4    0    0 -0.45524839565E+02  0.59765762801E+02 -0.72927924322E+02  0.10470405707E+03  0.00000000000E+00 0. -1.
        -12    1    4    4    0    0  0.18719776106E+02 -0.49678235188E+01  0.76107871574E+00  0.19382686315E+02  0.00000000000E+00 0.  1.
</event>
<event>
12    1  0.8052519E-002  0.2627516E+03  0.7818608E-02  0.1105680E+00
         21   -1    0    0  503  502  0.00000000000E+00  0.00000000000E+00  0.18880544160E+03  0.18880544160E+03  0.00000000000E+00 0.  1.
         21   -1    0    0  501  503 -0.00000000000E+00 -0.00000000000E+00 -0.12381112656E+04  0.12381112656E+04  0.00000000000E+00 0. -1.
          6    2    1    2  501    0  0.24723840349E+02 -0.19678653738E+03 -0.11244859531E+04  0.11547757702E+04  0.17234329429E+03 0.  0.
         24    2    3    3    0    0  0.12459642004E+02 -0.20596311539E+02 -0.30847464121E+03  0.31985663793E+03  0.81069191652E+02 0.  0.
         -6    2    1    2    0  502 -0.24723840349E+02  0.19678653738E+03  0.75180129131E+02  0.27214093700E+03  0.17050638756E+03 0.  0.
        -24    2    5    5    0    0 -0.24109430760E+02  0.21784843981E+02  0.37067659725E+02  0.92974476643E+02  0.78831452039E+02 0.  0.
          5    1    3    3  501    0  0.12264198346E+02 -0.17619022585E+03 -0.81601131190E+03  0.83491913225E+03  0.47000000000E+01 0. -1.
        -11    1    4    4    0    0 -0.18750205182E+02  0.16730499665E+02 -0.41740317236E+02  0.48720980043E+02  0.00000000000E+00 0.  1.
         12    1    4    4    0    0  0.31209847186E+02 -0.37326811203E+02 -0.26673432397E+03  0.27113565789E+03  0.00000000000E+00 0. -1.
         -5    1    5    5    0  502 -0.61440958966E+00  0.17500169340E+03  0.38112469406E+02  0.17916646036E+03  0.47000000000E+01 0.  1.
         13    1    6    6    0    0 -0.30901941663E+02  0.16534247973E+02 -0.16490177977E+02  0.38732897184E+02  0.00000000000E+00 0. -1.
        -14    1    6    6    0    0  0.67925109039E+01  0.52505960088E+01  0.53557837702E+02  0.54241579458E+02  0.00000000000E+00 0.  1.
</event>
<event>
12    1  0.8052519E-002  0.1923237E+03  0.7818608E-02  0.1157450E+00
         21   -1    0    0  503  502  0.00000000000E+00  0.00000000000E+00  0.28084018139E+02  0.28084018139E+02  0.00000000000E+00 0.  1.
         21   -1    0    0  501  503 -0.00000000000E+00 -0.00000000000E+00 -0.18176664574E+04  0.18176664574E+04  0.00000000000E+00 0.  1.
          6    2    1    2  501    0  0.82409288143E+02  0.24312029324E+02 -0.13865680083E+04  0.13991980893E+04  0.16673957468E+03 0.  0.
         24    2    3    3    0    0 -0.11694058736E+02  0.40552108172E+02 -0.74524411204E+03  0.75078648388E+03  0.80686636832E+02 0.  0.
         -6    2    1    2    0  502 -0.82409288143E+02 -0.24312029324E+02 -0.40301443091E+03  0.44655238624E+03  0.17206404794E+03 0.  0.
        -24    2    5    5    0    0 -0.61432467110E+02  0.32911851104E+02 -0.36104993722E+03  0.37240585400E+03  0.58923042809E+02 0.  0.
          5    1    3    3  501    0  0.94103346879E+02 -0.16240078849E+02 -0.64132389627E+03  0.64841160537E+03  0.47000000000E+01 0. -1.
        -11    1    4    4    0    0  0.88853741410E+01  0.61223921260E+02 -0.51435404784E+03  0.51806119806E+03  0.00000000000E+00 0.  1.
         12    1    4    4    0    0 -0.20579432877E+02 -0.20671813088E+02 -0.23089006420E+03  0.23272528582E+03  0.00000000000E+00 0. -1.
         -5    1    5    5    0  502 -0.20976821033E+02 -0.57223880428E+02 -0.41964493691E+02  0.74146532236E+02  0.47000000000E+01 0.  1.
         11    1    6    6    0    0 -0.15164771872E+02  0.41376802850E+02 -0.16365793116E+03  0.16948725189E+03  0.00000000000E+00 0. -1.
        -12    1    6    6    0    0 -0.46267695238E+02 -0.84649517459E+01 -0.19739200605E+03  0.20291860211E+03  0.00000000000E+00 0.  1.
</event>
<event>
12    1  0.8052519E-002  0.1957388E+03  0.7818608E-02  0.1153462E+00
         21   -1    0    0  501  502  0.00000000000E+00  0.00000000000E+00  0.11214229245E+03  0.11214229245E+03  0.00000000000E+00 0. -1.
         21   -1    0    0  502  503 -0.00000000000E+00 -0.00000000000E+00 -0.59851529415E+03  0.59851529415E+03  0.00000000000E+00 0. -1.
         -6    2    1    2    0  503 -0.39108323345E+02  0.83341519222E+02 -0.47637190284E+03  0.51501833540E+03  0.17273802764E+03 0.  0.
        -24    2    3    3    0    0 -0.54168605045E+02  0.63992017219E+00 -0.16123944914E+03  0.18883292808E+03  0.82006508870E+02 0.  0.
          6    2    1    2  501    0  0.39108323345E+02 -0.83341519222E+02 -0.10001098859E+02  0.19563925121E+03  0.17233521072E+03 0.  0.
         24    2    5    5    0    0  0.88594724697E+02 -0.58460458933E+02  0.15122510930E+02  0.13463714593E+03  0.81435988505E+02 0.  0.
          5    1    5    5  501    0 -0.49486401352E+02 -0.24881060290E+02 -0.25123609789E+02  0.61002105281E+02  0.47000000000E+01 0. -1.
        -11    1    6    6    0    0  0.69805467355E+02 -0.37991431973E+01 -0.11760075620E+02  0.70891015935E+02  0.00000000000E+00 0.  1.
         12    1    6    6    0    0  0.18789257342E+02 -0.54661315735E+02  0.26882586550E+02  0.63746129992E+02  0.00000000000E+00 0. -1.
         -5    1    3    3    0  503  0.15060281700E+02  0.82701599050E+02 -0.31513245370E+03  0.32618540732E+03  0.47000000000E+01 0.  1.
         13    1    4    4    0    0 -0.11480573254E+02  0.12015272059E+02 -0.13784524996E+03  0.13884337673E+03  0.00000000000E+00 0. -1.
        -14    1    4    4    0    0 -0.42688031791E+02 -0.11375351887E+02 -0.23394199179E+02  0.49989551348E+02  0.00000000000E+00 0.  1.
</event>
<event>
12    1  0.8052519E-002  0.1968560E+03  0.7818608E-02  0.1152540E+00
         21   -1    0    0  501  502  0.00000000000E+00  0.00000000000E+00  0.19721340340E+03  0.19721340340E+03  0.00000000000E+00 0.  1.
         21   -1    0    0  502  503 -0.00000000000E+00 -0.00000000000E+00 -0.73392953696E+03  0.73392953696E+03  0.00000000000E+00 0.  1.
         -6    2    1    2    0  503 -0.77208755524E+02  0.58010934867E+02 -0.66706811439E+03  0.69550854404E+03  0.17153951470E+03 0.  0.
        -24    2    3    3    0    0 -0.24295820947E+02  0.84740728560E+01 -0.13696964301E+03  0.16045699634E+03  0.79521492317E+02 0.  0.
          6    2    1    2  501    0  0.77208755524E+02 -0.58010934867E+02  0.13035198082E+03  0.23563439632E+03  0.17089607758E+03 0.  0.
         24    2    5    5    0    0  0.23497721952E+02 -0.96568892336E+02  0.71115951744E+02  0.14673789272E+03  0.81220912719E+02 0.  0.
          5    1    5    5  501    0  0.53711033572E+02  0.38557957469E+02  0.59236029079E+02  0.88896503602E+02  0.47000000000E+01 0. -1.
        -11    1    6    6    0    0  0.41841864834E+02 -0.85547625443E+02  0.29088333746E+02  0.99575443920E+02  0.00000000000E+00 0.  1.
         12    1    6    6    0    0 -0.18344142883E+02 -0.11021266893E+02  0.42027617999E+02  0.47162448798E+02  0.00000000000E+00 0. -1.
         -5    1    3    3    0  503 -0.52912934577E+02  0.49536862011E+02 -0.53009847137E+03  0.53505154770E+03  0.47000000000E+01 0.  1.
         13    1    4    4    0    0  0.28518336031E+02 -0.34615365948E+01 -0.57754864009E+02  0.64505054393E+02  0.00000000000E+00 0. -1.
        -14    1    4    4    0    0 -0.52814156978E+02  0.11935609451E+02 -0.79214779004E+02  0.95951941944E+02  0.00000000000E+00 0.  1.
</event>
<event>
12    1  0.8052519E-002  0.2419655E+03  0.7818608E-02  0.1119161E+00
         21   -1    0    0  503  502  0.00000000000E+00  0.00000000000E+00  0.12839227270E+04  0.12839227270E+04  0.00000000000E+00 0. -1.
         21   -1    0    0  501  503 -0.00000000000E+00 -0.00000000000E+00 -0.66659219350E+02  0.66659219350E+02  0.00000000000E+00 0.  1.
          6    2    1    2  501    0 -0.13891073323E+03  0.92419450339E+02  0.21888820057E+03  0.32330372545E+03  0.16963404120E+03 0.  0.
         24    2    3    3    0    0 -0.97421577656E+02  0.81907256263E+02  0.64973075811E+02  0.16347940977E+03  0.79399335110E+02 0.  0.
         -6    2    1    2    0  502  0.13891073323E+03 -0.92419450339E+02  0.99837530706E+03  0.10272782209E+04  0.17524195485E+03 0.  0.
        -24    2    5    5    0    0  0.49596578261E+02 -0.10975165892E+03  0.48273158704E+03  0.50364861922E+03  0.78274512534E+02 0.  0.
          5    1    3    3  501    0 -0.41489155569E+02  0.10512194076E+02  0.15391512476E+03  0.15982431568E+03  0.47000000000E+01 0. -1.
        -11    1    4    4    0    0 -0.62730977183E+02  0.31035454620E+02 -0.51279155967E+01  0.70175996325E+02  0.00000000000E+00 0.  1.
         12    1    4    4    0    0 -0.34690600473E+02  0.50871801643E+02  0.70100991408E+02  0.93303413442E+02  0.00000000000E+00 0. -1.
         -5    1    5    5    0  502  0.89314154965E+02  0.17332208577E+02  0.51564372002E+03  0.52362960165E+03  0.47000000000E+01 0.  1.
         11    1    6    6    0    0  0.23095022549E+02 -0.86353722177E+02  0.20453714879E+03  0.22321691387E+03  0.00000000000E+00 0. -1.
        -12    1    6    6    0    0  0.26501555711E+02 -0.23397936740E+02  0.27819443824E+03  0.28043170536E+03  0.00000000000E+00 0.  1.
</event>
<event>
12    1  0.8052519E-002  0.1827821E+03  0.7818608E-02  0.1166359E+00
         21   -1    0    0  501  502  0.00000000000E+00  0.00000000000E+00  0.39156561095E+02  0.39156561095E+02  0.00000000000E+00 0.  1.
         21   -1    0    0  502  503 -0.00000000000E+00 -0.00000000000E+00 -0.10821474776E+04  0.10821474776E+04  0.00000000000E+00 0.  1.
         -6    2    1    2    0  503  0.37344190219E+02  0.28856353254E+02 -0.79789805636E+03  0.81856619570E+03  0.17658434454E+03 0.  0.
        -24    2    3    3    0    0 -0.37264389858E+02  0.52580160340E+02 -0.50293949793E+03  0.51335823310E+03  0.80219878479E+02 0.  0.
          6    2    1    2  501    0 -0.37344190219E+02 -0.28856353254E+02 -0.24509286015E+03  0.30273784300E+03  0.17132546168E+03 0.  0.
         24    2    5    5    0    0 -0.27834319685E+02 -0.80004614330E+02 -0.12171269345E+03  0.16875524046E+03  0.80553483900E+02 0.  0.
          5    1    5    5  501    0 -0.95098705342E+01  0.51148261075E+02 -0.12338016670E+03  0.13398260254E+03  0.47000000000E+01 0. -1.
        -13    1    6    6    0    0 -0.33756547223E+02  0.27671390544E+01 -0.37336495584E+02  0.50410072817E+02  0.00000000000E+00 0.  1.
         14    1    6    6    0    0  0.59222275380E+01 -0.82771753384E+02 -0.84376197868E+02  0.11834516764E+03  0.00000000000E+00 0. -1.
         -5    1    3    3    0  503  0.74608580077E+02 -0.23723807085E+02 -0.29495855843E+03  0.30520796260E+03  0.47000000000E+01 0.  1.
         11    1    4    4    0    0 -0.30955487555E+02  0.16881556249E+02 -0.65226937381E+02  0.74147033058E+02  0.00000000000E+00 0. -1.
        -12    1    4    4    0    0 -0.63089023023E+01  0.35698604091E+02 -0.43771256054E+03  0.43921120004E+03  0.00000000000E+00 0.  1.
</event>
<event>
12    1  0.8052519E-002  0.2047610E+03  0.7818608E-02  0.1146087E+00
         21   -1    0    0  503  502  0.00000000000E+00  0.00000000000E+00  0.14725497393E+04  0.14725497393E+04  0.00000000000E+00 0. -1.
         21   -1    0    0  501  503 -0.00000000000E+00 -0.00000000000E+00 -0.55199829691E+02  0.55199829691E+02  0.00000000000E+00 0.  1.
          6    2    1    2  501    0  0.10463813765E+03  0.28418403044E+02  0.17379202233E+03  0.26744671547E+03  0.17195154291E+03 0.  0.
         24    2    3    3    0    0  0.34783667276E+02  0.38706699007E+02  0.20383278105E+02  0.98503444313E+02  0.81113121367E+02 0.  0.
         -6    2    1    2    0  502 -0.10463813765E+03 -0.28418403044E+02  0.12435578873E+04  0.12603028535E+04  0.17369605090E+03 0.  0.
        -24    2    5    5    0    0 -0.51985771275E+02  0.52417920597E+02  0.67156393843E+03  0.68021152414E+03  0.78990096585E+02 0.  0.
          5    1    3    3  501    0  0.69854470369E+02 -0.10288295964E+02  0.15340874423E+03  0.16894327116E+03  0.47000000000E+01 0. -1.
        -13    1    4    4    0    0 -0.23324852834E+02  0.21764588217E+02 -0.60237122230E+01  0.32465846191E+02  0.00000000000E+00 0.  1.
         14    1    4    4    0    0  0.58108520110E+02  0.16942110791E+02  0.26406990328E+02  0.66037598121E+02  0.00000000000E+00 0. -1.
         -5    1    5    5    0  502 -0.52652366370E+02 -0.80836323640E+02  0.57199394887E+03  0.58009132940E+03  0.47000000000E+01 0.  1.
         13    1    6    6    0    0  0.10564567450E+02 -0.38858590262E+01  0.25409444409E+03  0.25434365827E+03  0.00000000000E+00 0. -1.
        -14    1    6    6    0    0 -0.62550338725E+02  0.56303779623E+02  0.41746949434E+03  0.42586786586E+03  0.00000000000E+00 0.  1.
</event>
<event>
12    1  0.8052519E-002  0.3301594E+03  0.7818608E-02  0.1071157E+00
         21   -1    0    0  501  502  0.00000000000E+00  0.00000000000E+00  0.50833907457E+03  0.50833907457E+03  0.00000000000E+00 0.  1.
         21   -1    0    0  502  503 -0.00000000000E+00 -0.00000000000E+00 -0.24076252631E+03  0.24076252631E+03  0.00000000000E+00 0.  1.
         -6    2    1    2    0  503 -0.24825220001E+03  0.13241354660E+03  0.85335332859E+01  0.32944878231E+03  0.17117586524E+03 0.  0.
        -24    2    3    3    0    0 -0.19642853871E+03  0.16425385775E+03  0.73731723162E+01  0.26843293419E+03  0.80239490789E+02 0.  0.
          6    2    1    2  501    0  0.24825220001E+03 -0.13241354660E+03  0.25904301498E+03  0.41965281857E+03  0.17275040488E+03 0.  0.
         24    2    5    5    0    0  0.10496455101E+03  0.31852927659E+01  0.11322237399E+03  0.17428748904E+03  0.80802969040E+02 0.  0.
          5    1    5    5  501    0  0.14328764900E+03 -0.13559883937E+03  0.14582064100E+03  0.24536532953E+03  0.47000000000E+01 0. -1.
        -13    1    6    6    0    0  0.67357440209E+02  0.19905779272E+02  0.11309511204E+03  0.13313064699E+03  0.00000000000E+00 0.  1.
         14    1    6    6    0    0  0.37607110799E+02 -0.16720486506E+02  0.12726194180E+00  0.41156842047E+02  0.00000000000E+00 0. -1.
         -5    1    3    3    0  503 -0.51823661301E+02 -0.31840311145E+02  0.11603609697E+01  0.61015848122E+02  0.47000000000E+01 0.  1.
         11    1    4    4    0    0 -0.11405768325E+03  0.13711038653E+03  0.24518415644E+02  0.18002657000E+03  0.00000000000E+00 0. -1.
        -12    1    4    4    0    0 -0.82370855465E+02  0.27143471222E+02 -0.17145243328E+02  0.88406364187E+02  0.00000000000E+00 0.  1.
</event>
<event>
12    1  0.8052519E-002  0.2023639E+03  0.7818608E-02  0.1149492E+00
         21   -1    0    0  503  502  0.00000000000E+00  0.00000000000E+00  0.15359666794E+03  0.15359666794E+03  0.00000000000E+00 0.  1.
         21   -1    0    0  501  503 -0.00000000000E+00 -0.00000000000E+00 -0.29601817245E+03  0.29601817245E+03  0.00000000000E+00 0.  1.
          6    2    1    2  501    0  0.38058107532E+02  0.79862658158E+02 -0.15261114189E+03  0.24699457352E+03  0.17288636442E+03 0.  0.
         24    2    3    3    0    0 -0.36674563626E+02  0.82189501264E+02 -0.86143843731E+02  0.14684279839E+03  0.77729710479E+02 0.  0.
         -6    2    1    2    0  502 -0.38058107532E+02 -0.79862658158E+02  0.10189637379E+02  0.20262026687E+03  0.18200186845E+03 0.  0.
        -24    2    5    5    0    0 -0.43433772961E+02 -0.75847588640E+02  0.73298316910E+02  0.13898211798E+03  0.79397962944E+02 0.  0.
          5    1    3    3  501    0  0.74732671158E+02 -0.23268431066E+01 -0.66467298159E+02  0.10015177513E+03  0.47000000000E+01 0. -1.
        -13    1    4    4    0    0 -0.42221643811E+02  0.60328895880E+02 -0.97023549155E+02  0.12180234799E+03  0.00000000000E+00 0.  1.
         14    1    4    4    0    0  0.55470801851E+01  0.21860605384E+02  0.10879705424E+02  0.25040450404E+02  0.00000000000E+00 0. -1.
         -5    1    5    5    0  502  0.53756654291E+01 -0.40150695173E+01 -0.63108679531E+02  0.63638148890E+02  0.47000000000E+01 0.  1.
         13    1    6    6    0    0 -0.30634587717E+02 -0.60777051200E+01  0.58802559768E+02  0.66581960765E+02  0.00000000000E+00 0. -1.
        -14    1    6    6    0    0 -0.12799185245E+02 -0.69769883520E+02  0.14495757142E+02  0.72400157213E+02  0.00000000000E+00 0.  1.
</event>
<event>
12    1  0.8052519E-002  0.1794594E+03  0.7818608E-02  0.1168632E+00
         21   -1    0    0  503  502  0.00000000000E+00  0.00000000000E+00  0.15391715269E+04  0.15391715269E+04  0.00000000000E+00 0. -1.
         21   -1    0    0  501  503 -0.00000000000E+00 -0.00000000000E+00 -0.22506132582E+02  0.22506132582E+02  0.00000000000E+00 0. -1.
          6    2    1    2  501    0  0.45782079349E+01 -0.37649006756E+02  0.97712360610E+03  0.99346677377E+03  0.17540604686E+03 0.  0.
         24    2    3    3    0    0 -0.54335121126E+02 -0.51804688633E+02  0.75510531217E+03  0.76328124748E+03  0.82329819241E+02 0.  0.
         -6    2    1    2    0  502 -0.45782079349E+01  0.37649006756E+02  0.53954178826E+03  0.56821088576E+03  0.17412599381E+03 0.  0.
        -24    2    5    5    0    0  0.42867156015E+02 -0.19036384736E+02  0.21063164822E+03  0.23106363842E+03  0.82611964988E+02 0.  0.
          5    1    3    3  501    0  0.58913329061E+02  0.14155681877E+02  0.22201829393E+03  0.23018552628E+03  0.47000000000E+01 0. -1.
        -13    1    4    4    0    0 -0.71000963622E+02 -0.17388441687E+02  0.48178606000E+03  0.48730001267E+03  0.00000000000E+00 0.  1.
         14    1    4    4    0    0  0.16665842496E+02 -0.34416246946E+02  0.27331925217E+03  0.27598123481E+03  0.00000000000E+00 0. -1.
         -5    1    5    5    0  502 -0.47445363950E+02  0.56685391492E+02  0.32891014004E+03  0.33714724734E+03  0.47000000000E+01 0.  1.
         11    1    6    6    0    0 -0.65862912766E+01 -0.33713611211E+02  0.13645958299E+03  0.14071675311E+03  0.00000000000E+00 0. -1.
        -12    1    6    6    0    0  0.49453447292E+02  0.14677226476E+02  0.74172065226E+02  0.90346885314E+02  0.00000000000E+00 0.  1.
</event>
<event>
12    1  0.8052519E-002  0.1839612E+03  0.7818608E-02  0.1164220E+00
         21   -1    0    0  501  502  0.00000000000E+00  0.00000000000E+00  0.86875053103E+03  0.86875053103E+03  0.00000000000E+00 0. -1.
         21   -1    0    0  502  503 -0.00000000000E+00 -0.00000000000E+00 -0.10086059547E+03  0.10086059547E+03  0.00000000000E+00 0. -1.
         -6    2    1    2    0  503  0.60883305378E+02 -0.12241560812E+02  0.39234060269E+01  0.18400304845E+03  0.17316205138E+03 0.  0.
        -24    2    3    3    0    0 -0.12010629102E-02 -0.24932368837E-01 -0.65577408448E+02  0.90683048728E+02  0.62634001987E+02 0.  0.
          6    2    1    2  501    0 -0.60883305378E+02  0.12241560812E+02  0.76396652953E+03  0.78560807805E+03  0.17227466842E+03 0.  0.
         24    2    5    5    0    0  0.15538486092E+02 -0.36916375803E+02  0.33932035900E+03  0.35132331769E+03  0.81764932372E+02 0.  0.
          5    1    5    5  501    0 -0.76421791469E+02  0.49157936615E+02  0.42464617052E+03  0.43428476036E+03  0.47000000000E+01 0. -1.
        -13    1    6    6    0    0 -0.91843770507E+01  0.23778319249E+02  0.98442090827E+02  0.10168877271E+03  0.00000000000E+00 0.  1.
         14    1    6    6    0    0  0.24722863142E+02 -0.60694695052E+02  0.24087826818E+03  0.24963454498E+03  0.00000000000E+00 0. -1.
         -5    1    3    3    0  503  0.60884506441E+02 -0.12216628443E+02  0.69500814475E+02  0.93319999719E+02  0.47000000000E+01 0.  1.
         11    1    4    4    0    0  0.19083394570E+02  0.22503547098E+02 -0.47935171130E+02  0.56288242214E+02  0.00000000000E+00 0. -1.
        -12    1    4    4    0    0 -0.19084595633E+02 -0.22528479466E+02 -0.17642237318E+02  0.34394806514E+02  0.00000000000E+00 0.  1.
</event>
<event>
12    1  0.8052519E-002  0.2189428E+03  0.7818608E-02  0.1134763E+00
         21   -1    0    0  501  502  0.00000000000E+00  0.00000000000E+00  0.66424076974E+02  0.66424076974E+02  0.00000000000E+00 0. -1.
         21   -1    0    0  502  503 -0.00000000000E+00 -0.00000000000E+00 -0.11912975514E+04  0.11912975514E+04  0.00000000000E+00 0. -1.
         -6    2    1    2    0  503  0.96601083454E+02 -0.93320348145E+02 -0.95756765055E+03  0.98217272758E+03  0.17229917215E+03 0.  0.
        -24    2    3    3    0    0  0.12255527450E+03 -0.11006214926E+03 -0.87529047324E+03  0.89416402436E+03  0.79135440247E+02 0.  0.
          6    2    1    2  501    0 -0.96601083454E+02  0.93320348145E+02 -0.16730582383E+03  0.27554890075E+03  0.17290315588E+03 0.  0.
         24    2    5    5    0    0 -0.77198580574E+02  0.26317131062E+02 -0.25141182116E+02  0.11712300775E+03  0.80209149581E+02 0.  0.
          5    1    5    5  501    0 -0.19402502881E+02  0.67003217083E+02 -0.14216464172E+03  0.15842589300E+03  0.47000000000E+01 0. -1.
        -13    1    6    6    0    0 -0.36691650694E+01 -0.24480073151E+02 -0.88029459014E+01  0.26272202236E+02  0.00000000000E+00 0.  1.
         14    1    6    6    0    0 -0.73529415505E+02  0.50797204213E+02 -0.16338236215E+02  0.90850805516E+02  0.00000000000E+00 0. -1.
         -5    1    3    3    0  503 -0.25954191046E+02  0.16741801110E+02 -0.82277177310E+02  0.88008703225E+02  0.47000000000E+01 0.  1.
         11    1    4    4    0    0  0.79373466342E+01 -0.46057149680E+02 -0.33003144222E+03  0.33332418959E+03  0.00000000000E+00 0. -1.
        -12    1    4    4    0    0  0.11461792787E+03 -0.64004999576E+02 -0.54525903102E+03  0.56083983477E+03  0.00000000000E+00 0.  1.
</event>
<event>
12    1  0.8052519E-002  0.5021269E+03  0.7818608E-02  0.1013311E+00
         21   -1    0    0  503  502  0.00000000000E+00  0.00000000000E+00  0.38952840874E+03  0.38952840874E+03  0.00000000000E+00 0.  1.
         21   -1    0    0  501  503 -0.00000000000E+00 -0.00000000000E+00 -0.10468745931E+04  0.10468745931E+04  0.00000000000E+00 0. -1.
          6    2    1    2  501    0  0.44387588146E+03  0.15818944202E+03 -0.77307269268E+03  0.92111275445E+03  0.16958071982E+03 0.  0.
         24    2    3    3    0    0  0.24440011977E+03  0.15104369342E+03 -0.42131384825E+03  0.51664023887E+03  0.82862306429E+02 0.  0.
         -6    2    1    2    0  502 -0.44387588146E+03 -0.15818944202E+03  0.11572650833E+03  0.51529024738E+03  0.17344081586E+03 0.  0.
        -24    2    5    5    0    0 -0.12124928023E+03 -0.20656702473E+02  0.63207134677E+02  0.16063047678E+03  0.81724665092E+02 0.  0.
          5    1    3    3  501    0  0.19947576169E+03  0.71457486010E+01 -0.35175884443E+03  0.40447251558E+03  0.47000000000E+01 0. -1.
        -11    1    4    4    0    0  0.21743370616E+02  0.40936727287E+02 -0.38281257336E+02  0.60116923324E+02  0.00000000000E+00 0.  1.
         12    1    4    4    0    0  0.22265674915E+03  0.11010696614E+03 -0.38303259091E+03  0.45652331554E+03  0.00000000000E+00 0. -1.
         -5    1    5    5    0  502 -0.32262660123E+03 -0.13753273955E+03  0.52519373649E+02  0.35465977060E+03  0.47000000000E+01 0.  1.
         13    1    6    6    0    0  0.68516703292E+01 -0.83420358956E+00 -0.97025863292E+01  0.11907202165E+02  0.00000000000E+00 0. -1.
        -14    1    6    6    0    0 -0.12810095056E+03 -0.19822498883E+02  0.72909721006E+02  0.14872327462E+03  0.00000000000E+00 0.  1.
</event>
<event>
12    1  0.8052519E-002  0.1846882E+03  0.7818608E-02  0.1163550E+00
         21   -1    0    0  501  502  0.00000000000E+00  0.00000000000E+00  0.42151308919E+03  0.42151308919E+03  0.00000000000E+00 0. -1.
         21   -1    0    0  502  503 -0.00000000000E+00 -0.00000000000E+00 -0.87718205075E+02  0.87718205075E+02  0.00000000000E+00 0. -1.
         -6    2    1    2    0  503 -0.66371529297E+02 -0.10867100916E+02  0.94397475663E+02  0.20741410716E+03  0.17200713548E+03 0.  0.
        -24    2    3    3    0    0 -0.82145209902E+02 -0.60866385397E+02  0.79891369391E+02  0.15281324117E+03  0.80726101053E+02 0.  0.
          6    2    1    2  501    0  0.66371529297E+02  0.10867100916E+02  0.23939740845E+03  0.30181718710E+03  0.17105327086E+03 0.  0.
         24    2    5    5    0    0  0.54734194533E+02  0.63482064239E+02  0.11175948747E+03  0.16319074374E+03  0.84351830284E+02 0.  0.
          5    1    5    5  501    0  0.11637334764E+02 -0.52614963323E+02  0.12763792098E+03  0.13862644336E+03  0.47000000000E+01 0. -1.
        -11    1    6    6    0    0  0.92040670784E+01  0.42251664360E+02  0.29488011481E+01  0.43342974289E+02  0.00000000000E+00 0.  1.
         12    1    6    6    0    0  0.45530127454E+02  0.21230399878E+02  0.10881068632E+03  0.11984776945E+03  0.00000000000E+00 0. -1.
         -5    1    3    3    0  503  0.15773680605E+02  0.49999284481E+02  0.14506106272E+02  0.54600865997E+02  0.47000000000E+01 0.  1.
         11    1    4    4    0    0 -0.12640413203E+02 -0.33124224582E+02 -0.90351778792E+01  0.36587275649E+02  0.00000000000E+00 0. -1.
        -12    1    4    4    0    0 -0.69504796700E+02 -0.27742160815E+02  0.88926547270E+02  0.11622596552E+03  0.00000000000E+00 0.  1.
</event>
<event>
12    1  0.8052519E-002  0.2342398E+03  0.7818608E-02  0.1124284E+00
         21   -1    0    0  503  502  0.00000000000E+00  0.00000000000E+00  0.11110557268E+04  0.11110557268E+04  0.00000000000E+00 0.  1.
         21   -1    0    0  501  503 -0.00000000000E+00 -0.00000000000E+00 -0.12401985566E+03  0.12401985566E+03  0.00000000000E+00 0.  1.
          6    2    1    2  501    0  0.10046208020E+03  0.11723108533E+03  0.10730884199E+02  0.23106376867E+03  0.17157959200E+03 0.  0.
         24    2    3    3    0    0  0.87849751767E+02  0.13480250113E+03 -0.33586052703E+02  0.18152684933E+03  0.77036880096E+02 0.  0.
         -6    2    1    2    0  502 -0.10046208020E+03 -0.11723108533E+03  0.97630498697E+03  0.10040118138E+04  0.17616054543E+03 0.  0.
        -24    2    5    5    0    0 -0.48309572302E+02  0.71017941742E+01  0.29711232020E+03  0.31155003321E+03  0.80021510358E+02 0.  0.
          5    1    3    3  501    0  0.12612328431E+02 -0.17571415795E+02  0.44316936902E+02  0.49536919342E+02  0.47000000000E+01 0. -1.
        -11    1    4    4    0    0  0.28529791349E+02  0.10475335779E+03 -0.37241293039E+01  0.10863279478E+03  0.00000000000E+00 0.  1.
         12    1    4    4    0    0  0.59319960418E+02  0.30049143338E+02 -0.29861923399E+02  0.72894054548E+02  0.00000000000E+00 0. -1.
         -5    1    5    5    0  502 -0.52152507895E+02 -0.12433287951E+03  0.67919266677E+03  0.69246178061E+03  0.47000000000E+01 0.  1.
         11    1    6    6    0    0  0.77494098989E+00 -0.15107802959E+02  0.73444112166E+01  0.16816260580E+02  0.00000000000E+00 0. -1.
        -12    1    6    6    0    0 -0.49084513292E+02  0.22209597133E+02  0.28976790898E+03  0.29473377263E+03  0.00000000000E+00 0.  1.
</event>
<event>
12    1  0.8052519E-002  0.2137813E+03  0.7818608E-02  0.1139031E+00
         21   -1    0    0  503  502  0.00000000000E+00  0.00000000000E+00  0.66085056017E+03  0.66085056017E+03  0.00000000000E+00 0. -1.
         21   -1    0    0  501  503 -0.00000000000E+00 -0.00000000000E+00 -0.81740569082E+02  0.81740569082E+02  0.00000000000E+00 0. -1.
          6    2    1    2  501    0  0.12226729132E+03 -0.24899636702E+00  0.44050835480E+03  0.48964276231E+03  0.17536553683E+03 0.  0.
         24    2    3    3    0    0  0.88252766210E+02  0.57772994657E+02  0.20644403419E+03  0.24606169666E+03  0.82467870441E+02 0.  0.
         -6    2    1    2    0  502 -0.12226729132E+03  0.24899636702E+00  0.13860163629E+03  0.25294836694E+03  0.17269368903E+03 0.  0.
        -24    2    5    5    0    0 -0.42752177021E+02 -0.57178894279E+02  0.10067266215E+03  0.14768055085E+03  0.81101082629E+02 0.  0.
          5    1    3    3  501    0  0.34014525111E+02 -0.58021991024E+02  0.23406432061E+03  0.24358106565E+03  0.47000000000E+01 0. -1.
        -13    1    4    4    0    0  0.26285446117E+02 -0.16844926353E+02  0.23786608687E+02  0.39248935963E+02  0.00000000000E+00 0.  1.
         14    1    4    4    0    0  0.61967320092E+02  0.74617921010E+02  0.18265742550E+03  0.20681276070E+03  0.00000000000E+00 0. -1.
         -5    1    5    5    0  502 -0.79515114300E+02  0.57427890646E+02  0.37928974142E+02  0.10526781610E+03  0.47000000000E+01 0.  1.
         13    1    6    6    0    0 -0.24947795229E+02 -0.48004370962E+02  0.10245321366E+02  0.55061590316E+02  0.00000000000E+00 0. -1.
        -14    1    6    6    0    0 -0.17804381792E+02 -0.91745233175E+01  0.90427340780E+02  0.92618960530E+02  0.00000000000E+00 0.  1.
</event>
<event>
12    1  0.8052519E-002  0.1777806E+03  0.7818608E-02  0.1170003E+00
         21   -1    0    0  501  502  0.00000000000E+00  0.00000000000E+00  0.90238306666E+02  0.90238306666E+02  0.00000000000E+00 0. -1.
         21   -1    0    0  502  503 -0.00000000000E+00 -0.00000000000E+00 -0.62943194319E+03  0.62943194319E+03  0.00000000000E+00 0. -1.
         -6    2    1    2    0  503 -0.32165702195E+00 -0.47027271593E+02 -0.50930356528E+03  0.53939444417E+03  0.17130258915E+03 0.  0.
        -24    2    3    3    0    0 -0.66517131575E+02 -0.18529980426E+02 -0.32348627523E+03  0.34003524137E+03  0.78820721551E+02 0.  0.
          6    2    1    2  501    0  0.32165702195E+00  0.47027271593E+02 -0.29890071240E+02  0.18027580569E+03  0.17144760722E+03 0.  0.
         24    2    5    5    0    0 -0.67194823142E+02  0.27927603596E+02 -0.15132789397E+02  0.10842081436E+03  0.78936533825E+02 0.  0.
          5    1    5    5  501    0  0.67516480164E+02  0.19099667997E+02 -0.14757281843E+02  0.71854991327E+02  0.47000000000E+01 0. -1.
        -13    1    6    6    0    0 -0.49098105420E+02  0.42341442782E+02  0.18661339218E+02  0.67466045638E+02  0.00000000000E+00 0.  1.
         14    1    6    6    0    0 -0.18096717722E+02 -0.14413839186E+02 -0.33794128615E+02  0.40954768724E+02  0.00000000000E+00 0. -1.
         -5    1    3    3    0  503  0.66195474553E+02 -0.28497291167E+02 -0.18581729006E+03  0.19935920279E+03  0.47000000000E+01 0.  1.
         13    1    4    4    0    0  0.82797820113E+01 -0.77706853230E+01 -0.15456930642E+03  0.15498583428E+03  0.00000000000E+00 0. -1.
        -14    1    4    4    0    0 -0.74796913587E+02 -0.10759295103E+02 -0.16891696881E+03  0.18504940709E+03  0.00000000000E+00 0.  1.
</event>
<event>
12    1  0.8052519E-002  0.1833235E+03  0.7818608E-02  0.1164688E+00
         21   -1    0    0  503  502  0.00000000000E+00  0.00000000000E+00  0.23781787153E+03  0.23781787153E+03  0.00000000000E+00 0.  1.
         21   -1    0    0  501  503 -0.00000000000E+00 -0.00000000000E+00 -0.30942980248E+03  0.30942980248E+03  0.00000000000E+00 0.  1.
          6    2    1    2  501    0 -0.19561877089E+02  0.60468358615E+02 -0.23760305494E+03  0.29994107263E+03  0.17166929227E+03 0.  0.
         24    2    3    3    0    0 -0.45719068321E+02  0.98238080276E+02 -0.15722869168E+03  0.20724329058E+03  0.80547913566E+02 0.  0.
         -6    2    1    2    0  502  0.19561877089E+02 -0.60468358615E+02  0.16599112399E+03  0.24730660137E+03  0.17195468127E+03 0.  0.
        -24    2    5    5    0    0 -0.35984991022E+02  0.12766518453E+02  0.10942878049E+03  0.13927794555E+03  0.77238491353E+02 0.  0.
          5    1    3    3  501    0  0.26157191232E+02 -0.37769721662E+02 -0.80374363260E+02  0.92697782050E+02  0.47000000000E+01 0. -1.
        -13    1    4    4    0    0 -0.58055246491E+02  0.30975248598E+02 -0.65663386245E+02  0.92959980443E+02  0.00000000000E+00 0.  1.
         14    1    4    4    0    0  0.12336178169E+02  0.67262831678E+02 -0.91565305433E+02  0.11428331014E+03  0.00000000000E+00 0. -1.
         -5    1    5    5    0  502  0.55546868111E+02 -0.73234877068E+02  0.56562343500E+02  0.10802865582E+03  0.47000000000E+01 0.  1.
         13    1    6    6    0    0 -0.21433958489E+02 -0.31739614876E+02  0.38645033462E+02  0.54408237798E+02  0.00000000000E+00 0. -1.
        -14    1    6    6    0    0 -0.14551032533E+02  0.44506133329E+02  0.70783747026E+02  0.84869707756E+02  0.00000000000E+00 0.  1.
</event>
<event>
12    1  0.8052519E-002  0.1946013E+03  0.7818608E-02  0.1154395E+00
         21   -1    0    0  503  502  0.00000000000E+00  0.00000000000E+00  0.11730777271E+03  0.11730777271E+03  0.00000000000E+00 0.  1.
         21   -1    0    0  501  503 -0.00000000000E+00 -0.00000000000E+00 -0.33350570192E+03  0.33350570192E+03  0.00000000000E+00 0.  1.
          6    2    1    2  501    0 -0.94153047450E+00  0.90917821636E+02 -0.67500235066E+02  0.20597558487E+03  0.17205441889E+03 0.  0.
         24    2    3    3    0    0  0.13930287876E+02  0.54330445736E+02  0.29181363555E+02  0.10143263404E+03  0.79316940284E+02 0.  0.
         -6    2    1    2    0  502  0.94153047450E+00 -0.90917821636E+02 -0.14869769415E+03  0.24483788975E+03  0.17195246798E+03 0.  0.
        -24    2    5    5    0    0 -0.15249509334E+02  0.11975792866E+02 -0.28228371839E+02  0.85513713016E+02  0.78356792861E+02 0.  0.
          5    1    3    3  501    0 -0.14871818350E+02  0.36587375900E+02 -0.96681598620E+02  0.10454295083E+03  0.47000000000E+01 0. -1.
        -13    1    4    4    0    0  0.63902388066E+01  0.65670204657E+02 -0.34533475072E+01  0.66070693508E+02  0.00000000000E+00 0.  1.
         14    1    4    4    0    0  0.75400490692E+01 -0.11339758921E+02  0.32634711062E+02  0.35361940535E+02  0.00000000000E+00 0. -1.
         -5    1    5    5    0  502  0.16191039809E+02 -0.10289361450E+03 -0.12046932231E+03  0.15932417674E+03  0.47000000000E+01 0.  1.
         11    1    6    6    0    0 -0.68911238897E+01  0.33984062454E+02 -0.44852722821E+02  0.56693657792E+02  0.00000000000E+00 0. -1.
        -12    1    6    6    0    0 -0.83583854446E+01 -0.22008269589E+02  0.16624350982E+02  0.28820055224E+02  0.00000000000E+00 0.  1.
</event>
<event>
12    1  0.8052519E-002  0.1736974E+03  0.7818608E-02  0.1174604E+00
         21   -1    0    0  503  502  0.00000000000E+00  0.00000000000E+00  0.45795345780E+03  0.45795345780E+03  0.00000000000E+00 0. -1.
         21   -1    0    0  501  503 -0.00000000000E+00 -0.00000000000E+00 -0.26154582873E+03  0.26154582873E+03  0.00000000000E+00 0. -1.
          6    2    1    2  501    0 -0.56733809855E+01 -0.54179790293E+01 -0.21345506265E+03  0.27519783911E+03  0.17352015770E+03 0.  0.
         24    2    3    3    0    0  0.42903201220E+02 -0.51778628128E+02 -0.14511827458E+03  0.17927599213E+03  0.80986768864E+02 0.  0.
         -6    2    1    2    0  502  0.56733809855E+01  0.54179790293E+01  0.40986269172E+03  0.44430144742E+03  0.17133244985E+03 0.  0.
        -24    2    5    5    0    0  0.23654912958E+02  0.24899696264E+02  0.40878272233E+03  0.41735466408E+03  0.76824812253E+02 0.  0.
          5    1    3    3  501    0 -0.48576582206E+02  0.46360649099E+02 -0.68336788072E+02  0.95921846978E+02  0.47000000000E+01 0. -1.
        -13    1    4    4    0    0 -0.14723385561E+02  0.11745829356E+02 -0.18967731075E+02  0.26730458502E+02  0.00000000000E+00 0.  1.
         14    1    4    4    0    0  0.57626586781E+02 -0.63524457484E+02 -0.12615054351E+03  0.15254553363E+03  0.00000000000E+00 0. -1.
         -5    1    5    5    0  502 -0.17981531973E+02 -0.19481717235E+02  0.10799693914E+01  0.26946783340E+02  0.47000000000E+01 0.  1.
         11    1    6    6    0    0 -0.11416453657E+02  0.38773305417E+02  0.13303607054E+03  0.13904064403E+03  0.00000000000E+00 0. -1.
        -12    1    6    6    0    0  0.35071366616E+02 -0.13873609154E+02  0.27574665179E+03  0.27831402006E+03  0.00000000000E+00 0.  1.
</event>
<event>
12    1  0.8052519E-002  0.1829398E+03  0.7818608E-02  0.1165361E+00
         21   -1    0    0  503  502  0.00000000000E+00  0.00000000000E+00  0.93748064637E+02  0.93748064637E+02  0.00000000000E+00 0. -1.
         21   -1    0    0  501  503 -0.00000000000E+00 -0.00000000000E+00 -0.64449323134E+03  0.64449323134E+03  0.00000000000E+00 0. -1.
          6    2    1    2  501    0 -0.53634512622E+02  0.33038752964E+02 -0.52386298811E+03  0.55488682703E+03  0.17175197337E+03 0.  0.
         24    2    3    3    0    0 -0.10295889681E+03  0.18236862023E+02 -0.36617458795E+03  0.38893589333E+03  0.79083390726E+02 0.  0.
         -6    2    1    2    0  502  0.53634512622E+02 -0.33038752964E+02 -0.26882178591E+02  0.18335446895E+03  0.17008230248E+03 0.  0.
        -24    2    5    5    0    0  0.83618021667E+02 -0.63535428246E+02 -0.33282266146E+01  0.13430412061E+03  0.83652827397E+02 0.  0.
          5    1    3    3  501    0  0.49324384190E+02  0.14801890941E+02 -0.15768840016E+03  0.16595093370E+03  0.47000000000E+01 0. -1.
        -13    1    4    4    0    0 -0.44473122764E+02 -0.18415036857E+02 -0.70860808615E+02  0.85663448614E+02  0.00000000000E+00 0.  1.
         14    1    4    4    0    0 -0.58485774048E+02  0.36651898880E+02 -0.29531377934E+03  0.30327244472E+03  0.00000000000E+00 0. -1.
         -5    1    5    5    0  502 -0.29983509046E+02  0.30496675282E+02 -0.23553951977E+02  0.49050348334E+02  0.47000000000E+01 0.  1.
         11    1    6    6    0    0  0.46782817679E+02  0.13648780026E+02 -0.57681855530E+00  0.48736577084E+02  0.00000000000E+00 0. -1.
        -12    1    6    6    0    0  0.36835203988E+02 -0.77184208272E+02 -0.27514080593E+01  0.85567543530E+02  0.00000000000E+00 0.  1.
</event>
<event>
12    1  0.8052519E-002  0.3492714E+03  0.7818608E-02  0.1063020E+00
         21   -1    0    0  501  502  0.00000000000E+00  0.00000000000E+00  0.13235195974E+04  0.13235195974E+04  0.00000000000E+00 0.  1.
         21   -1    0    0  502  503 -0.00000000000E+00 -0.00000000000E+00 -0.97740508542E+02  0.97740508542E+02  0.00000000000E+00 0.  1.
         -6    2    1    2    0  503  0.29843987053E+03  0.55583695791E+02  0.44005588099E+03  0.56181822453E+03  0.17272705481E+03 0.  0.
        -24    2    3    3    0    0  0.17346702731E+03  0.17779748598E+02  0.35910703645E+03  0.40812321682E+03  0.84851443426E+02 0.  0.
          6    2    1    2  501    0 -0.29843987053E+03 -0.55583695791E+02  0.78572320786E+03  0.85944188140E+03  0.17065604175E+03 0.  0.
         24    2    5    5    0    0 -0.16598778448E+03  0.35610092488E+02  0.38588953703E+03  0.42845589968E+03  0.76444096524E+02 0.  0.
          5    1    5    5  501    0 -0.13245208604E+03 -0.91193788278E+02  0.39983367083E+03  0.43098598173E+03  0.47000000000E+01 0. -1.
        -11    1    6    6    0    0 -0.13208883322E+03  0.39116988388E+02  0.36059897515E+03  0.38601712336E+03  0.00000000000E+00 0.  1.
         12    1    6    6    0    0 -0.33898951261E+02 -0.35068959001E+01  0.25290561875E+02  0.42438776318E+02  0.00000000000E+00 0. -1.
         -5    1    3    3    0  503  0.12497284321E+03  0.37803947193E+02  0.80948844544E+02  0.15369500772E+03  0.47000000000E+01 0.  1.
         11    1    4    4    0    0  0.50627209613E+02  0.77774862668E+01  0.20227264480E+03  0.20865719848E+03  0.00000000000E+00 0. -1.
        -12    1    4    4    0    0  0.12283981770E+03  0.10002262331E+02  0.15683439165E+03  0.19946601833E+03  0.00000000000E+00 0.  1.
</event>
<event>
12    1  0.8052519E-002  0.1746165E+03  0.7818608E-02  0.1176979E+00
         21   -1    0    0  503  502  0.00000000000E+00  0.00000000000E+00  0.60240763221E+02  0.60240763221E+02  0.00000000000E+00 0.  1.
         21   -1    0    0  501  503 -0.00000000000E+00 -0.00000000000E+00 -0.48393975357E+03  0.48393975357E+03  0.00000000000E+00 0.  1.
          6    2    1    2  501    0  0.18891262053E+02 -0.56830806335E+01 -0.27508437720E+03  0.32582562692E+03  0.17349855155E+03 0.  0.
         24    2    3    3    0    0  0.14111112615E+02  0.63487724551E+02 -0.16570973667E+03  0.19624031869E+03  0.82587718119E+02 0.  0.
         -6    2    1    2    0  502 -0.18891262053E+02  0.56830806335E+01 -0.14861461314E+03  0.21835488987E+03  0.15875571644E+03 0.  0.
        -24    2    5    5    0    0 -0.65759793086E+02 -0.22639132887E+01 -0.67824974302E+02  0.12449931114E+03  0.81057853693E+02 0.  0.
          5    1    3    3  501    0  0.47801494387E+01 -0.69170805184E+02 -0.10937464054E+03  0.12958530824E+03  0.47000000000E+01 0. -1.
        -11    1    4    4    0    0  0.24584250287E+02 -0.12933700735E+02 -0.38595692496E+02  0.47553059378E+02  0.00000000000E+00 0.  1.
         12    1    4    4    0    0 -0.10473137673E+02  0.76421425286E+02 -0.12711404417E+03  0.14868725931E+03  0.00000000000E+00 0. -1.
         -5    1    5    5    0  502  0.46868531033E+02  0.79469939223E+01 -0.80789638841E+02  0.93855578724E+02  0.47000000000E+01 0.  1.
         11    1    6    6    0    0 -0.72050705558E+01  0.14467560313E+02  0.14760732418E+02  0.21888411652E+02  0.00000000000E+00 0. -1.
        -12    1    6    6    0    0 -0.58554722530E+02 -0.16731473602E+02 -0.82585706720E+02  0.10261089949E+03  0.00000000000E+00 0.  1.
</event>
<event>
12    1  0.8052519E-002  0.1871415E+03  0.7818608E-02  0.1161367E+00
         21   -1    0    0  503  502  0.00000000000E+00  0.00000000000E+00  0.35938342500E+03  0.35938342500E+03  0.00000000000E+00 0. -1.
         21   -1    0    0  501  503 -0.00000000000E+00 -0.00000000000E+00 -0.97391903345E+02  0.97391903345E+02  0.00000000000E+00 0. -1.
          6    2    1    2  501    0 -0.64831435540E+02  0.37151923685E+02  0.11229963257E+03  0.21713057555E+03  0.17015022450E+03 0.  0.
         24    2    3    3    0    0 -0.12101741165E+01 -0.32781575527E+02  0.29220738466E+02  0.91183952486E+02  0.79903475638E+02 0.  0.
         -6    2    1    2    0  502  0.64831435540E+02 -0.37151923685E+02  0.14969188909E+03  0.23964475279E+03  0.17157670417E+03 0.  0.
        -24    2    5    5    0    0  0.12007916786E+02 -0.52452990583E+02  0.15787695935E+03  0.18384571913E+03  0.77321457962E+02 0.  0.
          5    1    3    3  501    0 -0.63621261424E+02  0.69933499212E+02  0.83078894100E+02  0.12594662307E+03  0.47000000000E+01 0. -1.
        -11    1    4    4    0    0  0.34317866577E+02 -0.12007245594E+02 -0.62021123544E+01  0.36883005718E+02  0.00000000000E+00 0.  1.
         12    1    4    4    0    0 -0.35528040693E+02 -0.20774329933E+02  0.35422850821E+02  0.54300946768E+02  0.00000000000E+00 0. -1.
         -5    1    5    5    0  502  0.52823518754E+02  0.15301066898E+02 -0.81850702680E+01  0.55799033657E+02  0.47000000000E+01 0.  1.
         13    1    6    6    0    0  0.40869933691E+02 -0.50758942996E+02  0.11361738621E+03  0.13097989244E+03  0.00000000000E+00 0. -1.
        -14    1    6    6    0    0 -0.28862016904E+02 -0.16940475870E+01  0.44259573140E+02  0.52865826689E+02  0.00000000000E+00 0.  1.
</event>
<event>
12    1  0.8052519E-002  0.1802807E+03  0.7818608E-02  0.1167831E+00
         21   -1    0    0  501  502  0.00000000000E+00  0.00000000000E+00  0.18373689566E+03  0.18373689566E+03  0.00000000000E+00 0.  1.
         21   -1    0    0  502  503 -0.00000000000E+00 -0.00000000000E+00 -0.17786303835E+03  0.17786303835E+03  0.00000000000E+00 0. -1.
         -6    2    1    2    0  503 -0.40465741705E+02 -0.28832583908E+02 -0.17103055935E+02  0.17986095170E+03  0.17201352643E+03 0.  0.
        -24    2    3    3    0    0 -0.68409349529E+02 -0.58941546248E+02 -0.46297385372E+02  0.12924678666E+03  0.80045855555E+02 0.  0.
          6    2    1    2  501    0  0.40465741705E+02  0.28832583908E+02  0.22976913246E+02  0.18173898232E+03  0.17329836988E+03 0.  0.
         24    2    5    5    0    0  0.11617167771E+02  0.62710134551E+02  0.64453199293E+02  0.12072831964E+03  0.79709426685E+02 0.  0.
          5    1    5    5  501    0  0.28848573935E+02 -0.33877550643E+02 -0.41476286047E+02  0.61010662673E+02  0.47000000000E+01 0. -1.
        -11    1    6    6    0    0 -0.20883958047E+02  0.26950859789E+00  0.41889629893E+02  0.46807621508E+02  0.00000000000E+00 0.  1.
         12    1    6    6    0    0  0.32501125818E+02  0.62440625953E+02  0.22563569400E+02  0.73920698136E+02  0.00000000000E+00 0. -1.
         -5    1    3    3    0  503  0.27943607824E+02  0.30108962340E+02  0.29194329437E+02  0.50614165040E+02  0.47000000000E+01 0.  1.
         11    1    4    4    0    0 -0.16170982234E+02 -0.44587183675E+02 -0.56867901874E+02  0.74050495461E+02  0.00000000000E+00 0. -1.
        -12    1    4    4    0    0 -0.52238367295E+02 -0.14354362573E+02  0.10570516502E+02  0.55196291194E+02  0.00000000000E+00 0.  1.
</event>
<event>
12    1  0.8052519E-002  0.2223423E+03  0.7818608E-02  0.1133438E+00
         21   -1    0    0  501  502  0.00000000000E+00  0.00000000000E+00  0.33509479602E+03  0.33509479602E+03  0.00000000000E+00 0. -1.
         21   -1    0    0  502  503 -0.00000000000E+00 -0.00000000000E+00 -0.21776833049E+03  0.21776833049E+03  0.00000000000E+00 0.  1.
         -6    2    1    2    0  503  0.45791433691E+02  0.12131152035E+03 -0.10270319601E+03  0.24491640216E+03  0.18061771012E+03 0.  0.
        -24    2    3    3    0    0 -0.93419896457E+01  0.11520179037E+02 -0.91357885426E+02  0.12144721950E+03  0.78633177470E+02 0.  0.
          6    2    1    2  501    0 -0.45791433691E+02 -0.12131152035E+03  0.22002966155E+03  0.30794672435E+03  0.17206043331E+03 0.  0.
         24    2    5    5    0    0 -0.48691646529E+02 -0.66745273170E+02  0.42628021345E+02  0.12226064918E+03  0.79402205274E+02 0.  0.
          5    1    5    5  501    0  0.29002128376E+01 -0.54566247176E+02  0.17740164020E+03  0.18568607517E+03  0.47000000000E+01 0. -1.
        -11    1    6    6    0    0  0.15120553433E+02 -0.14370837746E+02 -0.11231016812E+02  0.23691514352E+02  0.00000000000E+00 0.  1.
         12    1    6    6    0    0 -0.63812199962E+02 -0.52374435423E+02  0.53859038157E+02  0.98569134830E+02  0.00000000000E+00 0. -1.
         -5    1    3    3    0  503  0.55133423337E+02  0.10979134131E+03 -0.11345310582E+02  0.12346918266E+03  0.47000000000E+01 0.  1.
         11    1    4    4    0    0 -0.17636308225E+02 -0.19195893103E+01  0.89732228259E+01  0.19880717261E+02  0.00000000000E+00 0. -1.
        -12    1    4    4    0    0  0.82943185792E+01  0.13439768348E+02 -0.10033110825E+03  0.10156650224E+03  0.00000000000E+00 0.  1.
</event>
<event>
12    1  0.8052519E-002  0.1875294E+03  0.7818608E-02  0.1160795E+00
         21   -1    0    0  503  502  0.00000000000E+00  0.00000000000E+00  0.86150630908E+02  0.86150630908E+02  0.00000000000E+00 0. -1.
         21   -1    0    0  501  503 -0.00000000000E+00 -0.00000000000E+00 -0.77723611358E+03  0.77723611358E+03  0.00000000000E+00 0. -1.
          6    2    1    2  501    0 -0.62602210772E+02 -0.38825749663E+02 -0.64351349876E+03  0.67028120089E+03  0.17245518131E+03 0.  0.
         24    2    3    3    0    0 -0.71305267002E+02  0.33312187676E+02 -0.45112707136E+03  0.46457691645E+03  0.78242787759E+02 0.  0.
         -6    2    1    2    0  502  0.62602210772E+02  0.38825749663E+02 -0.47571983913E+02  0.19310554359E+03  0.17204703334E+03 0.  0.
        -24    2    5    5    0    0  0.70235810635E+02  0.82973623898E+02 -0.12138704948E+02  0.13579137515E+03  0.80462774302E+02 0.  0.
          5    1    3    3  501    0  0.87030562297E+01 -0.72137937339E+02 -0.19238642740E+03  0.20570428445E+03  0.47000000000E+01 0. -1.
        -13    1    4    4    0    0 -0.85903403376E+02  0.28856088282E+02 -0.42276946116E+03  0.43237262382E+03  0.00000000000E+00 0.  1.
         14    1    4    4    0    0  0.14598136375E+02  0.44560993943E+01 -0.28357610198E+02  0.32204292626E+02  0.00000000000E+00 0. -1.
         -5    1    5    5    0  502 -0.76335998628E+01 -0.44147874235E+02 -0.35433278965E+02  0.57314168444E+02  0.47000000000E+01 0.  1.
         11    1    6    6    0    0  0.10060267125E+02  0.39814771183E+02  0.29752298755E+02  0.50711184764E+02  0.00000000000E+00 0. -1.
        -12    1    6    6    0    0  0.60175543510E+02  0.43158852715E+02 -0.41891003704E+02  0.85080190383E+02  0.00000000000E+00 0.  1.
</event>
<event>
12    1  0.8052519E-002  0.2031303E+03  0.7818608E-02  0.1147285E+00
         21   -1    0    0  503  502  0.00000000000E+00  0.00000000000E+00  0.28348184527E+03  0.28348184527E+03  0.00000000000E+00 0. -1.
         21   -1    0    0  501  503 -0.00000000000E+00 -0.00000000000E+00 -0.14977684307E+03  0.14977684307E+03  0.00000000000E+00 0.  1.
          6    2    1    2  501    0  0.72218383704E+02  0.78145190852E+02  0.28281129735E+02  0.20508958748E+03  0.17303106888E+03 0.  0.
         24    2    3    3    0    0  0.10010451551E+03  0.43860499508E+02 -0.12747074694E+02  0.14460421763E+03  0.93825553014E+02 0.  0.
         -6    2    1    2    0  502 -0.72218383704E+02 -0.78145190852E+02  0.10542387246E+03  0.22816910086E+03  0.17211850540E+03 0.  0.
        -24    2    5    5    0    0  0.18840636326E+02 -0.44882935184E+02  0.85621431171E+02  0.12911179693E+03  0.83482807702E+02 0.  0.
          5    1    3    3  501    0 -0.27886131811E+02  0.34284691344E+02  0.41028204429E+02  0.60485369856E+02  0.47000000000E+01 0. -1.
        -13    1    4    4    0    0  0.89642983740E+02  0.57105948575E+02  0.19636645645E+02  0.10808585360E+03  0.00000000000E+00 0.  1.
         14    1    4    4    0    0  0.10461531775E+02 -0.13245449067E+02 -0.32383720339E+02  0.36518364025E+02  0.00000000000E+00 0. -1.
         -5    1    5    5    0  502 -0.91059020029E+02 -0.33262255668E+02  0.19802441291E+02  0.99057303930E+02  0.47000000000E+01 0.  1.
         11    1    6    6    0    0 -0.26952876403E+02  0.12376256371E+01  0.44997520859E+02  0.52466809957E+02  0.00000000000E+00 0. -1.
        -12    1    6    6    0    0  0.45793512729E+02 -0.46120560821E+02  0.40623910312E+02  0.76644986969E+02  0.00000000000E+00 0.  1.
</event>
<event>
12    1  0.8052519E-002  0.2271575E+03  0.7818608E-02  0.1128758E+00
         21   -1    0    0  503  502  0.00000000000E+00  0.00000000000E+00  0.16152481610E+04  0.16152481610E+04  0.00000000000E+00 0. -1.
         21   -1    0    0  501  503 -0.00000000000E+00 -0.00000000000E+00 -0.61866446787E+02  0.61866446787E+02  0.00000000000E+00 0.  1.
          6    2    1    2  501    0 -0.11788076180E+03  0.88826704518E+02  0.19325229735E+03  0.29823977280E+03  0.17266862544E+03 0.  0.
         24    2    3    3    0    0 -0.33112382755E+02  0.56708858000E+02  0.25636265688E+02  0.10762377604E+03  0.81322411328E+02 0.  0.
         -6    2    1    2    0  502  0.11788076180E+03 -0.88826704518E+02  0.13601294169E+04  0.13788748350E+04  0.17192359492E+03 0.  0.
        -24    2    5    5    0    0  0.62759384844E+02 -0.11483464864E+03  0.10739856254E+04  0.10862741878E+04  0.97060550867E+02 0.  0.
          5    1    3    3  501    0 -0.84768379048E+02  0.32117846518E+02  0.16761603166E+03  0.19061599676E+03  0.47000000000E+01 0. -1.
        -13    1    4    4    0    0 -0.12399231640E+02 -0.19783258513E+02  0.14789918137E+02  0.27638016230E+02  0.00000000000E+00 0.  1.
         14    1    4    4    0    0 -0.20713151115E+02  0.76492116514E+02  0.10846347552E+02  0.79985759814E+02  0.00000000000E+00 0. -1.
         -5    1    5    5    0  502  0.55121376959E+02  0.26007944127E+02  0.28614379148E+03  0.29260064723E+03  0.47000000000E+01 0.  1.
         11    1    6    6    0    0  0.67884592333E+02 -0.12997321878E+03  0.94659691852E+03  0.95788677913E+03  0.00000000000E+00 0. -1.
        -12    1    6    6    0    0 -0.51252074893E+01  0.15138570132E+02  0.12738870688E+03  0.12838740864E+03  0.00000000000E+00 0.  1.
</event>
<event>
12    1  0.8052519E-002  0.3592642E+03  0.7818608E-02  0.1059310E+00
         21   -1    0    0  501  502  0.00000000000E+00  0.00000000000E+00  0.36120312071E+03  0.36120312071E+03  0.00000000000E+00 0. -1.
         21   -1    0    0  502  503 -0.00000000000E+00 -0.00000000000E+00 -0.72887537234E+03  0.72887537234E+03  0.00000000000E+00 0.  1.
         -6    2    1    2    0  503  0.17518977509E+03 -0.25636857383E+03 -0.57468059951E+03  0.67544224269E+03  0.17189569164E+03 0.  0.
        -24    2    3    3    0    0  0.49098917184E+02 -0.87349821972E+02 -0.12708079281E+03  0.18063529054E+03  0.80242664598E+02 0.  0.
          6    2    1    2  501    0 -0.17518977509E+03  0.25636857383E+03  0.20700834788E+03  0.41463625035E+03  0.18070545390E+03 0.  0.
         24    2    5    5    0    0 -0.14561209963E+03  0.10490791954E+03  0.71485070660E+02  0.20920057343E+03  0.80288289650E+02 0.  0.
          5    1    5    5  501    0 -0.29577675459E+02  0.15146065429E+03  0.13552327722E+03  0.20543567692E+03  0.47000000000E+01 0. -1.
        -11    1    6    6    0    0 -0.13310232576E+03  0.11794808219E+03  0.69807220698E+02  0.19105242023E+03  0.00000000000E+00 0.  1.
         12    1    6    6    0    0 -0.12509773872E+02 -0.13040162645E+02  0.16778499621E+01  0.18148153202E+02  0.00000000000E+00 0. -1.
         -5    1    3    3    0  503  0.12609085790E+03 -0.16901875186E+03 -0.44759980670E+03  0.49480695214E+03  0.47000000000E+01 0.  1.
         13    1    4    4    0    0  0.46739587152E+01 -0.80840150533E+02 -0.98066352869E+02  0.12717698453E+03  0.00000000000E+00 0. -1.
        -14    1    4    4    0    0  0.44424958469E+02 -0.65096714389E+01 -0.29014439940E+02  0.53458306017E+02  0.00000000000E+00 0.  1.
</event>
<event>
12    1  0.8052519E-002  0.2654662E+03  0.7818608E-02  0.1103929E+00
         21   -1    0    0  501  502  0.00000000000E+00  0.00000000000E+00  0.35272522384E+03  0.35272522384E+03  0.00000000000E+00 0.  1.
         21   -1    0    0  502  503 -0.00000000000E+00 -0.00000000000E+00 -0.20121069306E+03  0.20121069306E+03  0.00000000000E+00 0. -1.
         -6    2    1    2    0  503  0.94281695046E+02 -0.17924713756E+03  0.10005909328E+03  0.28352890716E+03  0.17134247781E+03 0.  0.
        -24    2    3    3    0    0  0.47028068307E+02 -0.47589365359E+02 -0.12128718232E+02  0.10415536041E+03  0.78897695736E+02 0.  0.
          6    2    1    2  501    0 -0.94281695046E+02  0.17924713756E+03  0.51455437500E+02  0.27040700975E+03  0.17162084526E+03 0.  0.
         24    2    5    5    0    0  0.29545635171E+01  0.13622169078E+03  0.42754736196E+02  0.16361809996E+03  0.79861359138E+02 0.  0.
          5    1    5    5  501    0 -0.97236258563E+02  0.43025446775E+02  0.87007013042E+01  0.10678890978E+03  0.47000000000E+01 0. -1.
        -11    1    6    6    0    0  0.21334266587E+02  0.49297199033E+02  0.51407745166E+02  0.74351335067E+02  0.00000000000E+00 0.  1.
         12    1    6    6    0    0 -0.18379703070E+02  0.86924491748E+02 -0.86530089700E+01  0.89266764895E+02  0.00000000000E+00 0. -1.
         -5    1    3    3    0  503  0.47253626739E+02 -0.13165777220E+03  0.11218781151E+03  0.17937354675E+03  0.47000000000E+01 0.  1.
         13    1    4    4    0    0  0.67510437280E+02 -0.22747986603E+02 -0.90305541854E+01  0.71810033736E+02  0.00000000000E+00 0. -1.
        -14    1    4    4    0    0 -0.20482368973E+02 -0.24841378755E+02 -0.30981640463E+01  0.32345326674E+02  0.00000000000E+00 0.  1.
</event>
<event>
12    1  0.8052519E-002  0.1913451E+03  0.7818608E-02  0.1157815E+00
         21   -1    0    0  501  502  0.00000000000E+00  0.00000000000E+00  0.26322452929E+03  0.26322452929E+03  0.00000000000E+00 0.  1.
         21   -1    0    0  502  503 -0.00000000000E+00 -0.00000000000E+00 -0.14932304401E+03  0.14932304401E+03  0.00000000000E+00 0. -1.
         -6    2    1    2    0  503 -0.69943667150E+02  0.27817557609E+02 -0.19565084491E+01  0.18886025591E+03  0.17320056365E+03 0.  0.
        -24    2    3    3    0    0 -0.53496892568E+02  0.22160801165E+02 -0.67517017887E+02  0.12086933235E+03  0.81840266231E+02 0.  0.
          6    2    1    2  501    0  0.69943667150E+02 -0.27817557609E+02  0.11585799373E+03  0.22368731739E+03  0.17591761755E+03 0.  0.
         24    2    5    5    0    0  0.10729269202E+03  0.13468334701E+02  0.72463923186E+02  0.15294404972E+03  0.80297847918E+02 0.  0.
          5    1    5    5  501    0 -0.37349024872E+02 -0.41285892310E+02  0.43394070546E+02  0.70743267674E+02  0.47000000000E+01 0. -1.
        -13    1    6    6    0    0  0.18184783462E+02 -0.19356763446E+02  0.48038583268E+02  0.54891494086E+02  0.00000000000E+00 0.  1.
         14    1    6    6    0    0  0.89107908559E+02  0.32825098146E+02  0.24425339919E+02  0.98052555634E+02  0.00000000000E+00 0. -1.
         -5    1    3    3    0  503 -0.16446774582E+02  0.56567564439E+01  0.65560509438E+02  0.67990923552E+02  0.47000000000E+01 0.  1.
         13    1    4    4    0    0 -0.35279693895E+02  0.20464637015E+02  0.93595005126E+01  0.41845649945E+02  0.00000000000E+00 0. -1.
        -14    1    4    4    0    0 -0.18217198672E+02  0.16961641508E+01 -0.76876518400E+02  0.79023682410E+02  0.00000000000E+00 0.  1.
</event>
<event>
12    1  0.8052519E-002  0.2405516E+03  0.7818608E-02  0.1119933E+00
         21   -1    0    0  503  502  0.00000000000E+00  0.00000000000E+00  0.22395106193E+03  0.22395106193E+03  0.00000000000E+00 0. -1.
         21   -1    0    0  501  503 -0.00000000000E+00 -0.00000000000E+00 -0.39723569852E+03  0.39723569852E+03  0.00000000000E+00 0. -1.
          6    2    1    2  501    0 -0.15396554558E+03 -0.62926349921E+02 -0.27205124032E+03  0.36114843085E+03  0.16956177930E+03 0.  0.
         24    2    3    3    0    0 -0.25204099023E+02 -0.67649312013E+02 -0.13785537453E+03  0.17505050801E+03  0.80167948969E+02 0.  0.
         -6    2    1    2    0  502  0.15396554558E+03  0.62926349921E+02  0.98766603733E+02  0.26003832961E+03  0.17378140325E+03 0.  0.
        -24    2    5    5    0    0  0.38075503601E+02 -0.25332556896E+02  0.54254441644E+02  0.10764555079E+03  0.80947747060E+02 0.  0.
          5    1    3    3  501    0 -0.12876144656E+03  0.47229620914E+01 -0.13419586579E+03  0.18609792284E+03  0.47000000000E+01 0. -1.
        -13    1    4    4    0    0  0.13245285488E+02 -0.20826339560E+02 -0.10135847299E+03  0.10432024757E+03  0.00000000000E+00 0.  1.
         14    1    4    4    0    0 -0.38449384511E+02 -0.46822972453E+02 -0.36496901548E+02  0.70730260435E+02  0.00000000000E+00 0. -1.
         -5    1    5    5    0  502  0.11589004198E+03  0.88258906817E+02  0.44512162089E+02  0.15239277882E+03  0.47000000000E+01 0.  1.
         13    1    6    6    0    0  0.17719079230E+02  0.26658127286E+02  0.37601662212E+02  0.49381236521E+02  0.00000000000E+00 0. -1.
        -14    1    6    6    0    0  0.20356424371E+02 -0.51990684182E+02  0.16652779432E+02  0.58264314273E+02  0.00000000000E+00 0.  1.
</event>
<event>
12    1  0.8052519E-002  0.2147177E+03  0.7818608E-02  0.1137884E+00
         21   -1    0    0  501  502  0.00000000000E+00  0.00000000000E+00  0.11912862986E+03  0.11912862986E+03  0.00000000000E+00 0.  1.
         21   -1    0    0  502  503 -0.00000000000E+00 -0.00000000000E+00 -0.57913610298E+03  0.57913610298E+03  0.00000000000E+00 0. -1.
         -6    2    1    2    0  503 -0.12654732424E+03 -0.24510025510E+02 -0.43110014142E+03  0.48161295658E+03  0.17172286217E+03 0.  0.
        -24    2    3    3    0    0 -0.60968409990E+02  0.52081199960E+02 -0.20650036658E+03  0.23537331990E+03  0.79552497876E+02 0.  0.
          6    2    1    2  501    0  0.12654732424E+03  0.24510025510E+02 -0.28907331703E+02  0.21665177626E+03  0.17171893229E+03 0.  0.
         24    2    5    5    0    0  0.65752015224E+02  0.28119495371E+02  0.44229119726E+02  0.12136206853E+03  0.87512874025E+02 0.  0.
          5    1    5    5  501    0  0.60795309020E+02 -0.36094698611E+01 -0.73136451429E+02  0.95289707729E+02  0.47000000000E+01 0. -1.
        -11    1    6    6    0    0  0.28572183533E+02 -0.16881289827E+02  0.52799812567E+02  0.62363192872E+02  0.00000000000E+00 0.  1.
         12    1    6    6    0    0  0.37179831691E+02  0.45000785199E+02 -0.85706928410E+01  0.58998875658E+02  0.00000000000E+00 0. -1.
         -5    1    3    3    0  503 -0.65578914255E+02 -0.76591225471E+02 -0.22459977484E+03  0.24623963668E+03  0.47000000000E+01 0.  1.
         13    1    4    4    0    0 -0.19615938726E+02  0.43750266190E+02 -0.17829455923E+03  0.18462887286E+03  0.00000000000E+00 0. -1.
        -14    1    4    4    0    0 -0.41352471264E+02  0.83309337703E+01 -0.28205807352E+02  0.50744447041E+02  0.00000000000E+00 0.  1.
</event>
<event>
12    1  0.8052519E-002  0.2701957E+03  0.7818608E-02  0.1101304E+00
         21   -1    0    0  503  502  0.00000000000E+00  0.00000000000E+00  0.19194640647E+03  0.19194640647E+03  0.00000000000E+00 0.  1.
         21   -1    0    0  501  503 -0.00000000000E+00 -0.00000000000E+00 -0.52964173958E+03  0.52964173958E+03  0.00000000000E+00 0. -1.
          6    2    1    2  501    0 -0.54651559688E+02  0.20046396221E+03  0.23349456651E+02  0.27120273855E+03  0.17272271174E+03 0.  0.
         24    2    3    3    0    0  0.20667327048E+02  0.37415495385E+02  0.24171333866E+02  0.91534982078E+02  0.77248571903E+02 0.  0.
         -6    2    1    2    0  502  0.54651559688E+02 -0.20046396221E+03 -0.36104478976E+03  0.45038540750E+03  0.17123399765E+03 0.  0.
        -24    2    5    5    0    0  0.48407493981E+02 -0.22165334075E+03 -0.29739057680E+03  0.38284336913E+03  0.81574513019E+02 0.  0.
          5    1    3    3  501    0 -0.75318886736E+02  0.16304846683E+03 -0.82187721529E+00  0.17966775647E+03  0.47000000000E+01 0. -1.
        -13    1    4    4    0    0  0.47201947167E+01  0.59737000191E+02  0.10326395194E+02  0.60806445939E+02  0.00000000000E+00 0.  1.
         14    1    4    4    0    0  0.15947132331E+02 -0.22321504807E+02  0.13844938672E+02  0.30728536139E+02  0.00000000000E+00 0. -1.
         -5    1    5    5    0  502  0.62440657078E+01  0.21189378540E+02 -0.63654212964E+02  0.67542038372E+02  0.47000000000E+01 0.  1.
         13    1    6    6    0    0 -0.55379980879E+01 -0.13628501889E+03 -0.20331185695E+03  0.24482644256E+03  0.00000000000E+00 0. -1.
        -14    1    6    6    0    0  0.53945492068E+02 -0.85368321860E+02 -0.94078719848E+02  0.13801692657E+03  0.00000000000E+00 0.  1.
</event>
<event>
12    1  0.8052519E-002  0.2148660E+03  0.7818608E-02  0.1140044E+00
         21   -1    0    0  503  502  0.00000000000E+00  0.00000000000E+00  0.25039373037E+03  0.25039373037E+03  0.00000000000E+00 0.  1.
         21   -1    0    0  501  503 -0.00000000000E+00 -0.00000000000E+00 -0.18673254953E+03  0.18673254953E+03  0.00000000000E+00 0. -1.
          6    2    1    2  501    0  0.86573504533E+02  0.64569537990E+02 -0.22933047148E+02  0.21608639101E+03  0.18575038844E+03 0.  0.
         24    2    3    3    0    0 -0.29005173453E+02  0.13612724902E+02  0.72704447571E+01  0.86127287722E+02  0.79614345172E+02 0.  0.
         -6    2    1    2    0  502 -0.86573504533E+02 -0.64569537990E+02  0.86594227987E+02  0.22103988889E+03  0.17232491182E+03 0.  0.
        -24    2    5    5    0    0 -0.49975828786E+02 -0.75219269380E+02  0.12049836969E+03  0.16981111305E+03  0.78488439076E+02 0.  0.
          5    1    3    3  501    0  0.11557867799E+03  0.50956813088E+02 -0.30203491905E+02  0.12995910329E+03  0.47000000000E+01 0. -1.
        -11    1    4    4    0    0 -0.29085415281E+02  0.33323904337E+02  0.31933942860E+02  0.54554749462E+02  0.00000000000E+00 0.  1.
         12    1    4    4    0    0  0.80241827957E-01 -0.19711179435E+02 -0.24663498103E+02  0.31572538260E+02  0.00000000000E+00 0. -1.
         -5    1    5    5    0  502 -0.36597675747E+02  0.10649731390E+02 -0.33904141706E+02  0.51228775835E+02  0.47000000000E+01 0.  1.
         11    1    6    6    0    0 -0.44412280053E+02 -0.13014886585E+02  0.87955744386E+02  0.99388383943E+02  0.00000000000E+00 0. -1.
        -12    1    6    6    0    0 -0.55635487335E+01 -0.62204382794E+02  0.32542625306E+02  0.70422729109E+02  0.00000000000E+00 0.  1.
</event>
<event>
12    1  0.8052519E-002  0.2293579E+03  0.7818608E-02  0.1127251E+00
         21   -1    0    0  503  502  0.00000000000E+00  0.00000000000E+00  0.13047216037E+03  0.13047216037E+03  0.00000000000E+00 0. -1.
         21   -1    0    0  501  503 -0.00000000000E+00 -0.00000000000E+00 -0.44190677136E+03  0.44190677136E+03  0.00000000000E+00 0. -1.
          6    2    1    2  501    0 -0.13130413940E+03 -0.77118181817E+02 -0.24185730401E+03  0.33269988386E+03  0.17031226096E+03 0.  0.
         24    2    3    3    0    0 -0.66151483136E+02 -0.67606371314E+01 -0.20495906243E+03  0.22984745101E+03  0.79999428300E+02 0.  0.
         -6    2    1    2    0  502  0.13130413940E+03  0.77118181817E+02 -0.69577306985E+02  0.23967904787E+03  0.17151400336E+03 0.  0.
        -24    2    5    5    0    0  0.18214845012E+02  0.47922298723E+02  0.14600229835E+02  0.95632056226E+02  0.79397708865E+02 0.  0.
          5    1    3    3  501    0 -0.65152656267E+02 -0.70357544685E+02 -0.36898241576E+02  0.10285243285E+03  0.47000000000E+01 0. -1.
        -11    1    4    4    0    0 -0.18369950367E+02  0.16323007658E+02 -0.79673813687E+01  0.25833598692E+02  0.00000000000E+00 0.  1.
         12    1    4    4    0    0 -0.47781532769E+02 -0.23083644790E+02 -0.19699168106E+03  0.20401385232E+03  0.00000000000E+00 0. -1.
         -5    1    5    5    0  502  0.11308929439E+03  0.29195883094E+02 -0.84177536820E+02  0.14404699164E+03  0.47000000000E+01 0.  1.
         11    1    6    6    0    0  0.24148224710E+02 -0.88771872329E+01  0.26890346822E+02  0.37216017546E+02  0.00000000000E+00 0. -1.
        -12    1    6    6    0    0 -0.59333796975E+01  0.56799485956E+02 -0.12290116987E+02  0.58416038680E+02  0.00000000000E+00 0.  1.
</event>
<event>
12    1  0.8052519E-002  0.2654575E+03  0.7818608E-02  0.1104025E+00
         21   -1    0    0  503  502  0.00000000000E+00  0.00000000000E+00  0.29705148501E+03  0.29705148501E+03  0.00000000000E+00 0. -1.
         21   -1    0    0  501  503 -0.00000000000E+00 -0.00000000000E+00 -0.29185607947E+03  0.29185607947E+03  0.00000000000E+00 0. -1.
          6    2    1    2  501    0 -0.61323347695E+02 -0.19214242180E+03  0.13082214934E+03  0.29522442258E+03  0.17135857639E+03 0.  0.
         24    2    3    3    0    0 -0.31929480708E+02 -0.33990115883E+02  0.86175226565E+02  0.12821667127E+03  0.82695377158E+02 0.  0.
         -6    2    1    2    0  502  0.61323347695E+02  0.19214242180E+03 -0.12562674380E+03  0.29368314190E+03  0.17259329608E+03 0.  0.
        -24    2    5    5    0    0 -0.67113665769E+01  0.32183459929E+02 -0.70220709379E+02  0.11117968857E+03  0.79681601326E+02 0.  0.
          5    1    3    3  501    0 -0.29393866987E+02 -0.15815230592E+03  0.44646922770E+02  0.16700775131E+03  0.47000000000E+01 0. -1.
        -11    1    4    4    0    0 -0.14202592549E+02  0.11858980432E+02 -0.93907103316E+01  0.20749325111E+02  0.00000000000E+00 0.  1.
         12    1    4    4    0    0 -0.17726888159E+02 -0.45849096315E+02  0.95565936896E+02  0.10746734616E+03  0.00000000000E+00 0. -1.
         -5    1    5    5    0  502  0.68034714272E+02  0.15995896187E+03 -0.55406034420E+02  0.18250345334E+03  0.47000000000E+01 0.  1.
         13    1    6    6    0    0 -0.20652931867E+02  0.31469354258E+02 -0.83699902731E+02  0.91774384058E+02  0.00000000000E+00 0. -1.
        -14    1    6    6    0    0  0.13941565290E+02  0.71410567032E+00  0.13479193352E+02  0.19405304509E+02  0.00000000000E+00 0.  1.
</event>
<event>
12    1  0.8052519E-002  0.2288214E+03  0.7818608E-02  0.1127641E+00
         21   -1    0    0  503  502  0.00000000000E+00  0.00000000000E+00  0.98866545340E+02  0.98866545340E+02  0.00000000000E+00 0. -1.
         21   -1    0    0  501  503 -0.00000000000E+00 -0.00000000000E+00 -0.59203409569E+03  0.59203409569E+03  0.00000000000E+00 0.  1.
          6    2    1    2  501    0  0.13099441784E+03 -0.71207168510E+02 -0.13198326557E+03  0.26333392005E+03  0.17232287343E+03 0.  0.
         24    2    3    3    0    0  0.26331343585E+02  0.12631323364E+02 -0.14239232503E+02  0.84815015859E+02  0.78345013804E+02 0.  0.
         -6    2    1    2    0  502 -0.13099441784E+03  0.71207168510E+02 -0.36118428478E+03  0.42756672097E+03  0.17357769142E+03 0.  0.
        -24    2    5    5    0    0  0.91367041019E+01  0.35367879267E+02 -0.14236599166E+03  0.16522205952E+03  0.75471101255E+02 0.  0.
          5    1    3    3  501    0  0.10466307426E+03 -0.83838491874E+02 -0.11774403307E+03  0.17851890419E+03  0.47000000000E+01 0. -1.
        -11    1    4    4    0    0  0.23852428963E+02  0.17338054372E+02  0.28935645393E+02  0.41313654779E+02  0.00000000000E+00 0.  1.
         12    1    4    4    0    0  0.24789146216E+01 -0.47067310077E+01 -0.43174877896E+02  0.43501361080E+02  0.00000000000E+00 0. -1.
         -5    1    5    5    0  502 -0.14013112194E+03  0.35839289242E+02 -0.21881829312E+03  0.26234466146E+03  0.47000000000E+01 0.  1.
         13    1    6    6    0    0  0.70337814673E+01 -0.10163074134E+02  0.31332701067E+01  0.12750668184E+02  0.00000000000E+00 0. -1.
        -14    1    6    6    0    0  0.21029226346E+01  0.45530953401E+02 -0.14549926176E+03  0.15247139133E+03  0.00000000000E+00 0.  1.
</event>
<event>
12    1  0.8052519E-002  0.2361293E+03  0.7818608E-02  0.1122686E+00
         21   -1    0    0  503  502  0.00000000000E+00  0.00000000000E+00  0.78410656836E+03  0.78410656836E+03  0.00000000000E+00 0. -1.
         21   -1    0    0  501  503 -0.00000000000E+00 -0.00000000000E+00 -0.16477211423E+03  0.16477211423E+03  0.00000000000E+00 0. -1.
          6    2    1    2  501    0 -0.46363092132E+02 -0.15496716690E+03 -0.48525930063E+02  0.24106396213E+03  0.17202531448E+03 0.  0.
         24    2    3    3    0    0 -0.76479523655E+02 -0.40304723805E+02 -0.27176990217E+02  0.12051379608E+03  0.79444307209E+02 0.  0.
         -6    2    1    2    0  502  0.46363092132E+02  0.15496716690E+03  0.66786038420E+03  0.70781472045E+03  0.16970511653E+03 0.  0.
        -24    2    5    5    0    0  0.94119932716E+02  0.86473367015E+02  0.44527454398E+03  0.47003612025E+03  0.79550800699E+02 0.  0.
          5    1    3    3  501    0  0.30116431523E+02 -0.11466244309E+03 -0.21348939847E+02  0.12055016606E+03  0.47000000000E+01 0. -1.
        -13    1    4    4    0    0  0.16453042836E+02 -0.82341450357E+01  0.41971176787E+00  0.18403258434E+02  0.00000000000E+00 0.  1.
         14    1    4    4    0    0 -0.92932566491E+02 -0.32070578770E+02 -0.27596701985E+02  0.10211053764E+03  0.00000000000E+00 0. -1.
         -5    1    5    5    0  502 -0.47756840584E+02  0.68493799885E+02  0.22258584022E+03  0.23777860020E+03  0.47000000000E+01 0.  1.
         13    1    6    6    0    0  0.55976989698E+02  0.95839950861E+02  0.31586048471E+03  0.33479331738E+03  0.00000000000E+00 0. -1.
        -14    1    6    6    0    0  0.38142943017E+02 -0.93665838459E+01  0.12941405926E+03  0.13524280288E+03  0.00000000000E+00 0.  1.
</event>
<event>
12    1  0.8052519E-002  0.2227347E+03  0.7818608E-02  0.1133583E+00
         21   -1    0    0  503  502  0.00000000000E+00  0.00000000000E+00  0.45714609149E+03  0.45714609149E+03  0.00000000000E+00 0.  1.
         21   -1    0    0  501  503 -0.00000000000E+00 -0.00000000000E+00 -0.10556682414E+03  0.10556682414E+03  0.00000000000E+00 0. -1.
          6    2    1    2  501    0 -0.13367736584E+03  0.17496182286E+02  0.13891752469E+03  0.25475872311E+03  0.16561453379E+03 0.  0.
         24    2    3    3    0    0 -0.13734853430E+03 -0.29984083986E+02  0.12605400645E+03  0.20520659636E+03  0.80352159174E+02 0.  0.
         -6    2    1    2    0  502  0.13367736584E+03 -0.17496182286E+02  0.21266174265E+03  0.30795419253E+03  0.17729921989E+03 0.  0.
        -24    2    5    5    0    0  0.14936729003E+03  0.26451851984E+02  0.13604468369E+03  0.21812175316E+03  0.77837365306E+02 0.  0.
          5    1    3    3  501    0  0.36711684593E+01  0.47480266272E+02  0.12863518241E+02  0.49552126742E+02  0.47000000000E+01 0. -1.
        -13    1    4    4    0    0 -0.40910023532E+00 -0.62976909117E+01  0.42677297212E+02  0.43141395100E+02  0.00000000000E+00 0.  1.
         14    1    4    4    0    0 -0.13693943406E+03 -0.23686393074E+02  0.83376709234E+02  0.16206520126E+03  0.00000000000E+00 0. -1.
         -5    1    5    5    0  502 -0.15689924195E+02 -0.43948034270E+02  0.76617058964E+02  0.89832439362E+02  0.47000000000E+01 0.  1.
         11    1    6    6    0    0  0.68976604823E+02 -0.51360040271E+01  0.10619764469E+03  0.12673630217E+03  0.00000000000E+00 0. -1.
        -12    1    6    6    0    0  0.80390685209E+02  0.31587856011E+02  0.29847038998E+02  0.91385450991E+02  0.00000000000E+00 0.  1.
</event>
<event>
12    1  0.8052519E-002  0.3198328E+03  0.7818608E-02  0.1075741E+00
         21   -1    0    0  501  502  0.00000000000E+00  0.00000000000E+00  0.63639364788E+03  0.63639364788E+03  0.00000000000E+00 0.  1.
         21   -1    0    0  502  503 -0.00000000000E+00 -0.00000000000E+00 -0.16425057318E+03  0.16425057318E+03  0.00000000000E+00 0. -1.
         -6    2    1    2    0  503  0.24952129097E+03  0.10321108863E+03  0.17696619264E+03  0.36541735057E+03  0.17117068468E+03 0.  0.
        -24    2    3    3    0    0  0.47348856995E+02  0.57018655009E+02  0.82224041622E+02  0.13736998890E+03  0.81342974813E+02 0.  0.
          6    2    1    2  501    0 -0.24952129097E+03 -0.10321108863E+03  0.29517688207E+03  0.43522687049E+03  0.17140488215E+03 0.  0.
         24    2    5    5    0    0 -0.11842538851E+03 -0.13750937910E+02  0.21281886838E+03  0.25635768190E+03  0.78827212244E+02 0.  0.
          5    1    5    5  501    0 -0.13109590246E+03 -0.89460150725E+02  0.82358013682E+02  0.17886918859E+03  0.47000000000E+01 0. -1.
        -13    1    6    6    0    0  0.44364953918E+01 -0.16806910551E+02  0.12755842245E+02  0.21560757061E+02  0.00000000000E+00 0.  1.
         14    1    6    6    0    0 -0.12286188390E+03  0.30559726418E+01  0.20006302614E+03  0.23479692484E+03  0.00000000000E+00 0. -1.
         -5    1    3    3    0  503  0.20217243398E+03  0.46192433625E+02  0.94742151015E+02  0.22804736167E+03  0.47000000000E+01 0.  1.
         11    1    4    4    0    0  0.22710438068E+02 -0.16773924945E+00  0.70421436823E+02  0.73993046280E+02  0.00000000000E+00 0. -1.
        -12    1    4    4    0    0  0.24638418928E+02  0.57186394258E+02  0.11802604799E+02  0.63376942618E+02  0.00000000000E+00 0.  1.
</event>
<event>
12    1  0.8052519E-002  0.1825261E+03  0.7818608E-02  0.1165617E+00
         21   -1    0    0  501  502  0.00000000000E+00  0.00000000000E+00  0.21887706519E+04  0.21887706519E+04  0.00000000000E+00 0. -1.
         21   -1    0    0  502  503 -0.00000000000E+00 -0.00000000000E+00 -0.19488047587E+02  0.19488047587E+02  0.00000000000E+00 0. -1.
         -6    2    1    2    0  503  0.79572134184E+01 -0.57370923196E+02  0.56071011161E+03  0.58936363631E+03  0.17204338543E+03 0.  0.
        -24    2    3    3    0    0  0.38854182932E+02 -0.94642078049E+02  0.45075384663E+03  0.46912956494E+03  0.80229346146E+02 0.  0.
          6    2    1    2  501    0 -0.79572134184E+01  0.57370923196E+02  0.16085724927E+04  0.16188950632E+04  0.17309252215E+03 0.  0.
         24    2    5    5    0    0  0.24082487633E+02  0.45444686011E+02  0.15337669674E+04  0.15365134257E+04  0.76073723274E+02 0.  0.
          5    1    5    5  501    0 -0.32039701052E+02  0.11926237185E+02  0.74805525265E+02  0.82381637438E+02  0.47000000000E+01 0. -1.
        -11    1    6    6    0    0  0.15926706978E+02  0.17176331380E+02  0.11111030220E+03  0.11355256760E+03  0.00000000000E+00 0.  1.
         12    1    6    6    0    0  0.81557806550E+01  0.28268354632E+02  0.14226566652E+04  0.14229608581E+04  0.00000000000E+00 0. -1.
         -5    1    3    3    0  503 -0.30896969514E+02  0.37271154853E+02  0.10995626498E+03  0.12023407137E+03  0.47000000000E+01 0.  1.
         13    1    4    4    0    0  0.40362696618E+02 -0.95596033543E+01  0.20225046666E+03  0.20646012826E+03  0.00000000000E+00 0. -1.
        -14    1    4    4    0    0 -0.15085136864E+01 -0.85082474695E+02  0.24850337997E+03  0.26266943669E+03  0.00000000000E+00 0.  1.
</event>
<event>
12    1  0.8052519E-002  0.1986444E+03  0.7818608E-02  0.1150914E+00
         21   -1    0    0  501  502  0.00000000000E+00  0.00000000000E+00  0.11242824601E+03  0.11242824601E+03  0.00000000000E+00 0.  1.
         21   -1    0    0  502  503 -0.00000000000E+00 -0.00000000000E+00 -0.40534239231E+03  0.40534239231E+03  0.00000000000E+00 0.  1.
         -6    2    1    2    0  503 -0.73468721981E+02  0.66243566819E+02 -0.24141640377E+03  0.31255951499E+03  0.17212119900E+03 0.  0.
        -24    2    3    3    0    0 -0.33093365343E+01  0.42803452604E+02 -0.21543470597E+03  0.23401706187E+03  0.80677044116E+02 0.  0.
          6    2    1    2  501    0  0.73468721981E+02 -0.66243566819E+02 -0.51497742535E+02  0.20521112333E+03  0.17226062927E+03 0.  0.
         24    2    5    5    0    0  0.14982140351E+02 -0.95548490965E+02 -0.47953859806E+02  0.13952925433E+03  0.88401705238E+02 0.  0.
          5    1    5    5  501    0  0.58486581630E+02  0.29304924146E+02 -0.35438827293E+01  0.65681868996E+02  0.47000000000E+01 0. -1.
        -11    1    6    6    0    0  0.50654593226E+02 -0.38307044157E+02 -0.25606952919E+02  0.68476517762E+02  0.00000000000E+00 0.  1.
         12    1    6    6    0    0 -0.35672452875E+02 -0.57241446807E+02 -0.22346906887E+02  0.71052736570E+02  0.00000000000E+00 0. -1.
         -5    1    3    3    0  503 -0.70159385447E+02  0.23440114215E+02 -0.25981697797E+02  0.78542453114E+02  0.47000000000E+01 0.  1.
         11    1    4    4    0    0  0.31328557475E+02  0.21974872187E+02 -0.16503020917E+03  0.16940880573E+03  0.00000000000E+00 0. -1.
        -12    1    4    4    0    0 -0.34637894010E+02  0.20828580418E+02 -0.50404496802E+02  0.64608256141E+02  0.00000000000E+00 0.  1.
</event>
<event>
12    1  0.8052519E-002  0.2164831E+03  0.7818608E-02  0.1137420E+00
         21   -1    0    0  501  502  0.00000000000E+00  0.00000000000E+00  0.26450006966E+03  0.26450006966E+03  0.00000000000E+00 0. -1.
         21   -1    0    0  502  503 -0.00000000000E+00 -0.00000000000E+00 -0.22056272379E+03  0.22056272379E+03  0.00000000000E+00 0. -1.
         -6    2    1    2    0  503 -0.57795756069E+02 -0.11082365745E+03 -0.90325485193E+02  0.23032481993E+03  0.17108067374E+03 0.  0.
        -24    2    3    3    0    0 -0.91488106017E+02 -0.11337201177E+03 -0.10157056546E+03  0.19440532125E+03  0.79079469957E+02 0.  0.
          6    2    1    2  501    0  0.57795756069E+02  0.11082365745E+03  0.13426283107E+03  0.25473797352E+03  0.17675603208E+03 0.  0.
         24    2    5    5    0    0 -0.41163725734E+01  0.11966381264E+03  0.62432911298E+02  0.15938134087E+03  0.84665050789E+02 0.  0.
          5    1    5    5  501    0  0.61912128642E+02 -0.88401551891E+01  0.71829919773E+02  0.95356632656E+02  0.47000000000E+01 0. -1.
        -13    1    6    6    0    0  0.26171915334E+02  0.58887941903E+01  0.22633916667E+02  0.35099020399E+02  0.00000000000E+00 0.  1.
         14    1    6    6    0    0 -0.30288287907E+02  0.11377501845E+03  0.39798994630E+02  0.12428232047E+03  0.00000000000E+00 0. -1.
         -5    1    3    3    0  503  0.33692349948E+02  0.25483543143E+01  0.11245080268E+02  0.35919498673E+02  0.47000000000E+01 0.  1.
         13    1    4    4    0    0 -0.69800133926E+02 -0.44141014528E+02 -0.87843738278E+02  0.12056952440E+03  0.00000000000E+00 0. -1.
        -14    1    4    4    0    0 -0.21687972091E+02 -0.69230997239E+02 -0.13726827182E+02  0.73835796851E+02  0.00000000000E+00 0.  1.
</event>
<event>
12    1  0.8052519E-002  0.2273086E+03  0.7818608E-02  0.1130393E+00
         21   -1    0    0  501  502  0.00000000000E+00  0.00000000000E+00  0.71977221100E+03  0.71977221100E+03  0.00000000000E+00 0.  1.
         21   -1    0    0  502  503 -0.00000000000E+00 -0.00000000000E+00 -0.40086080536E+03  0.40086080536E+03  0.00000000000E+00 0. -1.
         -6    2    1    2    0  503  0.15767884334E+02 -0.14993596825E+03 -0.34999802663E+03  0.41733419915E+03  0.17011700205E+03 0.  0.
        -24    2    3    3    0    0  0.73834407098E+02 -0.94648494822E+02 -0.25522947745E+03  0.29311023328E+03  0.79760049212E+02 0.  0.
          6    2    1    2  501    0 -0.15767884334E+02  0.14993596825E+03  0.66890943227E+03  0.70329881721E+03  0.15639685727E+03 0.  0.
         24    2    5    5    0    0  0.39080767711E+02  0.66995335146E+02  0.43709220254E+03  0.45101159746E+03  0.79662953673E+02 0.  0.
          5    1    5    5  501    0 -0.54848652045E+02  0.82940633105E+02  0.23181722973E+03  0.25228721975E+03  0.47000000000E+01 0. -1.
        -13    1    6    6    0    0  0.31624523116E+02  0.52602965503E+02  0.13290722700E+03  0.14639505945E+03  0.00000000000E+00 0.  1.
         14    1    6    6    0    0  0.74562445957E+01  0.14392369643E+02  0.30418497554E+03  0.30461653801E+03  0.00000000000E+00 0. -1.
         -5    1    3    3    0  503 -0.58066522765E+02 -0.55287473429E+02 -0.94768549182E+02  0.12422396588E+03  0.47000000000E+01 0.  1.
         11    1    4    4    0    0  0.87228570822E+02 -0.83201513623E+02 -0.24417568920E+03  0.27231063629E+03  0.00000000000E+00 0. -1.
        -12    1    4    4    0    0 -0.13394163724E+02 -0.11446981198E+02 -0.11053788243E+02  0.20799596990E+02  0.00000000000E+00 0.  1.
</event>
<event>
12    1  0.8052519E-002  0.1753315E+03  0.7818608E-02  0.1172424E+00
         21   -1    0    0  503  502  0.00000000000E+00  0.00000000000E+00  0.94316381130E+02  0.94316381130E+02  0.00000000000E+00 0.  1.
         21   -1    0    0  501  503 -0.00000000000E+00 -0.00000000000E+00 -0.50525413387E+03  0.50525413387E+03  0.00000000000E+00 0.  1.
          6    2    1    2  501    0 -0.96604358543E+01 -0.32166470326E+02 -0.38419034493E+03  0.42230718845E+03  0.17208467231E+03 0.  0.
         24    2    3    3    0    0  0.21832044907E+02 -0.30464815017E+02 -0.37808760015E+03  0.38984173806E+03  0.87301799572E+02 0.  0.
         -6    2    1    2    0  502  0.96604358543E+01  0.32166470326E+02 -0.26747407808E+02  0.17726332655E+03  0.17198504958E+03 0.  0.
        -24    2    5    5    0    0  0.64327489569E+02 -0.85840868627E+01 -0.32853785986E+02  0.10864501611E+03  0.80701027320E+02 0.  0.
          5    1    3    3  501    0 -0.31492480761E+02 -0.17016553088E+01 -0.61027447848E+01  0.32465450392E+02  0.47000000000E+01 0. -1.
        -13    1    4    4    0    0  0.55539169346E+02 -0.23215507028E+02 -0.22433576987E+03  0.23227160123E+03  0.00000000000E+00 0.  1.
         14    1    4    4    0    0 -0.33707124439E+02 -0.72493079894E+01 -0.15375183028E+03  0.15757013682E+03  0.00000000000E+00 0. -1.
         -5    1    5    5    0  502 -0.54667053715E+02  0.40750557189E+02  0.61063781777E+01  0.68618310439E+02  0.47000000000E+01 0.  1.
         13    1    6    6    0    0 -0.46983860417E+01 -0.25647955967E+02  0.71805891637E+01  0.27045394014E+02  0.00000000000E+00 0. -1.
        -14    1    6    6    0    0  0.69025875611E+02  0.17063869104E+02 -0.40034375149E+02  0.81599622096E+02  0.00000000000E+00 0.  1.
</event>
<event>
12    1  0.8052519E-002  0.1978786E+03  0.7818608E-02  0.1152271E+00
         21   -1    0    0  501  502  0.00000000000E+00  0.00000000000E+00  0.73637681853E+02  0.73637681853E+02  0.00000000000E+00 0.  1.
         21   -1    0    0  502  503 -0.00000000000E+00 -0.00000000000E+00 -0.88635946001E+03  0.88635946001E+03  0.00000000000E+00 0.  1.
         -6    2    1    2    0  503 -0.56219520690E+02  0.70114059963E+02 -0.71587884432E+03  0.74272368601E+03  0.17629332974E+03 0.  0.
        -24    2    3    3    0    0 -0.23464353864E+02 -0.25928698787E+02 -0.43728669440E+03  0.44618905320E+03  0.81499354431E+02 0.  0.
          6    2    1    2  501    0  0.56219520690E+02 -0.70114059963E+02 -0.96842933836E+02  0.21727345585E+03  0.17248937611E+03 0.  0.
         24    2    5    5    0    0  0.80430756296E+02  0.24725858426E+01 -0.80486053244E+02  0.13888568498E+03  0.79599048276E+02 0.  0.
          5    1    5    5  501    0 -0.24211235607E+02 -0.72586645805E+02 -0.16356880592E+02  0.78387770868E+02  0.47000000000E+01 0. -1.
        -13    1    6    6    0    0  0.25518053960E+02 -0.37031984336E+02 -0.39028126896E+02  0.59546063101E+02  0.00000000000E+00 0.  1.
         14    1    6    6    0    0  0.54912702336E+02  0.39504570179E+02 -0.41457926348E+02  0.79339621879E+02  0.00000000000E+00 0. -1.
         -5    1    3    3    0  503 -0.32755166826E+02  0.96042758749E+02 -0.27859214992E+03  0.29653463281E+03  0.47000000000E+01 0.  1.
         11    1    4    4    0    0 -0.50479214612E+02 -0.18492729864E+02 -0.19456961402E+03  0.20186001800E+03  0.00000000000E+00 0. -1.
        -12    1    4    4    0    0  0.27014860748E+02 -0.74359689227E+01 -0.24271708038E+03  0.24432903520E+03  0.00000000000E+00 0.  1.
</event>
<event>
12    1  0.8052519E-002  0.1925443E+03  0.7818608E-02  0.1156734E+00
         21   -1    0    0  503  502  0.00000000000E+00  0.00000000000E+00  0.19898369163E+03  0.19898369163E+03  0.00000000000E+00 0.  1.
         21   -1    0    0  501  503 -0.00000000000E+00 -0.00000000000E+00 -0.22268069353E+03  0.22268069353E+03  0.00000000000E+00 0.  1.
          6    2    1    2  501    0 -0.70539980875E+02  0.43586160192E+02 -0.99842850481E+02  0.21689147010E+03  0.17377477593E+03 0.  0.
         24    2    3    3    0    0 -0.10580058906E+03  0.33351107892E+02 -0.59306316455E+02  0.16199732309E+03  0.10207758066E+03 0.  0.
         -6    2    1    2    0  502  0.70539980875E+02 -0.43586160192E+02  0.76145848580E+02  0.20477291506E+03  0.17105003427E+03 0.  0.
        -24    2    5    5    0    0  0.51753417138E+02 -0.36589314286E+02 -0.22079599914E+02  0.10441246687E+03  0.79982875663E+02 0.  0.
          5    1    3    3  501    0  0.35260608188E+02  0.10235052300E+02 -0.40536534027E+02  0.54894147013E+02  0.47000000000E+01 0. -1.
        -13    1    4    4    0    0 -0.16248817495E+02 -0.33936668188E+02 -0.23665632191E+02  0.44449788128E+02  0.00000000000E+00 0.  1.
         14    1    4    4    0    0 -0.89551771568E+02  0.67287776079E+02 -0.35640684264E+02  0.11754753496E+03  0.00000000000E+00 0. -1.
         -5    1    5    5    0  502  0.18786563737E+02 -0.69968459056E+01  0.98225448494E+02  0.10036044819E+03  0.47000000000E+01 0.  1.
         13    1    6    6    0    0  0.16059823749E+02  0.20749719903E+02 -0.25761328254E+02  0.36771114319E+02  0.00000000000E+00 0. -1.
        -14    1    6    6    0    0  0.35693593389E+02 -0.57339034189E+02  0.36817283404E+01  0.67641352546E+02  0.00000000000E+00 0.  1.
</event>
<event>
12    1  0.8052519E-002  0.2777771E+03  0.7818608E-02  0.1098038E+00
         21   -1    0    0  501  502  0.00000000000E+00  0.00000000000E+00  0.76755334291E+02  0.76755334291E+02  0.00000000000E+00 0. -1.
         21   -1    0    0  502  503 -0.00000000000E+00 -0.00000000000E+00 -0.12962157188E+04  0.12962157188E+04  0.00000000000E+00 0.  1.
         -6    2    1    2    0  503 -0.18001406440E+03  0.10760433611E+03 -0.95749329674E+03  0.99697219091E+03  0.18214384323E+03 0.  0.
        -24    2    3    3    0    0 -0.13607760276E+03  0.53857994650E+02 -0.86661890916E+03  0.88251990304E+03  0.79970294400E+02 0.  0.
          6    2    1    2  501    0  0.18001406440E+03 -0.10760433611E+03 -0.26196708780E+03  0.37599886220E+03  0.16960139373E+03 0.  0.
         24    2    5    5    0    0  0.26017893957E+02 -0.86923757074E+02 -0.55058831993E+02  0.11720237231E+03  0.49721733119E+02 0.  0.
          5    1    5    5  501    0  0.15399617045E+03 -0.20680579035E+02 -0.20690825581E+03  0.25879648990E+03  0.47000000000E+01 0. -1.
        -13    1    6    6    0    0 -0.49339349816E+01 -0.42545839939E+02 -0.45082721212E+02  0.62184756672E+02  0.00000000000E+00 0.  1.
         14    1    6    6    0    0  0.30951828939E+02 -0.44377917136E+02 -0.99761107806E+01  0.55017615636E+02  0.00000000000E+00 0. -1.
         -5    1    3    3    0  503 -0.43936461646E+02  0.53746341460E+02 -0.90874387579E+02  0.11445228788E+03  0.47000000000E+01 0.  1.
         13    1    4    4    0    0 -0.64371440279E+02 -0.80032060349E+01 -0.23292847813E+03  0.24179207918E+03  0.00000000000E+00 0. -1.
        -14    1    4    4    0    0 -0.71706162479E+02  0.61861200684E+02 -0.63369043103E+03  0.64072782386E+03  0.00000000000E+00 0.  1.
</event>
<event>
12    1  0.8052519E-002  0.2054064E+03  0.7818608E-02  0.1145382E+00
         21   -1    0    0  501  502  0.00000000000E+00  0.00000000000E+00  0.10864114446E+04  0.10864114446E+04  0.00000000000E+00 0.  1.
         21   -1    0    0  502  503 -0.00000000000E+00 -0.00000000000E+00 -0.70856334724E+02  0.70856334724E+02  0.00000000000E+00 0.  1.
         -6    2    1    2    0  503  0.27159209557E+01  0.11204893891E+03  0.11850696315E+03  0.23714068325E+03  0.17213210740E+03 0.  0.
        -24    2    3    3    0    0 -0.27304714099E+02 -0.54229747245E+01  0.49469318983E+02  0.97537046708E+02  0.79317752698E+02 0.  0.
          6    2    1    2  501    0 -0.27159209557E+01 -0.11204893891E+03  0.89704814669E+03  0.92012709604E+03  0.17139473286E+03 0.  0.
         24    2    5    5    0    0  0.36366251362E+02 -0.31364399909E+01  0.43884190510E+03  0.44751266710E+03  0.79705884649E+02 0.  0.
          5    1    5    5  501    0 -0.39082172318E+02 -0.10891249892E+03  0.45820624159E+03  0.47261442894E+03  0.47000000000E+01 0. -1.
        -13    1    6    6    0    0  0.43021246140E+02 -0.33741946418E+02  0.31866407997E+03  0.32332049491E+03  0.00000000000E+00 0.  1.
         14    1    6    6    0    0 -0.66549947776E+01  0.30605506427E+02  0.12017782513E+03  0.12419217218E+03  0.00000000000E+00 0. -1.
         -5    1    3    3    0  503  0.30020635055E+02  0.11747191364E+03  0.69037644168E+02  0.13960363654E+03  0.47000000000E+01 0.  1.
         11    1    4    4    0    0 -0.44021172177E+02  0.23898580724E+02  0.32981569468E+02  0.59973241408E+02  0.00000000000E+00 0. -1.
        -12    1    4    4    0    0  0.16716458077E+02 -0.29321555448E+02  0.16487749515E+02  0.37563805300E+02  0.00000000000E+00 0.  1.
</event>
<event>
12    1  0.8052519E-002  0.1932064E+03  0.7818608E-02  0.1156079E+00
         21   -1    0    0  503  502  0.00000000000E+00  0.00000000000E+00  0.39751463736E+03  0.39751463736E+03  0.00000000000E+00 0.  1.
         21   -1    0    0  501  503 -0.00000000000E+00 -0.00000000000E+00 -0.95402213662E+02  0.95402213662E+02  0.00000000000E+00 0.  1.
          6    2    1    2  501    0 -0.30287607213E+02 -0.77162557545E+02  0.11165572834E+03  0.22314950979E+03  0.17452020688E+03 0.  0.
         24    2    3    3    0    0  0.44785758902E+02 -0.69901298160E+02  0.85141601184E+02  0.14306314936E+03  0.79536260712E+02 0.  0.
         -6    2    1    2    0  502  0.30287607213E+02  0.77162557545E+02  0.19045669536E+03  0.26976734124E+03  0.17213153736E+03 0.  0.
        -24    2    5    5    0    0  0.32804761521E+02  0.31102601761E+02  0.20196262426E+03  0.22199358283E+03  0.80303953852E+02 0.  0.
          5    1    3    3  501    0 -0.75073366115E+02 -0.72612593848E+01  0.26514127158E+02  0.80086360428E+02  0.47000000000E+01 0. -1.
        -13    1    4    4    0    0  0.44546662702E+02 -0.12900977108E+01  0.21502055033E+02  0.49481389235E+02  0.00000000000E+00 0.  1.
         14    1    4    4    0    0  0.23909620022E+00 -0.68611200449E+02  0.63639546150E+02  0.93581760126E+02  0.00000000000E+00 0. -1.
         -5    1    5    5    0  502 -0.25171543086E+01  0.46059955784E+02 -0.11505928899E+02  0.47773758409E+02  0.47000000000E+01 0.  1.
         11    1    6    6    0    0  0.37359627590E+02  0.34436596024E+02  0.54829510489E+02  0.74752231671E+02  0.00000000000E+00 0. -1.
        -12    1    6    6    0    0 -0.45548660685E+01 -0.33339942633E+01  0.14713311377E+03  0.14724135116E+03  0.00000000000E+00 0.  1.
</event>
<event>
12    1  0.8052519E-002  0.2555090E+03  0.7818608E-02  0.1110273E+00
         21   -1    0    0  503  502  0.00000000000E+00  0.00000000000E+00  0.35458125636E+02  0.35458125636E+02  0.00000000000E+00 0. -1.
         21   -1    0    0  501  503 -0.00000000000E+00 -0.00000000000E+00 -0.19539196459E+04  0.19539196459E+04  0.00000000000E+00 0. -1.
          6    2    1    2  501    0 -0.24399941024E+02  0.18739693608E+03 -0.12217722819E+04  0.12482036576E+04  0.17196480220E+03 0.  0.
         24    2    3    3    0    0 -0.79089063302E+02  0.15414454539E+03 -0.95203290505E+03  0.97093475740E+03  0.79574053703E+02 0.  0.
         -6    2    1    2    0  502  0.24399941024E+02 -0.18739693608E+03 -0.69668923828E+03  0.74117411387E+03  0.16807796873E+03 0.  0.
        -24    2    5    5    0    0  0.39023755473E+02 -0.59777498414E+02 -0.18641321518E+03  0.21495715618E+03  0.79752676384E+02 0.  0.
          5    1    3    3  501    0  0.54689122278E+02  0.33252390689E+02 -0.26973937689E+03  0.27726890022E+03  0.47000000000E+01 0. -1.
        -11    1    4    4    0    0 -0.44023349858E+01  0.24958062593E+01 -0.12115698385E+01  0.52036048740E+01  0.00000000000E+00 0.  1.
         12    1    4    4    0    0 -0.74686728317E+02  0.15164873913E+03 -0.95082133522E+03  0.96573115253E+03  0.00000000000E+00 0. -1.
         -5    1    5    5    0  502 -0.14623814448E+02 -0.12761943766E+03 -0.51027602309E+03  0.52621695769E+03  0.47000000000E+01 0.  1.
         11    1    6    6    0    0  0.93438006087E+00 -0.63220839130E+02 -0.14708648289E+03  0.16010053408E+03  0.00000000000E+00 0. -1.
        -12    1    6    6    0    0  0.38089375412E+02  0.34433407162E+01 -0.39326732295E+02  0.54856622094E+02  0.00000000000E+00 0.  1.
</event>
<event>
12    1  0.8052519E-002  0.1812686E+03  0.7818608E-02  0.1166660E+00
         21   -1    0    0  503  502  0.00000000000E+00  0.00000000000E+00  0.11336284507E+03  0.11336284507E+03  0.00000000000E+00 0. -1.
         21   -1    0    0  501  503 -0.00000000000E+00 -0.00000000000E+00 -0.29075810048E+03  0.29075810048E+03  0.00000000000E+00 0. -1.
          6    2    1    2  501    0  0.86326832263E+01 -0.50129527246E+02 -0.10295132045E+03  0.20846407247E+03  0.17398506375E+03 0.  0.
         24    2    3    3    0    0  0.33514826897E+02  0.17646579069E+02 -0.10310374785E+03  0.13611191359E+03  0.80382988408E+02 0.  0.
         -6    2    1    2    0  502 -0.86326832263E+01  0.50129527246E+02 -0.74443934964E+02  0.19565687309E+03  0.17364394551E+03 0.  0.
        -24    2    5    5    0    0 -0.64414366491E+02  0.48157296226E+02 -0.15298483068E+02  0.11419669654E+03  0.79614735608E+02 0.  0.
          5    1    3    3  501    0 -0.24882143671E+02 -0.67776106315E+02  0.15242740126E+00  0.72352158883E+02  0.47000000000E+01 0. -1.
        -11    1    4    4    0    0  0.30841528109E+02  0.42723941206E+02 -0.34405157716E+02  0.62930516331E+02  0.00000000000E+00 0.  1.
         12    1    4    4    0    0  0.26732987880E+01 -0.25077362137E+02 -0.68698590133E+02  0.73181397257E+02  0.00000000000E+00 0. -1.
         -5    1    5    5    0  502  0.55781683264E+02  0.19722310202E+01 -0.59145451896E+02  0.81460176547E+02  0.47000000000E+01 0.  1.
         11    1    6    6    0    0 -0.18035982844E+02  0.46176166256E+02 -0.38057305262E+02  0.62497147863E+02  0.00000000000E+00 0. -1.
        -12    1    6    6    0    0 -0.46378383646E+02  0.19811299702E+01  0.22758822194E+02  0.51699548676E+02  0.00000000000E+00 0.  1.
</event>
<event>
12    1  0.8052519E-002  0.2230980E+03  0.7818608E-02  0.1131792E+00
         21   -1    0    0  501  502  0.00000000000E+00  0.00000000000E+00  0.50345452279E+02  0.50345452279E+02  0.00000000000E+00 0.  1.
         21   -1    0    0  502  503 -0.00000000000E+00 -0.00000000000E+00 -0.98443143797E+03  0.98443143797E+03  0.00000000000E+00 0.  1.
         -6    2    1    2    0  503 -0.93042789710E+02 -0.10860165211E+03 -0.45556448521E+03  0.50725900947E+03  0.17123499336E+03 0.  0.
        -24    2    3    3    0    0 -0.38614706241E+01 -0.85282673143E+02 -0.34138629427E+03  0.36043996527E+03  0.78002059952E+02 0.  0.
          6    2    1    2  501    0  0.93042789710E+02  0.10860165211E+03 -0.47852150049E+03  0.52751788078E+03  0.16982640712E+03 0.  0.
         24    2    5    5    0    0  0.12223144950E+03  0.50583414795E+02 -0.29595759888E+03  0.33368867273E+03  0.79107653718E+02 0.  0.
          5    1    5    5  501    0 -0.29188659789E+02  0.58018237317E+02 -0.18256390161E+03  0.19382920805E+03  0.47000000000E+01 0. -1.
        -11    1    6    6    0    0  0.33520629410E+02 -0.81383367190E+01 -0.14476750047E+03  0.14882034240E+03  0.00000000000E+00 0.  1.
         12    1    6    6    0    0  0.88710820089E+02  0.58721751514E+02 -0.15119009840E+03  0.18486833033E+03  0.00000000000E+00 0. -1.
         -5    1    3    3    0  503 -0.89181319086E+02 -0.23318978969E+02 -0.11417819094E+03  0.14681904420E+03  0.47000000000E+01 0.  1.
         11    1    4    4    0    0 -0.76708122262E+01 -0.65146999260E+00 -0.16064575619E+03  0.16083011147E+03  0.00000000000E+00 0. -1.
        -12    1    4    4    0    0  0.38093416021E+01 -0.84631203151E+02 -0.18074053808E+03  0.19960985380E+03  0.00000000000E+00 0.  1.
</event>
<event>
12    1  0.8052519E-002  0.2146802E+03  0.7818608E-02  0.1138997E+00
         21   -1    0    0  503  502  0.00000000000E+00  0.00000000000E+00  0.33504393602E+03  0.33504393602E+03  0.00000000000E+00 0. -1.
         21   -1    0    0  501  503 -0.00000000000E+00 -0.00000000000E+00 -0.13577279002E+03  0.13577279002E+03  0.00000000000E+00 0. -1.
          6    2    1    2  501    0 -0.11214433039E+03  0.32583030338E+02  0.71589421720E+02  0.22103641550E+03  0.17347635853E+03 0.  0.
         24    2    3    3    0    0 -0.76434196909E+02  0.48506154290E+02  0.11243221756E+03  0.16430032926E+03  0.78476500853E+02 0.  0.
         -6    2    1    2    0  502  0.11214433039E+03 -0.32583030338E+02  0.12768172428E+03  0.24978031055E+03  0.18013765880E+03 0.  0.
        -24    2    5    5    0    0  0.59072008588E+02  0.37661881445E+02  0.15158257567E+02  0.10683053079E+03  0.79215339568E+02 0.  0.
          5    1    3    3  501    0 -0.35710133480E+02 -0.15923123953E+02 -0.40842795845E+02  0.56736086241E+02  0.47000000000E+01 0. -1.
        -11    1    4    4    0    0 -0.37960816537E+02  0.49844626227E+02  0.10890607194E+03  0.12564252012E+03  0.00000000000E+00 0.  1.
         12    1    4    4    0    0 -0.38473380372E+02 -0.13384719362E+01  0.35261456215E+01  0.38657809137E+02  0.00000000000E+00 0. -1.
         -5    1    5    5    0  502  0.53072321801E+02 -0.70244911782E+02  0.11252346671E+03  0.14294977976E+03  0.47000000000E+01 0.  1.
         11    1    6    6    0    0  0.70653763502E+02  0.32075123736E+02 -0.10334021874E+02  0.78278731899E+02  0.00000000000E+00 0. -1.
        -12    1    6    6    0    0 -0.11581754914E+02  0.55867577086E+01  0.25492279440E+02  0.28551798886E+02  0.00000000000E+00 0.  1.
</event>
<event>
12    1  0.8052519E-002  0.1886931E+03  0.7818608E-02  0.1160239E+00
         21   -1    0    0  503  502  0.00000000000E+00  0.00000000000E+00  0.90563855930E+02  0.90563855930E+02  0.00000000000E+00 0.  1.
         21   -1    0    0  501  503 -0.00000000000E+00 -0.00000000000E+00 -0.67013376680E+03  0.67013376680E+03  0.00000000000E+00 0.  1.
          6    2    1    2  501    0  0.83213329039E+01  0.70450223400E+02 -0.53782862089E+03  0.56996904293E+03  0.17485023847E+03 0.  0.
         24    2    3    3    0    0 -0.58806996932E+02  0.23926356002E+02 -0.36124721650E+03  0.37535721060E+03  0.79766852306E+02 0.  0.
         -6    2    1    2    0  502 -0.83213329039E+01 -0.70450223400E+02 -0.41741289986E+02  0.19072857980E+03  0.17205399532E+03 0.  0.
        -24    2    5    5    0    0 -0.84215006064E+01 -0.91902184030E+02  0.17304350082E+02  0.12773116510E+03  0.86596055938E+02 0.  0.
          5    1    3    3  501    0  0.67128329836E+02  0.46523867398E+02 -0.17658140439E+03  0.19461183232E+03  0.47000000000E+01 0. -1.
        -13    1    4    4    0    0 -0.80224189861E+01  0.18395837015E+02 -0.27030716291E+03  0.27105115448E+03  0.00000000000E+00 0.  1.
         14    1    4    4    0    0 -0.50784577946E+02  0.55305189861E+01 -0.90940053585E+02  0.10430605612E+03  0.00000000000E+00 0. -1.
         -5    1    5    5    0  502  0.10016770252E+00  0.21451960630E+02 -0.59045640068E+02  0.62997414705E+02  0.47000000000E+01 0.  1.
         11    1    6    6    0    0 -0.25236086418E+02 -0.47607195814E+02 -0.29248337673E+02  0.61308811827E+02  0.00000000000E+00 0. -1.
        -12    1    6    6    0    0  0.16814585811E+02 -0.44294988215E+02  0.46552687755E+02  0.66422353272E+02  0.00000000000E+00 0.  1.
</event>
<event>
12    1  0.8052519E-002  0.2482227E+03  0.7818608E-02  0.1114512E+00
         21   -1    0    0  501  502  0.00000000000E+00  0.00000000000E+00  0.14469314414E+04  0.14469314414E+04  0.00000000000E+00 0.  1.
         21   -1    0    0  502  503 -0.00000000000E+00 -0.00000000000E+00 -0.44284647434E+02  0.44284647434E+02  0.00000000000E+00 0.  1.
         -6    2    1    2    0  503  0.37572613051E+02 -0.17378475428E+03  0.55225105794E+03  0.60547151102E+03  0.17320992345E+03 0.  0.
        -24    2    3    3    0    0 -0.31614617382E+01 -0.18253945308E+03  0.49892430338E+03  0.53763536761E+03  0.82435921982E+02 0.  0.
          6    2    1    2  501    0 -0.37572613051E+02  0.17378475428E+03  0.85039573600E+03  0.88574457780E+03  0.17250422374E+03 0.  0.
         24    2    5    5    0    0 -0.72692506335E+02  0.87728111208E+02  0.35287340520E+03  0.37959271089E+03  0.81182289271E+02 0.  0.
          5    1    5    5  501    0  0.35119893284E+02  0.86056643076E+02  0.49752233081E+03  0.50615186691E+03  0.47000000000E+01 0. -1.
        -11    1    6    6    0    0 -0.37364742298E+02  0.95953353951E+02  0.27625369217E+03  0.29482074645E+03  0.00000000000E+00 0.  1.
         12    1    6    6    0    0 -0.35327764037E+02 -0.82252427430E+01  0.76619713027E+02  0.84771964436E+02  0.00000000000E+00 0. -1.
         -5    1    3    3    0  503  0.40734074789E+02  0.87546987988E+01  0.53326754568E+02  0.67836143410E+02  0.47000000000E+01 0.  1.
         13    1    4    4    0    0  0.18614055028E+02 -0.70539920554E+02  0.29576144721E+03  0.30462632370E+03  0.00000000000E+00 0. -1.
        -14    1    4    4    0    0 -0.21775516766E+02 -0.11199953253E+03  0.20316285617E+03  0.23300904391E+03  0.00000000000E+00 0.  1.
</event>
<event>
12    1  0.8052519E-002  0.1898565E+03  0.7818608E-02  0.1158970E+00
         21   -1    0    0  501  502  0.00000000000E+00  0.00000000000E+00  0.96719395207E+02  0.96719395207E+02  0.00000000000E+00 0. -1.
         21   -1    0    0  502  503 -0.00000000000E+00 -0.00000000000E+00 -0.80264344681E+03  0.80264344681E+03  0.00000000000E+00 0. -1.
         -6    2    1    2    0  503 -0.68118321182E+02  0.40139756802E+02 -0.68261721891E+03  0.70808107851E+03  0.17076662566E+03 0.  0.
        -24    2    3    3    0    0 -0.24044123829E+02  0.84857553032E+02 -0.52662267149E+03  0.53985918637E+03  0.79608911453E+02 0.  0.
          6    2    1    2  501    0  0.68118321182E+02 -0.40139756802E+02 -0.23306832690E+02  0.19128176350E+03  0.17260996159E+03 0.  0.
         24    2    5    5    0    0 -0.25945385194E+02 -0.40704905023E+02  0.82066666902E+01  0.91966654413E+02  0.77848980982E+02 0.  0.
          5    1    5    5  501    0  0.94063706376E+02  0.56514822056E+00 -0.31513499380E+02  0.99315109086E+02  0.47000000000E+01 0. -1.
        -13    1    6    6    0    0 -0.45937660036E+02 -0.42804955380E+01 -0.89793835432E+01  0.47002346542E+02  0.00000000000E+00 0.  1.
         14    1    6    6    0    0  0.19992274842E+02 -0.36424409485E+02  0.17186050233E+02  0.44964307871E+02  0.00000000000E+00 0. -1.
         -5    1    3    3    0  503 -0.44074197353E+02 -0.44717796230E+02 -0.15599454742E+03  0.16822189214E+03  0.47000000000E+01 0.  1.
         13    1    4    4    0    0  0.22581717930E+02  0.14584266452E+02 -0.22725512753E+03  0.22883952412E+03  0.00000000000E+00 0. -1.
        -14    1    4    4    0    0 -0.46625841759E+02  0.70273286580E+02 -0.29936754396E+03  0.31101966225E+03  0.00000000000E+00 0.  1.
</event>
<event>
12    1  0.8052519E-002  0.1910289E+03  0.7818608E-02  0.1157638E+00
         21   -1    0    0  503  502  0.00000000000E+00  0.00000000000E+00  0.66819146000E+02  0.66819146000E+02  0.00000000000E+00 0. -1.
         21   -1    0    0  501  503 -0.00000000000E+00 -0.00000000000E+00 -0.21534347742E+04  0.21534347742E+04  0.00000000000E+00 0. -1.
          6    2    1    2  501    0 -0.76786465258E+02  0.27087817814E+02 -0.20030864705E+04  0.20121748039E+04  0.17280660260E+03 0.  0.
         24    2    3    3    0    0 -0.10399600290E+03 -0.18973066890E+02 -0.15987847762E+04  0.16043219945E+04  0.81000961532E+02 0.  0.
         -6    2    1    2    0  502  0.76786465258E+02 -0.27087817814E+02 -0.83529157711E+02  0.20807911634E+03  0.17230753712E+03 0.  0.
        -24    2    5    5    0    0  0.11763625267E+03 -0.35426646898E+01 -0.71301162324E+02  0.15914351337E+03  0.79949757252E+02 0.  0.
          5    1    3    3  501    0  0.27209537638E+02  0.46060884705E+02 -0.40430169434E+03  0.40785280933E+03  0.47000000000E+01 0. -1.
        -11    1    4    4    0    0 -0.60179439306E+02  0.29116353149E+02 -0.69968511501E+03  0.70287167186E+03  0.00000000000E+00 0.  1.
         12    1    4    4    0    0 -0.43816563590E+02 -0.48089420039E+02 -0.89909966116E+03  0.90145032268E+03  0.00000000000E+00 0. -1.
         -5    1    5    5    0  502 -0.40849787409E+02 -0.23545153125E+02 -0.12227995387E+02  0.48935602972E+02  0.47000000000E+01 0.  1.
         11    1    6    6    0    0  0.11004097885E+03  0.13361964674E+02 -0.81873683444E+02  0.13780732624E+03  0.00000000000E+00 0. -1.
        -12    1    6    6    0    0  0.75952738196E+01 -0.16904629363E+02  0.10572521120E+02  0.21336187128E+02  0.00000000000E+00 0.  1.
</event>
<event>
12    1  0.8052519E-002  0.1839382E+03  0.7818608E-02  0.1164118E+00
         21   -1    0    0  501  502  0.00000000000E+00  0.00000000000E+00  0.27834032810E+03  0.27834032810E+03  0.00000000000E+00 0.  1.
         21   -1    0    0  502  503 -0.00000000000E+00 -0.00000000000E+00 -0.17754910940E+03  0.17754910940E+03  0.00000000000E+00 0.  1.
         -6    2    1    2    0  503  0.29513429602E+02  0.57826602097E+02 -0.77818550560E+02  0.19972231184E+03  0.17209972864E+03 0.  0.
        -24    2    3    3    0    0  0.52800297111E+02 -0.67732100726E+01 -0.88033930275E+02  0.13013885178E+03  0.79701945488E+02 0.  0.
          6    2    1    2  501    0 -0.29513429602E+02 -0.57826602097E+02  0.17860976927E+03  0.25616712566E+03  0.17177074302E+03 0.  0.
         24    2    5    5    0    0  0.45422771318E+02 -0.26367124399E+02  0.65516189363E+02  0.11682086357E+03  0.81217545472E+02 0.  0.
          5    1    5    5  501    0 -0.74936200920E+02 -0.31459477697E+02  0.11309357990E+03  0.13934626210E+03  0.47000000000E+01 0. -1.
        -13    1    6    6    0    0  0.47365791752E+02 -0.15318563148E+02  0.82565560351E+02  0.96411868363E+02  0.00000000000E+00 0.  1.
         14    1    6    6    0    0 -0.19430204340E+01 -0.11048561251E+02 -0.17049370988E+02  0.20408995203E+02  0.00000000000E+00 0. -1.
         -5    1    3    3    0  503 -0.23286867509E+02  0.64599812169E+02  0.10215379714E+02  0.69583460056E+02  0.47000000000E+01 0.  1.
         11    1    4    4    0    0  0.71385008800E+02  0.83504500876E+01 -0.66905857741E+02  0.98193397426E+02  0.00000000000E+00 0. -1.
        -12    1    4    4    0    0 -0.18584711689E+02 -0.15123660160E+02 -0.21128072534E+02  0.31945454359E+02  0.00000000000E+00 0.  1.
</event>
<event>
12    1  0.8052519E-002  0.2371453E+03  0.7818608E-02  0.1121940E+00
         21   -1    0    0  501  502  0.00000000000E+00  0.00000000000E+00  0.80313420382E+03  0.80313420382E+03  0.00000000000E+00 0. -1.
         21   -1    0    0  502  503 -0.00000000000E+00 -0.00000000000E+00 -0.78901492065E+02  0.78901492065E+02  0.00000000000E+00 0. -1.
         -6    2    1    2    0  503 -0.13821498674E+03  0.85882225232E+02  0.21179337993E+03  0.31795334913E+03  0.17250726729E+03 0.  0.
        -24    2    3    3    0    0 -0.57301439998E+02  0.12081113694E+02  0.19836951594E+02  0.96903656773E+02  0.74615050181E+02 0.  0.
          6    2    1    2  501    0  0.13821498674E+03 -0.85882225232E+02  0.51243933182E+03  0.56408234676E+03  0.17063319124E+03 0.  0.
         24    2    5    5    0    0  0.14751020192E+03 -0.79246395719E+02  0.30990052396E+03  0.36116735483E+03  0.79776390871E+02 0.  0.
          5    1    5    5  501    0 -0.92952151756E+01 -0.66358295128E+01  0.20253880786E+03  0.20291499192E+03  0.47000000000E+01 0. -1.
        -13    1    6    6    0    0 -0.57922598092E+01  0.43850626475E+01  0.33070286659E+02  0.33858867491E+02  0.00000000000E+00 0.  1.
         14    1    6    6    0    0  0.15330246172E+03 -0.83631458367E+02  0.27683023730E+03  0.32730848734E+03  0.00000000000E+00 0. -1.
         -5    1    3    3    0  503 -0.80913546741E+02  0.73801111538E+02  0.19195642834E+03  0.22104969236E+03  0.47000000000E+01 0.  1.
         13    1    4    4    0    0 -0.66060332425E+02 -0.13810281213E+02  0.13007215025E+02  0.68730481084E+02  0.00000000000E+00 0. -1.
        -14    1    4    4    0    0  0.87588924268E+01  0.25891394908E+02  0.68297365695E+01  0.28173175689E+02  0.00000000000E+00 0.  1.
</event>
<event>
12    1  0.8052519E-002  0.2610340E+03  0.7818608E-02  0.1106599E+00
         21   -1    0    0  501  502  0.00000000000E+00  0.00000000000E+00  0.12249447546E+03  0.12249447546E+03  0.00000000000E+00 0.  1.
         21   -1    0    0  502  503 -0.00000000000E+00 -0.00000000000E+00 -0.77044991635E+03  0.77044991635E+03  0.00000000000E+00 0.  1.
         -6    2    1    2    0  503  0.77242202222E+02 -0.18058380291E+03 -0.55974871573E+03  0.61741009336E+03  0.17117164173E+03 0.  0.
        -24    2    3    3    0    0 -0.23996377309E+02 -0.62211877506E+02 -0.20597351646E+03  0.23083520497E+03  0.80085320401E+02 0.  0.
          6    2    1    2  501    0 -0.77242202222E+02  0.18058380291E+03 -0.88206725155E+02  0.27553429845E+03  0.17193561464E+03 0.  0.
         24    2    5    5    0    0  0.40633475330E+01  0.38717371992E+02  0.37973704872E+01  0.87854996824E+02  0.78667240687E+02 0.  0.
          5    1    5    5  501    0 -0.81305549755E+02  0.14186643092E+03 -0.92004095643E+02  0.18767930162E+03  0.47000000000E+01 0. -1.
        -11    1    6    6    0    0  0.26125286753E+02  0.32906370160E+02  0.31100801678E+02  0.52274464799E+02  0.00000000000E+00 0.  1.
         12    1    6    6    0    0 -0.22061939220E+02  0.58110018320E+01 -0.27303431191E+02  0.35580532025E+02  0.00000000000E+00 0. -1.
         -5    1    3    3    0  503  0.10123857953E+03 -0.11837192541E+03 -0.35377519927E+03  0.38657488838E+03  0.47000000000E+01 0.  1.
         11    1    4    4    0    0 -0.40392512115E+02 -0.23792323899E+02 -0.46681951857E+02  0.66157647635E+02  0.00000000000E+00 0. -1.
        -12    1    4    4    0    0  0.16396134806E+02 -0.38419553608E+02 -0.15929156461E+03  0.16467755734E+03  0.00000000000E+00 0.  1.
</event>
<event>
12    1  0.8052519E-002  0.1735175E+03  0.7818608E-02  0.1174437E+00
         21   -1    0    0  503  502  0.00000000000E+00  0.00000000000E+00  0.15646055478E+03  0.15646055478E+03  0.00000000000E+00 0.  1.
         21   -1    0    0  501  503 -0.00000000000E+00 -0.00000000000E+00 -0.20972767561E+03  0.20972767561E+03  0.00000000000E+00 0.  1.
          6    2    1    2  501    0 -0.11563388757E+01  0.16335998462E+02 -0.80628482101E+02  0.19133553537E+03  0.17274296803E+03 0.  0.
         24    2    3    3    0    0 -0.13629608622E+02 -0.35758297839E+02 -0.87358499485E+02  0.13714345754E+03  0.98551501347E+02 0.  0.
         -6    2    1    2    0  502  0.11563388757E+01 -0.16335998462E+02  0.27361361267E+02  0.17485269503E+03  0.17192038536E+03 0.  0.
        -24    2    5    5    0    0  0.33831558384E+02 -0.53884443968E+02 -0.21152672738E+02  0.10518737205E+03  0.81048380806E+02 0.  0.
          5    1    3    3  501    0  0.12473269746E+02  0.52094296301E+02  0.67300173836E+01  0.54192077827E+02  0.47000000000E+01 0. -1.
        -11    1    4    4    0    0  0.96295272931E+01  0.31811512582E+02 -0.19169137793E+02  0.38368684788E+02  0.00000000000E+00 0.  1.
         12    1    4    4    0    0 -0.23259135915E+02 -0.67569810421E+02 -0.68189361692E+02  0.98774772750E+02  0.00000000000E+00 0. -1.
         -5    1    5    5    0  502 -0.32675219509E+02  0.37548445506E+02  0.48514034005E+02  0.69665322976E+02  0.47000000000E+01 0.  1.
         11    1    6    6    0    0  0.41203340574E+02 -0.65688234052E+01 -0.35941234994E+02  0.55069384310E+02  0.00000000000E+00 0. -1.
        -12    1    6    6    0    0 -0.73717821896E+01 -0.47315620563E+02  0.14788562256E+02  0.50117987744E+02  0.00000000000E+00 0.  1.
</event>
<event>
12    1  0.8052519E-002  0.1960462E+03  0.7818608E-02  0.1154872E+00
         21   -1    0    0  503  502  0.00000000000E+00  0.00000000000E+00  0.17455535391E+03  0.17455535391E+03  0.00000000000E+00 0. -1.
         21   -1    0    0  501  503 -0.00000000000E+00 -0.00000000000E+00 -0.31231346508E+03  0.31231346508E+03  0.00000000000E+00 0. -1.
          6    2    1    2  501    0  0.21171571296E+02  0.72977268671E+02 -0.20629120384E+03  0.27918899383E+03  0.17209449823E+03 0.  0.
         24    2    3    3    0    0 -0.43071368939E+02  0.81214302760E+02 -0.15779898106E+03  0.19814215693E+03  0.76869305551E+02 0.  0.
         -6    2    1    2    0  502 -0.21171571296E+02 -0.72977268671E+02  0.68533092675E+02  0.20767982516E+03  0.18072135406E+03 0.  0.
        -24    2    5    5    0    0 -0.42821614246E+02 -0.89679150892E+02 -0.71382803092E+01  0.12708253042E+03  0.78885827252E+02 0.  0.
          5    1    3    3  501    0  0.64242940236E+02 -0.82370340885E+01 -0.48492222784E+02  0.81046836898E+02  0.47000000000E+01 0. -1.
        -13    1    4    4    0    0 -0.40740880247E+02  0.14771848764E+02 -0.10383071068E+03  0.11251152527E+03  0.00000000000E+00 0.  1.
         14    1    4    4    0    0 -0.23304886921E+01  0.66442453996E+02 -0.53968270376E+02  0.85630631657E+02  0.00000000000E+00 0. -1.
         -5    1    5    5    0  502  0.21650042949E+02  0.16701882221E+02  0.75671372984E+02  0.80597294736E+02  0.47000000000E+01 0.  1.
         13    1    6    6    0    0 -0.45414848028E+02 -0.79352794433E+02  0.23705553775E+02  0.94452780189E+02  0.00000000000E+00 0. -1.
        -14    1    6    6    0    0  0.25932337826E+01 -0.10326356459E+02 -0.30843834084E+02  0.32629750232E+02  0.00000000000E+00 0.  1.
</event>
<event>
12    1  0.8052519E-002  0.1954821E+03  0.7818608E-02  0.1153692E+00
         21   -1    0    0  501  502  0.00000000000E+00  0.00000000000E+00  0.62233883145E+02  0.62233883145E+02  0.00000000000E+00 0.  1.
         21   -1    0    0  502  503 -0.00000000000E+00 -0.00000000000E+00 -0.67934633527E+03  0.67934633527E+03  0.00000000000E+00 0.  1.
         -6    2    1    2    0  503 -0.94146108086E+02  0.48116406589E+01 -0.42432132562E+03  0.46702298903E+03  0.17080762088E+03 0.  0.
        -24    2    3    3    0    0  0.18392114483E+02 -0.29808577535E+02 -0.18933404948E+03  0.20414560127E+03  0.67832315716E+02 0.  0.
          6    2    1    2  501    0  0.94146108086E+02 -0.48116406589E+01 -0.19279112650E+03  0.27455722938E+03  0.17125014510E+03 0.  0.
         24    2    5    5    0    0  0.93614993465E+02 -0.12199169229E+02 -0.54126043222E+02  0.13561496446E+03  0.80927148101E+02 0.  0.
          5    1    5    5  501    0  0.53111462003E+00  0.73875285702E+01 -0.13866508328E+03  0.13894226492E+03  0.47000000000E+01 0. -1.
        -13    1    6    6    0    0  0.42153780424E+02  0.34712213616E+02 -0.26555035357E+02  0.60721074439E+02  0.00000000000E+00 0.  1.
         14    1    6    6    0    0  0.51461213042E+02 -0.46911382845E+02 -0.27571007864E+02  0.74893890023E+02  0.00000000000E+00 0. -1.
         -5    1    3    3    0  503 -0.11253822257E+03  0.34620218193E+02 -0.23498727615E+03  0.26287738776E+03  0.47000000000E+01 0.  1.
         13    1    4    4    0    0  0.29840705319E+02  0.62927322650E+01 -0.13167488348E+03  0.13516042732E+03  0.00000000000E+00 0. -1.
        -14    1    4    4    0    0 -0.11448590835E+02 -0.36101309800E+02 -0.57659166000E+02  0.68985173952E+02  0.00000000000E+00 0.  1.
</event>
<event>
12    1  0.8052519E-002  0.2153311E+03  0.7818608E-02  0.1137983E+00
         21   -1    0    0  503  502  0.00000000000E+00  0.00000000000E+00  0.48906462553E+03  0.48906462553E+03  0.00000000000E+00 0. -1.
         21   -1    0    0  501  503 -0.00000000000E+00 -0.00000000000E+00 -0.99592237114E+02  0.99592237114E+02  0.00000000000E+00 0.  1.
          6    2    1    2  501    0 -0.11758527704E+03 -0.44456758119E+02  0.12074839863E+03  0.24430229662E+03  0.17117457650E+03 0.  0.
         24    2    3    3    0    0 -0.71399961847E+02 -0.87093573166E+02  0.45072623075E+02  0.14581425499E+03  0.80913599406E+02 0.  0.
         -6    2    1    2    0  502  0.11758527704E+03  0.44456758119E+02  0.26872398979E+03  0.34435456603E+03  0.17482786888E+03 0.  0.
        -24    2    5    5    0    0 -0.10686193524E+02 -0.56877449833E+01  0.11919983471E+03  0.14101346270E+03  0.74361622437E+02 0.  0.
          5    1    3    3  501    0 -0.46185315198E+02  0.42636815048E+02  0.75675775554E+02  0.98488041625E+02  0.47000000000E+01 0. -1.
        -13    1    4    4    0    0 -0.80460286164E+02 -0.71409452324E+02  0.12182301543E+02  0.10826622743E+03  0.00000000000E+00 0.  1.
         14    1    4    4    0    0  0.90603243163E+01 -0.15684120843E+02  0.32890321532E+02  0.37548027562E+02  0.00000000000E+00 0. -1.
         -5    1    5    5    0  502  0.12827147057E+03  0.50144503102E+02  0.14952415507E+03  0.20334110333E+03  0.47000000000E+01 0.  1.
         11    1    6    6    0    0  0.19576957151E+02  0.21631070671E+02  0.76975132794E+02  0.82318476288E+02  0.00000000000E+00 0. -1.
        -12    1    6    6    0    0 -0.30263150675E+02 -0.27318815655E+02  0.42224701920E+02  0.58694986411E+02  0.00000000000E+00 0.  1.
</event>
<event>
12    1  0.8052519E-002  0.1797279E+03  0.7818608E-02  0.1171379E+00
         21   -1    0    0  501  502  0.00000000000E+00  0.00000000000E+00  0.24115575512E+03  0.24115575512E+03  0.00000000000E+00 0.  1.
         21   -1    0    0  502  503 -0.00000000000E+00 -0.00000000000E+00 -0.14706761890E+03  0.14706761890E+03  0.00000000000E+00 0.  1.
         -6    2    1    2    0  503 -0.51571228559E+02  0.23058888582E+01 -0.30709713377E+02  0.16941614284E+03  0.15841033495E+03 0.  0.
        -24    2    3    3    0    0  0.56806967494E+01  0.46005565403E+02 -0.29932878171E+02  0.97234856102E+02  0.80061586806E+02 0.  0.
          6    2    1    2  501    0  0.51571228559E+02 -0.23058888582E+01  0.12479784960E+03  0.21880723118E+03  0.17215455966E+03 0.  0.
         24    2    5    5    0    0  0.41995483413E+02 -0.67417857049E+02  0.89310533052E+02  0.14388925648E+03  0.80118404511E+02 0.  0.
          5    1    5    5  501    0  0.95757451460E+01  0.65111968190E+02  0.35487316552E+02  0.74917974698E+02  0.47000000000E+01 0. -1.
        -11    1    6    6    0    0  0.34919229411E+01  0.62855042681E+01  0.52433619678E+02  0.52924338090E+02  0.00000000000E+00 0.  1.
         12    1    6    6    0    0  0.38503560472E+02 -0.73703361317E+02  0.36876913374E+02  0.90964918394E+02  0.00000000000E+00 0. -1.
         -5    1    3    3    0  503 -0.57251925308E+02 -0.43699676545E+02 -0.77683520631E+00  0.72181286734E+02  0.47000000000E+01 0.  1.
         11    1    4    4    0    0  0.98174350662E+01  0.54927748026E+02  0.94938235716E+01  0.56600107955E+02  0.00000000000E+00 0. -1.
        -12    1    4    4    0    0 -0.41367383169E+01 -0.89221826228E+01 -0.39426701742E+02  0.40634748147E+02  0.00000000000E+00 0.  1.
</event>
<event>
12    1  0.8052519E-002  0.1981647E+03  0.7818608E-02  0.1152409E+00
         21   -1    0    0  503  502  0.00000000000E+00  0.00000000000E+00  0.13700035818E+03  0.13700035818E+03  0.00000000000E+00 0. -1.
         21   -1    0    0  501  503 -0.00000000000E+00 -0.00000000000E+00 -0.30369369783E+03  0.30369369783E+03  0.00000000000E+00 0. -1.
          6    2    1    2  501    0  0.54105031722E+01  0.83063888298E+02 -0.14484692110E+03  0.24132878680E+03  0.17415530340E+03 0.  0.
         24    2    3    3    0    0  0.15285681433E+02 -0.20741611808E+02 -0.43918775871E+02  0.96133464912E+02  0.81540895781E+02 0.  0.
         -6    2    1    2    0  502 -0.54105031722E+01 -0.83063888298E+02 -0.21846418550E+02  0.19936526922E+03  0.17983426115E+03 0.  0.
        -24    2    5    5    0    0 -0.62073877855E+02 -0.96101090234E+02 -0.64637060440E+01  0.13903762623E+03  0.78747039024E+02 0.  0.
          5    1    3    3  501    0 -0.98751782606E+01  0.10380550011E+03 -0.10092814523E+03  0.14519532188E+03  0.47000000000E+01 0. -1.
        -11    1    4    4    0    0 -0.36722816253E-01  0.19642033833E+02  0.13827267454E+02  0.24020911034E+02  0.00000000000E+00 0.  1.
         12    1    4    4    0    0  0.15322404249E+02 -0.40383645641E+02 -0.57746043324E+02  0.72112553878E+02  0.00000000000E+00 0. -1.
         -5    1    5    5    0  502  0.56663374683E+02  0.13037201936E+02 -0.15382712506E+02  0.60327642991E+02  0.47000000000E+01 0.  1.
         13    1    6    6    0    0  0.25667082612E+01 -0.13910831568E+02  0.25958321525E+02  0.29562369367E+02  0.00000000000E+00 0. -1.
        -14    1    6    6    0    0 -0.64640586116E+02 -0.82190258666E+02 -0.32422027569E+02  0.10947525686E+03  0.00000000000E+00 0.  1.
</event>
<event>
12    1  0.8052519E-002  0.2049199E+03  0.7818608E-02  0.1146113E+00
         21   -1    0    0  503  502  0.00000000000E+00  0.00000000000E+00  0.48645221951E+03  0.48645221951E+03  0.00000000000E+00 0.  1.
         21   -1    0    0  501  503 -0.00000000000E+00 -0.00000000000E+00 -0.13100362305E+03  0.13100362305E+03  0.00000000000E+00 0.  1.
          6    2    1    2  501    0  0.97382152781E+02 -0.54043360493E+02 -0.38233668818E+01  0.20495559161E+03  0.17201223184E+03 0.  0.
         24    2    3    3    0    0  0.64264265395E+02 -0.60954697662E+02 -0.64413541590E+02  0.13540115021E+03  0.79617813116E+02 0.  0.
         -6    2    1    2    0  502 -0.97382152781E+02  0.54043360493E+02  0.35927196334E+03  0.41250025095E+03  0.16934032271E+03 0.  0.
        -24    2    5    5    0    0  0.31165653917E+01 -0.17442742698E+02  0.12366763381E+03  0.14652704666E+03  0.76567156787E+02 0.  0.
          5    1    3    3  501    0  0.33117887387E+02  0.69113371685E+01  0.60590174708E+02  0.69554441394E+02  0.47000000000E+01 0. -1.
        -13    1    4    4    0    0 -0.19218761238E+01 -0.38540606414E+02  0.24768484856E+01  0.38667903086E+02  0.00000000000E+00 0.  1.
         14    1    4    4    0    0  0.66186141518E+02 -0.22414091248E+02 -0.66890390076E+02  0.96733247128E+02  0.00000000000E+00 0. -1.
         -5    1    5    5    0  502 -0.10049871817E+03  0.71486103192E+02  0.23560432953E+03  0.26597320428E+03  0.47000000000E+01 0.  1.
         11    1    6    6    0    0  0.13145568057E+02  0.14044038216E+02  0.75664453464E+00  0.19251324108E+02  0.00000000000E+00 0. -1.
        -12    1    6    6    0    0 -0.10029002665E+02 -0.31486780914E+02  0.12291098928E+03  0.12727572256E+03  0.00000000000E+00 0.  1.
</event>
<event>
12    1  0.8052519E-002  0.1907185E+03  0.7818608E-02  0.1158096E+00
         21   -1    0    0  501  502  0.00000000000E+00  0.00000000000E+00  0.20301621551E+03  0.20301621551E+03  0.00000000000E+00 0.  1.
         21   -1    0    0  502  503 -0.00000000000E+00 -0.00000000000E+00 -0.58270989127E+03  0.58270989127E+03  0.00000000000E+00 0.  1.
         -6    2    1    2    0  503  0.75162400521E+02  0.30377724154E+02 -0.51706369859E+03  0.55068554920E+03  0.17125277551E+03 0.  0.
        -24    2    3    3    0    0  0.24810889829E+02  0.55497940274E+02 -0.13250184060E+03  0.16200031342E+03  0.70652403776E+02 0.  0.
          6    2    1    2  501    0 -0.75162400521E+02 -0.30377724154E+02  0.13737002282E+03  0.23504055758E+03  0.17263066924E+03 0.  0.
         24    2    5    5    0    0 -0.69249817081E+02 -0.34659524821E+02  0.16871600794E+03  0.20251436441E+03  0.80933037938E+02 0.  0.
          5    1    5    5  501    0 -0.59125834394E+01  0.42818006664E+01 -0.31345985112E+02  0.32526193176E+02  0.47000000000E+01 0. -1.
        -13    1    6    6    0    0 -0.24294932626E+02  0.22178207232E+02  0.88480943407E+02  0.94398061281E+02  0.00000000000E+00 0.  1.
         14    1    6    6    0    0 -0.44954884456E+02 -0.56837732053E+02  0.80235064530E+02  0.10811630312E+03  0.00000000000E+00 0. -1.
         -5    1    3    3    0  503  0.50351510692E+02 -0.25120216120E+02 -0.38456185799E+03  0.38868523577E+03  0.47000000000E+01 0.  1.
         11    1    4    4    0    0 -0.55477563290E+01  0.22922555903E+02 -0.10924941894E+03  0.11176608031E+03  0.00000000000E+00 0. -1.
        -12    1    4    4    0    0  0.30358646157E+02  0.32575384371E+02 -0.23252421655E+02  0.50234233111E+02  0.00000000000E+00 0.  1.
</event>
<event>
12    1  0.8052519E-002  0.2104970E+03  0.7818608E-02  0.1141186E+00
         21   -1    0    0  501  502  0.00000000000E+00  0.00000000000E+00  0.37107326180E+03  0.37107326180E+03  0.00000000000E+00 0. -1.
         21   -1    0    0  502  503 -0.00000000000E+00 -0.00000000000E+00 -0.18993031712E+03  0.18993031712E+03  0.00000000000E+00 0. -1.
         -6    2    1    2    0  503 -0.11765638231E+03 -0.26290900674E+02 -0.80388138826E+02  0.22532470205E+03  0.17255356482E+03 0.  0.
        -24    2    3    3    0    0 -0.73682422101E+02 -0.77783971835E+02 -0.51675875413E+02  0.15162443323E+03  0.94021949836E+02 0.  0.
          6    2    1    2  501    0  0.11765638231E+03  0.26290900674E+02  0.26153108350E+03  0.33567887687E+03  0.17247482420E+03 0.  0.
         24    2    5    5    0    0  0.13965307425E+03  0.40560948028E+02  0.25974189220E+03  0.30898093850E+03  0.82796123957E+02 0.  0.
          5    1    5    5  501    0 -0.21996691936E+02 -0.14270047354E+02  0.17891912987E+01  0.26697938369E+02  0.47000000000E+01 0. -1.
        -13    1    6    6    0    0  0.10839640166E+03 -0.87388658317E+01  0.17647649118E+03  0.20729230475E+03  0.00000000000E+00 0.  1.
         14    1    6    6    0    0  0.31256672593E+02  0.49299813860E+02  0.83265401019E+02  0.10168863376E+03  0.00000000000E+00 0. -1.
         -5    1    3    3    0  503 -0.43973960212E+02  0.51493071161E+02 -0.28712263412E+02  0.73700268823E+02  0.47000000000E+01 0.  1.
         13    1    4    4    0    0 -0.77714630991E+02 -0.16182754530E+02 -0.18368075643E+02  0.81479025627E+02  0.00000000000E+00 0. -1.
        -14    1    4    4    0    0  0.40322088904E+01 -0.61601217305E+02 -0.33307799770E+02  0.70145407601E+02  0.00000000000E+00 0.  1.
</event>
<event>
12    1  0.8052519E-002  0.1860827E+03  0.7818608E-02  0.1162483E+00
         21   -1    0    0  503  502  0.00000000000E+00  0.00000000000E+00  0.19352355118E+03  0.19352355118E+03  0.00000000000E+00 0.  1.
         21   -1    0    0  501  503 -0.00000000000E+00 -0.00000000000E+00 -0.34738337103E+03  0.34738337103E+03  0.00000000000E+00 0.  1.
          6    2    1    2  501    0 -0.14605404606E+02 -0.68902452538E+02 -0.26647404478E+03  0.32501567629E+03  0.17223793856E+03 0.  0.
         24    2    3    3    0    0  0.56489672725E+02 -0.57174903012E+02 -0.17173731428E+03  0.20589731690E+03  0.80249282418E+02 0.  0.
         -6    2    1    2    0  502  0.14605404606E+02  0.68902452538E+02  0.11261422492E+03  0.21589124592E+03  0.17019459628E+03 0.  0.
        -24    2    5    5    0    0 -0.73005475715E+01 -0.33944462730E+02  0.43861741854E+02  0.90167928083E+02  0.70716888445E+02 0.  0.
          5    1    3    3  501    0 -0.71095077331E+02 -0.11727549526E+02 -0.94736730497E+02  0.11911835939E+03  0.47000000000E+01 0. -1.
        -13    1    4    4    0    0 -0.88469436072E+01 -0.42148286899E+02 -0.43615456176E+02  0.61294816397E+02  0.00000000000E+00 0.  1.
         14    1    4    4    0    0  0.65336616332E+02 -0.15026616113E+02 -0.12812185811E+03  0.14460250050E+03  0.00000000000E+00 0. -1.
         -5    1    5    5    0  502  0.21905952177E+02  0.10284691527E+03  0.68752483069E+02  0.12572331784E+03  0.47000000000E+01 0.  1.
         13    1    6    6    0    0 -0.22837832342E+02  0.14341425142E+02  0.82858630875E+01  0.28211674681E+02  0.00000000000E+00 0. -1.
        -14    1    6    6    0    0  0.15537284770E+02 -0.48285887872E+02  0.35575878766E+02  0.61956253402E+02  0.00000000000E+00 0.  1.
</event>
<event>
12    1  0.8052519E-002  0.2416555E+03  0.7818608E-02  0.1119108E+00
         21   -1    0    0  503  502  0.00000000000E+00  0.00000000000E+00  0.85783475170E+02  0.85783475170E+02  0.00000000000E+00 0. -1.
         21   -1    0    0  501  503 -0.00000000000E+00 -0.00000000000E+00 -0.10473743949E+04  0.10473743949E+04  0.00000000000E+00 0. -1.
          6    2    1    2  501    0  0.12001596377E+03  0.12200069640E+03 -0.82078513476E+03  0.85562003118E+03  0.17061476735E+03 0.  0.
         24    2    3    3    0    0  0.79434050272E+02  0.23351657069E+02 -0.51000424063E+03  0.52700874285E+03  0.10382110262E+03 0.  0.
         -6    2    1    2    0  502 -0.12001596377E+03 -0.12200069640E+03 -0.14080578497E+03  0.27753783888E+03  0.16707178531E+03 0.  0.
        -24    2    5    5    0    0 -0.53626320744E+02 -0.30273622448E+02 -0.12941682191E+03  0.16363771036E+03  0.78970323316E+02 0.  0.
          5    1    3    3  501    0  0.40581913501E+02  0.98649039336E+02 -0.31078089412E+03  0.32861128833E+03  0.47000000000E+01 0. -1.
        -13    1    4    4    0    0  0.41816059350E+02 -0.28340531320E+02 -0.99838679180E+02  0.11189070737E+03  0.00000000000E+00 0.  1.
         14    1    4    4    0    0  0.37617990922E+02  0.51692188389E+02 -0.41016556145E+03  0.41511803548E+03  0.00000000000E+00 0. -1.
         -5    1    5    5    0  502 -0.66389643029E+02 -0.91727073957E+02 -0.11388963054E+02  0.11390012852E+03  0.47000000000E+01 0.  1.
         13    1    6    6    0    0 -0.25704388261E+02 -0.17756153288E+02 -0.61075903177E+00  0.31246913160E+02  0.00000000000E+00 0. -1.
        -14    1    6    6    0    0 -0.27921932483E+02 -0.12517469160E+02 -0.12880606288E+03  0.13239079720E+03  0.00000000000E+00 0.  1.
</event>
<event>
12    1  0.8052519E-002  0.1832613E+03  0.7818608E-02  0.1165154E+00
         21   -1    0    0  503  502  0.00000000000E+00  0.00000000000E+00  0.54323454334E+03  0.54323454334E+03  0.00000000000E+00 0.  1.
         21   -1    0    0  501  503 -0.00000000000E+00 -0.00000000000E+00 -0.61221442401E+02  0.61221442401E+02  0.00000000000E+00 0.  1.
          6    2    1    2  501    0 -0.45301384016E+02  0.36853699354E+02  0.23253513700E+03  0.29606973156E+03  0.17370747093E+03 0.  0.
         24    2    3    3    0    0 -0.84955557738E+02  0.48612068144E+02  0.21814569457E+03  0.25202590357E+03  0.79680186066E+02 0.  0.
         -6    2    1    2    0  502  0.45301384016E+02 -0.36853699354E+02  0.24947796395E+03  0.30838625419E+03  0.17161706421E+03 0.  0.
        -24    2    5    5    0    0 -0.19815296189E+02 -0.32488834862E+02  0.60048970677E+02  0.10797500806E+03  0.81268401810E+02 0.  0.
          5    1    3    3  501    0  0.39654173722E+02 -0.11758368790E+02  0.14389442425E+02  0.44043827984E+02  0.47000000000E+01 0. -1.
        -13    1    4    4    0    0 -0.39092046792E+02 -0.15755655580E+02  0.11214203791E+03  0.11980094103E+03  0.00000000000E+00 0.  1.
         14    1    4    4    0    0 -0.45863510946E+02  0.64367723724E+02  0.10600365666E+03  0.13222496254E+03  0.00000000000E+00 0. -1.
         -5    1    5    5    0  502  0.65116680205E+02 -0.43648644918E+01  0.18942899327E+03  0.20041124613E+03  0.47000000000E+01 0.  1.
         13    1    6    6    0    0 -0.11485018098E+02 -0.24322334872E+02 -0.15826286208E+02  0.31208219262E+02  0.00000000000E+00 0. -1.
        -14    1    6    6    0    0 -0.83302780910E+01 -0.81664999901E+01  0.75875256886E+02  0.76766788800E+02  0.00000000000E+00 0.  1.
</event>
<event>
12    1  0.8052519E-002  0.1757576E+03  0.7818608E-02  0.1172435E+00
         21   -1    0    0  501  502  0.00000000000E+00  0.00000000000E+00  0.51099990339E+02  0.51099990339E+02  0.00000000000E+00 0. -1.
         21   -1    0    0  502  503 -0.00000000000E+00 -0.00000000000E+00 -0.25238192449E+04  0.25238192449E+04  0.00000000000E+00 0. -1.
         -6    2    1    2    0  503  0.29789334100E+02 -0.73548524337E+01 -0.23624732928E+04  0.23690020681E+04  0.17305849102E+03 0.  0.
        -24    2    3    3    0    0  0.34635033036E+02  0.20561588703E+02 -0.22787330374E+04  0.22804733787E+04  0.79449421638E+02 0.  0.
          6    2    1    2  501    0 -0.29789334100E+02  0.73548524337E+01 -0.11024596182E+03  0.20591716717E+03  0.17119056445E+03 0.  0.
         24    2    5    5    0    0 -0.73175940970E+02 -0.33415649816E+02 -0.82630895942E+02  0.14011964919E+03  0.79588486197E+02 0.  0.
          5    1    5    5  501    0  0.43386606870E+02  0.40770502250E+02 -0.27615065880E+02  0.65797517984E+02  0.47000000000E+01 0. -1.
        -11    1    6    6    0    0 -0.33934895333E+02  0.10584040397E+02 -0.71882622957E+02  0.80191711015E+02  0.00000000000E+00 0.  1.
         12    1    6    6    0    0 -0.39241045637E+02 -0.43999690213E+02 -0.10748272985E+02  0.59927938174E+02  0.00000000000E+00 0. -1.
         -5    1    3    3    0  503 -0.48456989355E+01 -0.27916441137E+02 -0.83740255389E+02  0.88528689454E+02  0.47000000000E+01 0.  1.
         11    1    4    4    0    0 -0.21455274158E+02  0.10086968225E+02 -0.30668158149E+03  0.30759659969E+03  0.00000000000E+00 0. -1.
        -12    1    4    4    0    0  0.56090307194E+02  0.10474620479E+02 -0.19720514559E+04  0.19728767790E+04  0.00000000000E+00 0.  1.
</event>
<event>
12    1  0.8052519E-002  0.1886972E+03  0.7818608E-02  0.1159876E+00
         21   -1    0    0  503  502  0.00000000000E+00  0.00000000000E+00  0.85960074749E+02  0.85960074749E+02  0.00000000000E+00 0.  1.
         21   -1    0    0  501  503 -0.00000000000E+00 -0.00000000000E+00 -0.65243010929E+03  0.65243010929E+03  0.00000000000E+00 0.  1.
          6    2    1    2  501    0  0.70089598075E+02  0.27461611555E+02 -0.50688203429E+03  0.54050795112E+03  0.17190915238E+03 0.  0.
         24    2    3    3    0    0  0.95826967574E+02 -0.25429067557E+02 -0.31276334876E+03  0.33761884299E+03  0.79599784075E+02 0.  0.
         -6    2    1    2    0  502 -0.70089598075E+02 -0.27461611555E+02 -0.59588000259E+02  0.19788223292E+03  0.17303166319E+03 0.  0.
        -24    2    5    5    0    0  0.28348386404E+02 -0.10814660071E+02 -0.32023038655E+02  0.94204487530E+02  0.83237146647E+02 0.  0.
          5    1    3    3  501    0 -0.25737369499E+02  0.52890679111E+02 -0.19411868553E+03  0.20288910813E+03  0.47000000000E+01 0. -1.
        -11    1    4    4    0    0  0.38806263647E+02 -0.20975495396E+02 -0.24502437643E+03  0.24896353659E+03  0.00000000000E+00 0.  1.
         12    1    4    4    0    0  0.57020703926E+02 -0.44535721608E+01 -0.67738972326E+02  0.88655306401E+02  0.00000000000E+00 0. -1.
         -5    1    5    5    0  502 -0.98437984478E+02 -0.16646951483E+02 -0.27564961604E+02  0.10367774539E+03  0.47000000000E+01 0.  1.
         11    1    6    6    0    0  0.10259155443E+02  0.25480357619E+02 -0.44043956904E+02  0.51907311957E+02  0.00000000000E+00 0. -1.
        -12    1    6    6    0    0  0.18089230961E+02 -0.36295017691E+02  0.12020918249E+02  0.42297175573E+02  0.00000000000E+00 0.  1.
</event>
<event>
12    1  0.8052519E-002  0.1850912E+03  0.7818608E-02  0.1163203E+00
         21   -1    0    0  503  502  0.00000000000E+00  0.00000000000E+00  0.96263116790E+02  0.96263116790E+02  0.00000000000E+00 0. -1.
         21   -1    0    0  501  503 -0.00000000000E+00 -0.00000000000E+00 -0.36250785231E+03  0.36250785231E+03  0.00000000000E+00 0. -1.
          6    2    1    2  501    0  0.65515211729E+02  0.13468637982E+01 -0.16804868612E+03  0.24924480242E+03  0.17201323674E+03 0.  0.
         24    2    3    3    0    0  0.82065742434E+02  0.16438810823E+02 -0.18677326767E+03  0.21967476884E+03  0.79798057417E+02 0.  0.
         -6    2    1    2    0  502 -0.65515211729E+02 -0.13468637982E+01 -0.98196049394E+02  0.20952616668E+03  0.17310312937E+03 0.  0.
        -24    2    5    5    0    0 -0.79302969386E+02  0.31447811548E+02 -0.13279907330E+02  0.11733921437E+03  0.79462000267E+02 0.  0.
          5    1    3    3  501    0 -0.16550530704E+02 -0.15091947025E+02  0.18724581547E+02  0.29570033576E+02  0.47000000000E+01 0. -1.
        -11    1    4    4    0    0 -0.15124152625E+02  0.29421731208E+01 -0.13210944663E+02  0.20295946250E+02  0.00000000000E+00 0.  1.
         12    1    4    4    0    0  0.97189895059E+02  0.13496637702E+02 -0.17356232300E+03  0.19937882259E+03  0.00000000000E+00 0. -1.
         -5    1    5    5    0  502  0.13787757657E+02 -0.32794675346E+02 -0.84916142064E+02  0.92186952305E+02  0.47000000000E+01 0.  1.
         13    1    6    6    0    0 -0.48122753795E+02  0.47982261473E+02 -0.34443716588E+02  0.76187049170E+02  0.00000000000E+00 0. -1.
        -14    1    6    6    0    0 -0.31180215591E+02 -0.16534449925E+02  0.21163809257E+02  0.41152165203E+02  0.00000000000E+00 0.  1.
</event>
<event>
12    1  0.8052519E-002  0.1820613E+03  0.7818608E-02  0.1165920E+00
         21   -1    0    0  503  502  0.00000000000E+00  0.00000000000E+00  0.35043259737E+02  0.35043259737E+02  0.00000000000E+00 0.  1.
         21   -1    0    0  501  503 -0.00000000000E+00 -0.00000000000E+00 -0.12497767820E+04  0.12497767820E+04  0.00000000000E+00 0.  1.
          6    2    1    2  501    0  0.22222760238E+02  0.55137964830E+02 -0.92473970517E+03  0.94241278996E+03  0.17165167672E+03 0.  0.
         24    2    3    3    0    0 -0.79969462953E+01  0.96968141883E+02 -0.56603553746E+03  0.57998519125E+03  0.80745406730E+02 0.  0.
         -6    2    1    2    0  502 -0.22222760238E+02 -0.55137964830E+02 -0.28999381706E+03  0.34240725175E+03  0.17208214863E+03 0.  0.
        -24    2    5    5    0    0 -0.34086556059E+02  0.11808144802E+02 -0.24826533145E+03  0.26249550194E+03  0.77245635160E+02 0.  0.
          5    1    3    3  501    0  0.30219706533E+02 -0.41830177053E+02 -0.35870416771E+03  0.36242759871E+03  0.47000000000E+01 0. -1.
        -11    1    4    4    0    0  0.10858493386E+02  0.10018404812E+03 -0.38602327498E+03  0.39895954583E+03  0.00000000000E+00 0.  1.
         12    1    4    4    0    0 -0.18855439681E+02 -0.32159062358E+01 -0.18001226247E+03  0.18102564542E+03  0.00000000000E+00 0. -1.
         -5    1    5    5    0  502  0.11863795821E+02 -0.66946109632E+02 -0.41728485618E+02  0.79911749813E+02  0.47000000000E+01 0.  1.
         11    1    6    6    0    0  0.16749499201E+02  0.23604205267E+02 -0.13072525589E+03  0.13389098833E+03  0.00000000000E+00 0. -1.
        -12    1    6    6    0    0 -0.50836055260E+02 -0.11796060466E+02 -0.11754007556E+03  0.12860451360E+03  0.00000000000E+00 0.  1.
</event>
<event>
12    1  0.8052519E-002  0.2639430E+03  0.7818608E-02  0.1105211E+00
         21   -1    0    0  503  502  0.00000000000E+00  0.00000000000E+00  0.25698232438E+03  0.25698232438E+03  0.00000000000E+00 0.  1.
         21   -1    0    0  501  503 -0.00000000000E+00 -0.00000000000E+00 -0.58159078227E+03  0.58159078227E+03  0.00000000000E+00 0. -1.
          6    2    1    2  501    0  0.65240414775E+02 -0.18952891810E+03 -0.46967152806E+03  0.53739343404E+03  0.16740022749E+03 0.  0.
         24    2    3    3    0    0  0.31584728268E+02 -0.14167265016E+03 -0.19184088309E+03  0.25343061095E+03  0.79720858491E+02 0.  0.
         -6    2    1    2    0  502 -0.65240414775E+02  0.18952891810E+03  0.14506307017E+03  0.30117967261E+03  0.17172180511E+03 0.  0.
        -24    2    5    5    0    0  0.47261798516E+01  0.17183854196E+03  0.12199302019E+03  0.22526794112E+03  0.79451413094E+02 0.  0.
          5    1    3    3  501    0  0.33655686507E+02 -0.47856267948E+02 -0.27783064497E+03  0.28396282309E+03  0.47000000000E+01 0. -1.
        -11    1    4    4    0    0  0.56162909040E+02 -0.10223592810E+03 -0.15577496593E+03  0.19460806088E+03  0.00000000000E+00 0.  1.
         12    1    4    4    0    0 -0.24578180772E+02 -0.39436722057E+02 -0.36065917156E+02  0.58822550072E+02  0.00000000000E+00 0. -1.
         -5    1    5    5    0  502 -0.69966594626E+02  0.17690376144E+02  0.23070049978E+02  0.75911731489E+02  0.47000000000E+01 0.  1.
         13    1    6    6    0    0  0.32051415725E+01  0.17712290977E+03  0.10175477318E+03  0.20429594211E+03  0.00000000000E+00 0. -1.
        -14    1    6    6    0    0  0.15210382791E+01 -0.52843678064E+01  0.20238247011E+02  0.20971999014E+02  0.00000000000E+00 0.  1.
</event>
<event>
12    1  0.8052519E-002  0.2387517E+03  0.7818608E-02  0.1120878E+00
         21   -1    0    0  501  502  0.00000000000E+00  0.00000000000E+00  0.14082963559E+03  0.14082963559E+03  0.00000000000E+00 0.  1.
         21   -1    0    0  502  503 -0.00000000000E+00 -0.00000000000E+00 -0.16753397437E+04  0.16753397437E+04  0.00000000000E+00 0.  1.
         -6    2    1    2    0  503 -0.52616106967E+02 -0.15859492131E+03 -0.15582786909E+04  0.15762375223E+04  0.16843825114E+03 0.  0.
        -24    2    3    3    0    0  0.47981978034E+01 -0.55308145379E+02 -0.38514665433E+03  0.39715931214E+03  0.79470499116E+02 0.  0.
          6    2    1    2  501    0  0.52616106967E+02  0.15859492131E+03  0.23768582772E+02  0.23993185700E+03  0.17053312494E+03 0.  0.
         24    2    5    5    0    0  0.76396090617E+02  0.11929835147E+03 -0.34007245387E+02  0.16597346097E+03  0.79512500180E+02 0.  0.
          5    1    5    5  501    0 -0.23779983650E+02  0.39296569845E+02  0.57775828159E+02  0.73958396030E+02  0.47000000000E+01 0. -1.
        -11    1    6    6    0    0  0.17076954939E+02  0.23544007363E+02  0.25411710572E+02  0.38622502598E+02  0.00000000000E+00 0.  1.
         12    1    6    6    0    0  0.59319135678E+02  0.95754344103E+02 -0.59418955959E+02  0.12735095838E+03  0.00000000000E+00 0. -1.
         -5    1    3    3    0  503 -0.57414304771E+02 -0.10328677593E+03 -0.11731320365E+04  0.11790782101E+04  0.47000000000E+01 0.  1.
         11    1    4    4    0    0  0.19669806145E+02  0.12740699269E+02 -0.15311385479E+03  0.15489699552E+03  0.00000000000E+00 0. -1.
        -12    1    4    4    0    0 -0.14871608342E+02 -0.68048844647E+02 -0.23203279954E+03  0.24226231662E+03  0.00000000000E+00 0.  1.
</event>
<event>
12    1  0.8052519E-002  0.1723259E+03  0.7818608E-02  0.1175704E+00
         21   -1    0    0  503  502  0.00000000000E+00  0.00000000000E+00  0.92388309964E+03  0.92388309964E+03  0.00000000000E+00 0. -1.
         21   -1    0    0  501  503 -0.00000000000E+00 -0.00000000000E+00 -0.31968009345E+02  0.31968009345E+02  0.00000000000E+00 0. -1.
          6    2    1    2  501    0 -0.17013097338E+02  0.25649124825E+02  0.45731452358E+03  0.48870520224E+03  0.16955494136E+03 0.  0.
         24    2    3    3    0    0 -0.29810051539E+02  0.69192317095E+02  0.40307043986E+03  0.41782303066E+03  0.80212776687E+02 0.  0.
         -6    2    1    2    0  502  0.17013097338E+02 -0.25649124825E+02  0.43460056672E+03  0.46714590674E+03  0.16852395233E+03 0.  0.
        -24    2    5    5    0    0  0.20372281511E+02 -0.40537382858E+02  0.11747258178E+03  0.14961607637E+03  0.80788944632E+02 0.  0.
          5    1    3    3  501    0  0.12796954201E+02 -0.43543192270E+02  0.54244083715E+02  0.70882171581E+02  0.47000000000E+01 0. -1.
        -11    1    4    4    0    0 -0.11593483054E+02 -0.17752263818E+02  0.75285540910E+02  0.78214221150E+02  0.00000000000E+00 0.  1.
         12    1    4    4    0    0 -0.18216568485E+02  0.86944580914E+02  0.32778489895E+03  0.33960880951E+03  0.00000000000E+00 0. -1.
         -5    1    5    5    0  502 -0.33591841724E+01  0.14888258033E+02  0.31712798494E+03  0.31752983037E+03  0.47000000000E+01 0.  1.
         11    1    6    6    0    0 -0.15285358406E+02 -0.52757483219E+02  0.71691480605E+02  0.90314243663E+02  0.00000000000E+00 0. -1.
        -12    1    6    6    0    0  0.35657639917E+02  0.12220100361E+02  0.45781101173E+02  0.59301832703E+02  0.00000000000E+00 0.  1.
</event>
<event>
12    1  0.8052519E-002  0.2500179E+03  0.7818608E-02  0.1114159E+00
         21   -1    0    0  503  502  0.00000000000E+00  0.00000000000E+00  0.58895028058E+02  0.58895028058E+02  0.00000000000E+00 0.  1.
         21   -1    0    0  501  503 -0.00000000000E+00 -0.00000000000E+00 -0.14241532345E+04  0.14241532345E+04  0.00000000000E+00 0. -1.
          6    2    1    2  501    0  0.14393101635E+03  0.10169794452E+03 -0.10739263966E+04  0.11026453976E+04  0.17734248779E+03 0.  0.
         24    2    3    3    0    0  0.12353896820E+03  0.70679000111E+02 -0.46329598448E+03  0.49086962099E+03  0.77797286955E+02 0.  0.
         -6    2    1    2    0  502 -0.14393101635E+03 -0.10169794452E+03 -0.29133180983E+03  0.38040286502E+03  0.16962755352E+03 0.  0.
        -24    2    5    5    0    0 -0.90810184321E+02 -0.13643682590E+03 -0.21652658425E+03  0.28218614319E+03  0.76705675682E+02 0.  0.
          5    1    3    3  501    0  0.20392048144E+02  0.31018944409E+02 -0.61063041217E+03  0.61177577657E+03  0.47000000000E+01 0. -1.
        -11    1    4    4    0    0  0.42807460339E+02  0.65490588539E+02 -0.18044323215E+03  0.19667550909E+03  0.00000000000E+00 0.  1.
         12    1    4    4    0    0  0.80731507866E+02  0.51884115716E+01 -0.28285275233E+03  0.29419411190E+03  0.00000000000E+00 0. -1.
         -5    1    5    5    0  502 -0.53120832028E+02  0.34738881377E+02 -0.74805225573E+02  0.98216721834E+02  0.47000000000E+01 0.  1.
         13    1    6    6    0    0 -0.27742634341E+02 -0.30954446984E+02 -0.11660710738E+03  0.12379438210E+03  0.00000000000E+00 0. -1.
        -14    1    6    6    0    0 -0.63067549980E+02 -0.10548237891E+03 -0.99919476872E+02  0.15839176109E+03  0.00000000000E+00 0.  1.
</event>
<event>
12    1  0.8052519E-002  0.1793853E+03  0.7818608E-02  0.1168432E+00
         21   -1    0    0  501  502  0.00000000000E+00  0.00000000000E+00  0.54884786690E+03  0.54884786690E+03  0.00000000000E+00 0.  1.
         21   -1    0    0  502  503 -0.00000000000E+00 -0.00000000000E+00 -0.15598852212E+03  0.15598852212E+03  0.00000000000E+00 0.  1.
         -6    2    1    2    0  503 -0.49453274782E+02  0.55119480793E+01 -0.82024596084E+02  0.19724884578E+03  0.17234577117E+03 0.  0.
        -24    2    3    3    0    0  0.16032342227E+02  0.29964635662E+02  0.69935228656E+01  0.83967711137E+02  0.76464055372E+02 0.  0.
          6    2    1    2  501    0  0.49453274782E+02 -0.55119480793E+01  0.47488394086E+03  0.50758754324E+03  0.17220438092E+03 0.  0.
         24    2    5    5    0    0  0.77737472894E+02  0.39890987646E+02  0.38460545438E+03  0.40254603927E+03  0.80545345028E+02 0.  0.
          5    1    5    5  501    0 -0.28284198112E+02 -0.45402935726E+02  0.90278486474E+02  0.10504150397E+03  0.47000000000E+01 0. -1.
        -11    1    6    6    0    0  0.34726605927E+02 -0.21842964164E+02  0.17801175927E+03  0.18267796441E+03  0.00000000000E+00 0.  1.
         12    1    6    6    0    0  0.43010866967E+02  0.61733951810E+02  0.20659369511E+03  0.21986807486E+03  0.00000000000E+00 0. -1.
         -5    1    3    3    0  503 -0.65485617009E+02 -0.24452687582E+02 -0.89018118949E+02  0.11328113464E+03  0.47000000000E+01 0.  1.
         11    1    4    4    0    0  0.21735724058E+02 -0.14697448556E+02 -0.18613828754E+02  0.32170348386E+02  0.00000000000E+00 0. -1.
        -12    1    4    4    0    0 -0.57033818306E+01  0.44662084218E+02  0.25607351620E+02  0.51797362751E+02  0.00000000000E+00 0.  1.
</event>
<event>
12    1  0.8052519E-002  0.2399121E+03  0.7818608E-02  0.1119869E+00
         21   -1    0    0  501  502  0.00000000000E+00  0.00000000000E+00  0.15272894373E+03  0.15272894373E+03  0.00000000000E+00 0. -1.
         21   -1    0    0  502  503 -0.00000000000E+00 -0.00000000000E+00 -0.77833108227E+03  0.77833108227E+03  0.00000000000E+00 0.  1.
         -6    2    1    2    0  503  0.16825842639E+03  0.13789048357E+02 -0.64717835791E+03  0.69017962318E+03  0.17031456017E+03 0.  0.
        -24    2    3    3    0    0  0.58978496962E+02  0.53305923215E+02 -0.42352911906E+03  0.43809876629E+03  0.78953339254E+02 0.  0.
          6    2    1    2  501    0 -0.16825842639E+03 -0.13789048357E+02  0.21576219368E+02  0.24088040283E+03  0.17046055062E+03 0.  0.
         24    2    5    5    0    0 -0.96224570682E+02 -0.68984094042E+02  0.40517672831E+02  0.14805670921E+03  0.79127328386E+02 0.  0.
          5    1    5    5  501    0 -0.72033855710E+02  0.55195045685E+02 -0.18941453463E+02  0.92823693613E+02  0.47000000000E+01 0. -1.
        -11    1    6    6    0    0 -0.12432859850E+02 -0.51575892784E+02 -0.72099469150E+00  0.53058161991E+02  0.00000000000E+00 0.  1.
         12    1    6    6    0    0 -0.83791710832E+02 -0.17408201258E+02  0.41238667522E+02  0.94998547222E+02  0.00000000000E+00 0. -1.
         -5    1    3    3    0  503  0.10927992943E+03 -0.39516874858E+02 -0.22364923884E+03  0.25208085689E+03  0.47000000000E+01 0.  1.
         13    1    4    4    0    0  0.24334743344E+02  0.44930793881E+01 -0.25277472087E+02  0.35373974771E+02  0.00000000000E+00 0. -1.
        -14    1    4    4    0    0  0.34643753619E+02  0.48812843827E+02 -0.39825164698E+03  0.40272479152E+03  0.00000000000E+00 0.  1.
</event>
<event>
12    1  0.8052519E-002  0.2034817E+03  0.7818608E-02  0.1147252E+00
         21   -1    0    0  503  502  0.00000000000E+00  0.00000000000E+00  0.12756396975E+04  0.12756396975E+04  0.00000000000E+00 0. -1.
         21   -1    0    0  501  503 -0.00000000000E+00 -0.00000000000E+00 -0.10301937688E+03  0.10301937688E+03  0.00000000000E+00 0.  1.
          6    2    1    2  501    0 -0.75413459885E+00  0.10500001172E+03  0.15434375033E+02  0.20406625429E+03  0.17429642862E+03 0.  0.
         24    2    3    3    0    0  0.55862464468E+02  0.40140153924E+02 -0.13076571731E+02  0.11325213354E+03  0.89012370651E+02 0.  0.
         -6    2    1    2    0  502  0.75413459885E+00 -0.10500001172E+03  0.11571859456E+04  0.11745928201E+04  0.17194013252E+03 0.  0.
        -24    2    5    5    0    0  0.52629364602E+01 -0.82412907592E+02  0.38339409728E+03  0.40044398358E+03  0.80899717677E+02 0.  0.
          5    1    3    3  501    0 -0.56616599067E+02  0.64859857800E+02  0.28510946765E+02  0.90814120758E+02  0.47000000000E+01 0. -1.
        -11    1    4    4    0    0 -0.23576429898E+02  0.62634627724E+00 -0.10271670710E+00  0.23584972061E+02  0.00000000000E+00 0.  1.
         12    1    4    4    0    0  0.79438894366E+02  0.39513807647E+02 -0.12973855024E+02  0.89667161475E+02  0.00000000000E+00 0. -1.
         -5    1    5    5    0  502 -0.45088018614E+01 -0.22587104132E+02  0.77379184828E+03  0.77414883648E+03  0.47000000000E+01 0.  1.
         13    1    6    6    0    0  0.23984903336E+00 -0.44965207406E+02  0.33976961372E+03  0.34273213712E+03  0.00000000000E+00 0. -1.
        -14    1    6    6    0    0  0.50230874269E+01 -0.37447700186E+02  0.43624483554E+02  0.57711846460E+02  0.00000000000E+00 0.  1.
</event>
<event>
12    1  0.8052519E-002  0.1858413E+03  0.7818608E-02  0.1163887E+00
         21   -1    0    0  503  502  0.00000000000E+00  0.00000000000E+00  0.17747889184E+03  0.17747889184E+03  0.00000000000E+00 0. -1.
         21   -1    0    0  501  503 -0.00000000000E+00 -0.00000000000E+00 -0.18752455109E+03  0.18752455109E+03  0.00000000000E+00 0. -1.
          6    2    1    2  501    0 -0.54576799509E+02  0.32380224304E+02 -0.28736919084E+01  0.18586349307E+03  0.17467075880E+03 0.  0.
         24    2    3    3    0    0  0.63070469522E+01  0.53374688934E+01  0.52804715527E+02  0.98913343933E+02  0.83230067948E+02 0.  0.
         -6    2    1    2    0  502  0.54576799509E+02 -0.32380224304E+02 -0.71719673397E+01  0.17913994987E+03  0.16736958670E+03 0.  0.
        -24    2    5    5    0    0  0.46817222546E+02 -0.30200007291E+01  0.56699617864E+02  0.10826045241E+03  0.79400920393E+02 0.  0.
          5    1    3    3  501    0 -0.60883846461E+02  0.27042755411E+02 -0.55678407436E+02  0.86950149136E+02  0.47000000000E+01 0. -1.
        -11    1    4    4    0    0 -0.12545949954E+02  0.32728341666E+02 -0.16715812615E+01  0.35090445884E+02  0.00000000000E+00 0.  1.
         12    1    4    4    0    0  0.18852996906E+02 -0.27390872772E+02  0.54476296789E+02  0.63822898049E+02  0.00000000000E+00 0. -1.
         -5    1    5    5    0  502  0.77595769629E+01 -0.29360223575E+02 -0.63871585204E+02  0.70879497455E+02  0.47000000000E+01 0.  1.
         13    1    6    6    0    0  0.66259440516E+02 -0.16581897020E+02  0.45278085061E+02  0.81947408458E+02  0.00000000000E+00 0. -1.
        -14    1    6    6    0    0 -0.19442217969E+02  0.13561896290E+02  0.11421532804E+02  0.26313043954E+02  0.00000000000E+00 0.  1.
</event>
<event>
12    1  0.8052519E-002  0.2105727E+03  0.7818608E-02  0.1141230E+00
         21   -1    0    0  503  502  0.00000000000E+00  0.00000000000E+00  0.81843440384E+03  0.81843440384E+03  0.00000000000E+00 0.  1.
         21   -1    0    0  501  503 -0.00000000000E+00 -0.00000000000E+00 -0.56893706870E+02  0.56893706870E+02  0.00000000000E+00 0.  1.
          6    2    1    2  501    0  0.26166324485E+02  0.11997236447E+03  0.47955193667E+03  0.52374699805E+03  0.17106376947E+03 0.  0.
         24    2    3    3    0    0 -0.24157329641E+02  0.11313737244E+03  0.23521475555E+03  0.27414344166E+03  0.80280780772E+02 0.  0.
         -6    2    1    2    0  502 -0.26166324485E+02 -0.11997236447E+03  0.28198876030E+03  0.35158111266E+03  0.17033371091E+03 0.  0.
        -24    2    5    5    0    0  0.51378455883E+02 -0.54865415698E+02  0.13442622678E+03  0.17255904967E+03  0.77821948107E+02 0.  0.
          5    1    3    3  501    0  0.50323654126E+02  0.68349920301E+01  0.24433718112E+03  0.24960355638E+03  0.47000000000E+01 0. -1.
        -11    1    4    4    0    0  0.15612332184E+02  0.89392972228E+02  0.12390921455E+03  0.15358496623E+03  0.00000000000E+00 0.  1.
         12    1    4    4    0    0 -0.39769661825E+02  0.23744400211E+02  0.11130554100E+03  0.12055847544E+03  0.00000000000E+00 0. -1.
         -5    1    5    5    0  502 -0.77544780368E+02 -0.65106948770E+02  0.14756253352E+03  0.17902206299E+03  0.47000000000E+01 0.  1.
         11    1    6    6    0    0  0.10524085352E+01  0.39976937224E+00 -0.99330233630E+01  0.99966160478E+01  0.00000000000E+00 0. -1.
        -12    1    6    6    0    0  0.50326047348E+02 -0.55265185071E+02  0.14435925014E+03  0.16256243362E+03  0.00000000000E+00 0.  1.
</event>
<event>
12    1  0.8052519E-002  0.2187480E+03  0.7818608E-02  0.1134892E+00
         21   -1    0    0  501  502  0.00000000000E+00  0.00000000000E+00  0.70483866332E+03  0.70483866332E+03  0.00000000000E+00 0. -1.
         21   -1    0    0  502  503 -0.00000000000E+00 -0.00000000000E+00 -0.16733253215E+03  0.16733253215E+03  0.00000000000E+00 0. -1.
         -6    2    1    2    0  503  0.12605529137E+03 -0.43920507031E+02 -0.67721418001E+02  0.22862550637E+03  0.17281343781E+03 0.  0.
        -24    2    3    3    0    0  0.72333963745E+02 -0.78378929200E+01 -0.10789383163E+03  0.15231136024E+03  0.79145667469E+02 0.  0.
          6    2    1    2  501    0 -0.12605529137E+03  0.43920507031E+02  0.60522754918E+03  0.64354568910E+03  0.17329662504E+03 0.  0.
         24    2    5    5    0    0 -0.90926944104E+02 -0.35740854602E+02  0.39129049951E+03  0.41252386212E+03  0.86732715624E+02 0.  0.
          5    1    5    5  501    0 -0.35128347266E+02  0.79661361634E+02  0.21393704967E+03  0.23102182698E+03  0.47000000000E+01 0. -1.
        -11    1    6    6    0    0 -0.59953501717E+02  0.28641579746E+01  0.96766126493E+02  0.11386970188E+03  0.00000000000E+00 0.  1.
         12    1    6    6    0    0 -0.30973442388E+02 -0.38605012577E+02  0.29452437302E+03  0.29865416024E+03  0.00000000000E+00 0. -1.
         -5    1    3    3    0  503  0.53721327625E+02 -0.36082614111E+02  0.40172413627E+02  0.76314146130E+02  0.47000000000E+01 0.  1.
         13    1    4    4    0    0 -0.74291103045E+01  0.42526321220E+01 -0.55410392054E+02  0.56067710025E+02  0.00000000000E+00 0. -1.
        -14    1    4    4    0    0  0.79763074050E+02 -0.12090525042E+02 -0.52483439574E+02  0.96243650217E+02  0.00000000000E+00 0.  1.
</event>
<event>
12    1  0.8052519E-002  0.1858481E+03  0.7818608E-02  0.1162336E+00
         21   -1    0    0  503  502  0.00000000000E+00  0.00000000000E+00  0.66375237122E+03  0.66375237122E+03  0.00000000000E+00 0. -1.
         21   -1    0    0  501  503 -0.00000000000E+00 -0.00000000000E+00 -0.13616290833E+03  0.13616290833E+03  0.00000000000E+00 0. -1.
          6    2    1    2  501    0  0.27143557323E+02 -0.63809036459E+02 -0.50840839086E+02  0.19236189649E+03  0.17207539761E+03 0.  0.
         24    2    3    3    0    0  0.40636324487E+02 -0.83906805595E+02  0.13277156357E+02  0.12366559069E+03  0.80157548289E+02 0.  0.
         -6    2    1    2    0  502 -0.27143557323E+02  0.63809036459E+02  0.57843030198E+03  0.60755338307E+03  0.17242718229E+03 0.  0.
        -24    2    5    5    0    0 -0.26432619165E+02 -0.33474373895E+02  0.26610570001E+03  0.28039391988E+03  0.77390501104E+02 0.  0.
          5    1    3    3  501    0 -0.13492767164E+02  0.20097769136E+02 -0.64117995444E+02  0.68696305794E+02  0.47000000000E+01 0. -1.
        -11    1    4    4    0    0  0.40875814973E+02 -0.25092929966E+01 -0.12969157990E+01  0.40973293639E+02  0.00000000000E+00 0.  1.
         12    1    4    4    0    0 -0.23949048587E+00 -0.81397512598E+02  0.14574072156E+02  0.82692297054E+02  0.00000000000E+00 0. -1.
         -5    1    5    5    0  502 -0.71093815775E+00  0.97283410353E+02  0.31232460196E+03  0.32715946319E+03  0.47000000000E+01 0.  1.
         11    1    6    6    0    0  0.59079430724E+01 -0.56910711380E+00  0.19824907310E+03  0.19833790021E+03  0.00000000000E+00 0. -1.
        -12    1    6    6    0    0 -0.32340562238E+02 -0.32905266781E+02  0.67856626912E+02  0.82056019668E+02  0.00000000000E+00 0.  1.
</event>
<event>
12    1  0.8052519E-002  0.2196476E+03  0.7818608E-02  0.1134317E+00
         21   -1    0    0  501  502  0.00000000000E+00  0.00000000000E+00  0.48597182834E+03  0.48597182834E+03  0.00000000000E+00 0.  1.
         21   -1    0    0  502  503 -0.00000000000E+00 -0.00000000000E+00 -0.10184383620E+03  0.10184383620E+03  0.00000000000E+00 0. -1.
         -6    2    1    2    0  503  0.13508352709E+03 -0.18733069748E+02  0.14139239950E+03  0.26045400826E+03  0.17101459758E+03 0.  0.
        -24    2    3    3    0    0  0.36412245688E+02 -0.65077898453E+02  0.69321787845E+02  0.12968655058E+03  0.80325006248E+02 0.  0.
          6    2    1    2  501    0 -0.13508352709E+03  0.18733069748E+02  0.24273559264E+03  0.32736165628E+03  0.17218187732E+03 0.  0.
         24    2    5    5    0    0 -0.58936212398E+02 -0.71119683411E+01  0.22552940854E+03  0.24499344457E+03  0.75061418477E+02 0.  0.
          5    1    5    5  501    0 -0.76147314695E+02  0.25845038089E+02  0.17206184102E+02  0.82368211711E+02  0.47000000000E+01 0. -1.
        -13    1    6    6    0    0 -0.66404899943E+01 -0.34781323243E+02  0.66962454984E+02  0.75748313059E+02  0.00000000000E+00 0.  1.
         14    1    6    6    0    0 -0.52295722404E+02  0.27669354902E+02  0.15856695355E+03  0.16924513151E+03  0.00000000000E+00 0. -1.
         -5    1    3    3    0  503  0.98671281405E+02  0.46344828705E+02  0.72070611657E+02  0.13076745767E+03  0.47000000000E+01 0.  1.
         13    1    4    4    0    0  0.16667401172E+02 -0.15381413468E+02  0.72649955543E+02  0.76107858875E+02  0.00000000000E+00 0. -1.
        -14    1    4    4    0    0  0.19744844516E+02 -0.49696484985E+02 -0.33281676984E+01  0.53578691707E+02  0.00000000000E+00 0.  1.
</event>
<event>
12    1  0.8052519E-002  0.1898790E+03  0.7818608E-02  0.1158729E+00
         21   -1    0    0  501  502  0.00000000000E+00  0.00000000000E+00  0.53705806130E+02  0.53705806130E+02  0.00000000000E+00 0.  1.
         21   -1    0    0  502  503 -0.00000000000E+00 -0.00000000000E+00 -0.70470577242E+03  0.70470577242E+03  0.00000000000E+00 0. -1.
         -6    2    1    2    0  503 -0.37702891703E+02 -0.69282038817E+02 -0.41160945044E+03  0.45329499846E+03  0.17272089334E+03 0.  0.
        -24    2    3    3    0    0  0.41959687830E+02 -0.30762319577E+02 -0.16252962462E+03  0.18892263800E+03  0.81049050338E+02 0.  0.
          6    2    1    2  501    0  0.37702891703E+02  0.69282038817E+02 -0.23939051585E+03  0.30511658009E+03  0.17194999104E+03 0.  0.
         24    2    5    5    0    0 -0.20223083403E+01  0.10055552406E+03 -0.21062902008E+03  0.24676046613E+03  0.80066474844E+02 0.  0.
          5    1    5    5  501    0  0.39725200043E+02 -0.31273485238E+02 -0.28761495770E+02  0.58356113959E+02  0.47000000000E+01 0. -1.
        -13    1    6    6    0    0  0.28089341428E+02  0.11379450140E+02 -0.27799727235E+02  0.41125756184E+02  0.00000000000E+00 0.  1.
         14    1    6    6    0    0 -0.30111649769E+02  0.89176073916E+02 -0.18282929285E+03  0.20563470994E+03  0.00000000000E+00 0. -1.
         -5    1    3    3    0  503 -0.79662579533E+02 -0.38519719240E+02 -0.24907982582E+03  0.26437236047E+03  0.47000000000E+01 0.  1.
         11    1    4    4    0    0  0.44919984933E+02  0.93846959272E+01 -0.12768423820E+03  0.13568029425E+03  0.00000000000E+00 0. -1.
        -12    1    4    4    0    0 -0.29602971032E+01 -0.40147015504E+02 -0.34845386423E+02  0.53242343748E+02  0.00000000000E+00 0.  1.
</event>
<event>
12    1  0.8052519E-002  0.1943540E+03  0.7818608E-02  0.1155444E+00
         21   -1    0    0  501  502  0.00000000000E+00  0.00000000000E+00  0.20794826871E+03  0.20794826871E+03  0.00000000000E+00 0. -1.
         21   -1    0    0  502  503 -0.00000000000E+00 -0.00000000000E+00 -0.26030419517E+03  0.26030419517E+03  0.00000000000E+00 0. -1.
         -6    2    1    2    0  503 -0.45843774066E+02  0.81991912774E+02  0.10559133459E+03  0.21781123895E+03  0.16573436726E+03 0.  0.
        -24    2    3    3    0    0 -0.68804802306E+02  0.74936717680E+02  0.21806456941E+02  0.13052446837E+03  0.78813087759E+02 0.  0.
          6    2    1    2  501    0  0.45843774066E+02 -0.81991912774E+02 -0.15794726105E+03  0.25044122493E+03  0.17014448123E+03 0.  0.
         24    2    5    5    0    0 -0.14595912091E+01  0.18496827587E+02 -0.71878559493E+02  0.10985137219E+03  0.80972425065E+02 0.  0.
          5    1    5    5  501    0  0.47303365275E+02 -0.10048874036E+03 -0.86068701552E+02  0.14058985274E+03  0.47000000000E+01 0. -1.
        -11    1    6    6    0    0 -0.15898383989E+02 -0.27382874098E+02 -0.14067092504E+02  0.34647705535E+02  0.00000000000E+00 0.  1.
         12    1    6    6    0    0  0.14438792780E+02  0.45879701685E+02 -0.57811466989E+02  0.75203666659E+02  0.00000000000E+00 0. -1.
         -5    1    3    3    0  503  0.22961028239E+02  0.70551950935E+01  0.83784877645E+02  0.87286770576E+02  0.47000000000E+01 0.  1.
         13    1    4    4    0    0 -0.85661599029E+02  0.55240706543E+02  0.23296725175E+02  0.10455707825E+03  0.00000000000E+00 0. -1.
        -14    1    4    4    0    0  0.16856796723E+02  0.19696011137E+02 -0.14902682333E+01  0.25967390125E+02  0.00000000000E+00 0.  1.
</event>
<event>
12    1  0.8052519E-002  0.2001517E+03  0.7818608E-02  0.1149928E+00
         21   -1    0    0  503  502  0.00000000000E+00  0.00000000000E+00  0.12418497323E+04  0.12418497323E+04  0.00000000000E+00 0.  1.
         21   -1    0    0  501  503 -0.00000000000E+00 -0.00000000000E+00 -0.43736570317E+02  0.43736570317E+02  0.00000000000E+00 0. -1.
          6    2    1    2  501    0  0.82231180380E+02 -0.53869832140E+02  0.26797760890E+03  0.33447376596E+03  0.17434671033E+03 0.  0.
         24    2    3    3    0    0 -0.11568651358E+02 -0.26356030495E+02  0.51684309667E+02  0.97070524601E+02  0.76960670753E+02 0.  0.
         -6    2    1    2    0  502 -0.82231180380E+02  0.53869832140E+02  0.93013555304E+03  0.95111253661E+03  0.17262382348E+03 0.  0.
        -24    2    5    5    0    0 -0.81604273235E+02  0.79272119597E+02  0.49992506484E+03  0.52012666285E+03  0.87540554045E+02 0.  0.
          5    1    3    3  501    0  0.93799831738E+02 -0.27513801645E+02  0.21629329923E+03  0.23740324136E+03  0.47000000000E+01 0. -1.
        -13    1    4    4    0    0  0.20698447052E+02 -0.14399112249E+01  0.52335084555E+02  0.56297958490E+02  0.00000000000E+00 0.  1.
         14    1    4    4    0    0 -0.32267098410E+02 -0.24916119270E+02 -0.65077488839E+00  0.40772566111E+02  0.00000000000E+00 0. -1.
         -5    1    5    5    0  502 -0.62690714490E+00 -0.25402287457E+02  0.43021048820E+03  0.43098587376E+03  0.47000000000E+01 0.  1.
         11    1    6    6    0    0 -0.65133843698E+02  0.43293876988E+02  0.44835518021E+03  0.45512541678E+03  0.00000000000E+00 0. -1.
        -12    1    6    6    0    0 -0.16470429538E+02  0.35978242609E+02  0.51569884627E+02  0.65001246071E+02  0.00000000000E+00 0.  1.
</event>
<event>
12    1  0.8052519E-002  0.1731037E+03  0.7818608E-02  0.1175280E+00
         21   -1    0    0  503  502  0.00000000000E+00  0.00000000000E+00  0.84414854398E+03  0.84414854398E+03  0.00000000000E+00 0.  1.
         21   -1    0    0  501  503 -0.00000000000E+00 -0.00000000000E+00 -0.38906743580E+02  0.38906743580E+02  0.00000000000E+00 0.  1.
          6    2    1    2  501    0  0.34258168742E+01 -0.10500336935E+02  0.26003189748E+03  0.31102493600E+03  0.17028778527E+03 0.  0.
         24    2    3    3    0    0  0.13124448150E+02 -0.58582821426E+02  0.23175340021E+03  0.25421162620E+03  0.85496867074E+02 0.  0.
         -6    2    1    2    0  502 -0.34258168742E+01  0.10500336935E+02  0.54520990292E+03  0.57203035155E+03  0.17275095242E+03 0.  0.
        -24    2    5    5    0    0 -0.41908813449E+02  0.50722813218E+02  0.44975612521E+03  0.46143061239E+03  0.79425974738E+02 0.  0.
          5    1    3    3  501    0 -0.96986312753E+01  0.48082484490E+02  0.28278497266E+02  0.56813309805E+02  0.47000000000E+01 0. -1.
        -11    1    4    4    0    0 -0.23132556335E+02 -0.33440553652E+02  0.18698586053E+03  0.19135594537E+03  0.00000000000E+00 0.  1.
         12    1    4    4    0    0  0.36257004484E+02 -0.25142267774E+02  0.44767539681E+02  0.62855680826E+02  0.00000000000E+00 0. -1.
         -5    1    5    5    0  502  0.38482996575E+02 -0.40222476282E+02  0.95453777709E+02  0.11059973916E+03  0.47000000000E+01 0.  1.
         11    1    6    6    0    0 -0.42593596908E+02 -0.77915255969E+01  0.15572863579E+03  0.16163641413E+03  0.00000000000E+00 0. -1.
        -12    1    6    6    0    0  0.68478345852E+00  0.58514338814E+02  0.29402748942E+03  0.29979419826E+03  0.00000000000E+00 0.  1.
</event>
<event>
12    1  0.8052519E-002  0.2071785E+03  0.7818608E-02  0.1143940E+00
         21   -1    0    0  501  502  0.00000000000E+00  0.00000000000E+00  0.29480563220E+02  0.29480563220E+02  0.00000000000E+00 0.  1.
         21   -1    0    0  502  503 -0.00000000000E+00 -0.00000000000E+00 -0.21439384375E+04  0.21439384375E+04  0.00000000000E+00 0.  1.
         -6    2    1    2    0  503  0.99086745227E+02  0.56223054807E+02 -0.16736564359E+04  0.16863575602E+04  0.17232742147E+03 0.  0.
        -24    2    3    3    0    0  0.74992364424E+02 -0.19069421642E+02 -0.64013894777E+03  0.64981041481E+03  0.80549395878E+02 0.  0.
          6    2    1    2  501    0 -0.99086745227E+02 -0.56223054807E+02 -0.44080143836E+03  0.48706144058E+03  0.17304254929E+03 0.  0.
         24    2    5    5    0    0  0.58665727649E+01 -0.46804323458E+02 -0.13840863698E+03  0.16679997274E+03  0.80250973471E+02 0.  0.
          5    1    5    5  501    0 -0.10495331799E+03 -0.94187313484E+01 -0.30239280138E+03  0.32026146784E+03  0.47000000000E+01 0. -1.
        -13    1    6    6    0    0  0.56672853878E+01 -0.66646812766E+02 -0.75652312684E+02  0.10098112789E+03  0.00000000000E+00 0.  1.
         14    1    6    6    0    0  0.19928737715E+00  0.19842489308E+02 -0.62756324300E+02  0.65818844847E+02  0.00000000000E+00 0. -1.
         -5    1    3    3    0  503  0.24094380802E+02  0.75292476448E+02 -0.10335174882E+04  0.10365471454E+04  0.47000000000E+01 0.  1.
         11    1    4    4    0    0  0.68700636425E+01 -0.38888782732E+02 -0.27758203620E+03  0.28037710680E+03  0.00000000000E+00 0. -1.
        -12    1    4    4    0    0  0.68122300782E+02  0.19819361090E+02 -0.36255691157E+03  0.36943330801E+03  0.00000000000E+00 0.  1.
</event>
<event>
12    1  0.8052519E-002  0.2904197E+03  0.7818608E-02  0.1090562E+00
         21   -1    0    0  503  502  0.00000000000E+00  0.00000000000E+00  0.19029316007E+03  0.19029316007E+03  0.00000000000E+00 0.  1.
         21   -1    0    0  501  503 -0.00000000000E+00 -0.00000000000E+00 -0.46616878181E+03  0.46616878181E+03  0.00000000000E+00 0.  1.
          6    2    1    2  501    0 -0.12196668345E+03  0.19327505586E+03 -0.21757111435E+03  0.36024750398E+03  0.17381011257E+03 0.  0.
         24    2    3    3    0    0 -0.80119437784E+02  0.20920490416E+03 -0.20491696571E+03  0.31348031982E+03  0.78058515493E+02 0.  0.
         -6    2    1    2    0  502  0.12196668345E+03 -0.19327505586E+03 -0.58304507382E+02  0.29621443791E+03  0.17919949373E+03 0.  0.
        -24    2    5    5    0    0  0.61832302777E+02 -0.12283391473E+03 -0.10704228968E+03  0.19145013327E+03  0.79269776566E+02 0.  0.
          5    1    3    3  501    0 -0.41847245665E+02 -0.15929848299E+02 -0.12654148642E+02  0.46767184162E+02  0.47000000000E+01 0. -1.
        -11    1    4    4    0    0 -0.95728367292E+02  0.17304172264E+03 -0.17400998855E+03  0.26341380790E+03  0.00000000000E+00 0.  1.
         12    1    4    4    0    0  0.15608929508E+02  0.36163181517E+02 -0.30906977160E+02  0.50066511912E+02  0.00000000000E+00 0. -1.
         -5    1    5    5    0  502  0.60134380672E+02 -0.70441141130E+02  0.48737782293E+02  0.10476430463E+03  0.47000000000E+01 0.  1.
         11    1    6    6    0    0  0.36533379917E+02 -0.27263690110E+02 -0.74555530291E+02  0.87387205835E+02  0.00000000000E+00 0. -1.
        -12    1    6    6    0    0  0.25298922860E+02 -0.95570224620E+02 -0.32486759384E+02  0.10406292744E+03  0.00000000000E+00 0.  1.
</event>
<event>
12    1  0.8052519E-002  0.2394351E+03  0.7818608E-02  0.1120331E+00
         21   -1    0    0  501  502  0.00000000000E+00  0.00000000000E+00  0.32115330422E+03  0.32115330422E+03  0.00000000000E+00 0. -1.
         21   -1    0    0  502  503 -0.00000000000E+00 -0.00000000000E+00 -0.68293637223E+03  0.68293637223E+03  0.00000000000E+00 0. -1.
         -6    2    1    2    0  503  0.90415756423E+02  0.14180485246E+03 -0.61257352236E+03  0.65735487547E+03  0.16907243070E+03 0.  0.
        -24    2    3    3    0    0  0.12857888421E+03  0.12039191213E+03 -0.51766865046E+03  0.55274147745E+03  0.80719063755E+02 0.  0.
          6    2    1    2  501    0 -0.90415756423E+02 -0.14180485246E+03  0.25079045435E+03  0.34673480098E+03  0.17042753599E+03 0.  0.
         24    2    5    5    0    0 -0.48306616795E+02 -0.16460240492E+03  0.21690189724E+03  0.28788386775E+03  0.80020043445E+02 0.  0.
          5    1    5    5  501    0 -0.42109139628E+02  0.22797552462E+02  0.33888557110E+02  0.58850933225E+02  0.47000000000E+01 0. -1.
        -11    1    6    6    0    0  0.21232947951E+02 -0.55232800048E+02  0.58392194935E+02  0.83133318887E+02  0.00000000000E+00 0.  1.
         12    1    6    6    0    0 -0.69539564746E+02 -0.10936960487E+03  0.15850970231E+03  0.20475054886E+03  0.00000000000E+00 0. -1.
         -5    1    3    3    0  503 -0.38163127784E+02  0.21412940324E+02 -0.94904871897E+02  0.10461339802E+03  0.47000000000E+01 0.  1.
         13    1    4    4    0    0  0.86095425175E+02  0.52755743802E+02 -0.38376021125E+03  0.39682173640E+03  0.00000000000E+00 0. -1.
        -14    1    4    4    0    0  0.42483459032E+02  0.67636168331E+02 -0.13390843921E+03  0.15591974105E+03  0.00000000000E+00 0.  1.
</event>
<event>
12    1  0.8052519E-002  0.2100499E+03  0.7818608E-02  0.1141896E+00
         21   -1    0    0  503  502  0.00000000000E+00  0.00000000000E+00  0.17128361626E+03  0.17128361626E+03  0.00000000000E+00 0.  1.
         21   -1    0    0  501  503 -0.00000000000E+00 -0.00000000000E+00 -0.25532038010E+03  0.25532038010E+03  0.00000000000E+00 0.  1.
          6    2    1    2  501    0 -0.11305894885E+03 -0.33832870399E+02 -0.42794410463E+02  0.21436489309E+03  0.17376408372E+03 0.  0.
         24    2    3    3    0    0 -0.18232260824E+02 -0.51979133643E+02 -0.62882959622E+02  0.11563785810E+03  0.79897446426E+02 0.  0.
         -6    2    1    2    0  502  0.11305894885E+03  0.33832870399E+02 -0.41242353381E+02  0.21223910326E+03  0.17151535269E+03 0.  0.
        -24    2    5    5    0    0  0.16647715043E+01  0.47671325233E+01  0.19285048273E+02  0.82088666399E+02  0.79631269283E+02 0.  0.
          5    1    3    3  501    0 -0.94826688028E+02  0.18146263244E+02  0.20088549159E+02  0.98727034997E+02  0.47000000000E+01 0. -1.
        -13    1    4    4    0    0 -0.40815816437E+02 -0.23334974283E+02 -0.50813205821E+01  0.47289234663E+02  0.00000000000E+00 0.  1.
         14    1    4    4    0    0  0.22583555612E+02 -0.28644159360E+02 -0.57801639040E+02  0.68348623433E+02  0.00000000000E+00 0. -1.
         -5    1    5    5    0  502  0.11139417735E+03  0.29065737875E+02 -0.60527401654E+02  0.13015043687E+03  0.47000000000E+01 0.  1.
         11    1    6    6    0    0 -0.30700491867E+02  0.21616533491E+02  0.25065610964E+02  0.45145094684E+02  0.00000000000E+00 0. -1.
        -12    1    6    6    0    0  0.32365263371E+02 -0.16849400968E+02 -0.57805626910E+01  0.36943571715E+02  0.00000000000E+00 0.  1.
</event>
<event>
12    1  0.8052519E-002  0.2176035E+03  0.7818608E-02  0.1135805E+00
         21   -1    0    0  501  502  0.00000000000E+00  0.00000000000E+00  0.38264219999E+02  0.38264219999E+02  0.00000000000E+00 0.  1.
         21   -1    0    0  502  503 -0.00000000000E+00 -0.00000000000E+00 -0.12368933661E+04  0.12368933661E+04  0.00000000000E+00 0. -1.
         -6    2    1    2    0  503 -0.57658953794E+02  0.11905993020E+03 -0.56657497885E+03  0.60669386879E+03  0.17196052407E+03 0.  0.
        -24    2    3    3    0    0 -0.42445171329E+02  0.14627622704E+03 -0.53540658923E+03  0.56235715148E+03  0.79918851737E+02 0.  0.
          6    2    1    2  501    0  0.57658953794E+02 -0.11905993020E+03 -0.63205416722E+03  0.66846371727E+03  0.17277571902E+03 0.  0.
         24    2    5    5    0    0  0.51434176618E+02 -0.15347329353E+03 -0.55265015312E+03  0.58157232022E+03  0.81268970436E+02 0.  0.
          5    1    5    5  501    0  0.62247771764E+01  0.34413363329E+02 -0.79404014101E+02  0.86891397053E+02  0.47000000000E+01 0. -1.
        -11    1    6    6    0    0  0.66765928066E+02 -0.13453275206E+03 -0.40553711321E+03  0.43245473834E+03  0.00000000000E+00 0.  1.
         12    1    6    6    0    0 -0.15331751448E+02 -0.18940541473E+02 -0.14711303991E+03  0.14911758188E+03  0.00000000000E+00 0. -1.
         -5    1    3    3    0  503 -0.15213782466E+02 -0.27216296838E+02 -0.31168389616E+02  0.44336717309E+02  0.47000000000E+01 0.  1.
         11    1    4    4    0    0 -0.63167503734E+02  0.88082281068E+02 -0.37895922871E+03  0.39415570374E+03  0.00000000000E+00 0. -1.
        -12    1    4    4    0    0  0.20722332405E+02  0.58193945970E+02 -0.15644736052E+03  0.16820144774E+03  0.00000000000E+00 0.  1.
</event>
<event>
12    1  0.8052519E-002  0.2145293E+03  0.7818608E-02  0.1138168E+00
         21   -1    0    0  501  502  0.00000000000E+00  0.00000000000E+00  0.10082454032E+04  0.10082454032E+04  0.00000000000E+00 0. -1.
         21   -1    0    0  502  503 -0.00000000000E+00 -0.00000000000E+00 -0.49762414135E+02  0.49762414135E+02  0.00000000000E+00 0.  1.
         -6    2    1    2    0  503 -0.85975534258E+02 -0.92713060000E+02  0.63492226253E+03  0.67018585957E+03  0.17330696158E+03 0.  0.
        -24    2    3    3    0    0 -0.28620257769E+02 -0.42866842072E+02  0.53670145763E+03  0.54591321697E+03  0.85534206865E+02 0.  0.
          6    2    1    2  501    0  0.85975534258E+02  0.92713060000E+02  0.32356072653E+03  0.38782195776E+03  0.17241468377E+03 0.  0.
         24    2    5    5    0    0  0.61116000726E+01  0.12203708652E+02  0.55484035232E+02  0.96708223874E+02  0.78023844041E+02 0.  0.
          5    1    5    5  501    0  0.79863934185E+02  0.80509351348E+02  0.26807669130E+03  0.29111373388E+03  0.47000000000E+01 0. -1.
        -11    1    6    6    0    0 -0.30726960494E+02  0.20713751680E+02  0.11702260107E+02  0.38860629196E+02  0.00000000000E+00 0.  1.
         12    1    6    6    0    0  0.36838560567E+02 -0.85100430275E+01  0.43781775125E+02  0.57847594679E+02  0.00000000000E+00 0. -1.
         -5    1    3    3    0  503 -0.57355276489E+02 -0.49846217929E+02  0.98220804903E+02  0.12427264260E+03  0.47000000000E+01 0.  1.
         11    1    4    4    0    0 -0.51632224148E+02 -0.53567601055E+02  0.39013143041E+03  0.39716231877E+03  0.00000000000E+00 0. -1.
        -12    1    4    4    0    0  0.23011966379E+02  0.10700758984E+02  0.14657002721E+03  0.14875089820E+03  0.00000000000E+00 0.  1.
</event>
<event>
12    1  0.8052519E-002  0.4062553E+03  0.7818608E-02  0.1041639E+00
         21   -1    0    0  501  502  0.00000000000E+00  0.00000000000E+00  0.26466744591E+03  0.26466744591E+03  0.00000000000E+00 0. -1.
         21   -1    0    0  502  503 -0.00000000000E+00 -0.00000000000E+00 -0.77687347830E+03  0.77687347830E+03  0.00000000000E+00 0.  1.
         -6    2    1    2    0  503 -0.36453755792E+03  0.49820267743E+02 -0.48747427424E+03  0.63453350410E+03  0.17213921567E+03 0.  0.
        -24    2    3    3    0    0 -0.13226594640E+03  0.58852038578E+02 -0.24160112099E+03  0.29614412500E+03  0.91500809200E+02 0.  0.
          6    2    1    2  501    0  0.36453755792E+03 -0.49820267743E+02 -0.24731758151E+02  0.40700742011E+03  0.17226052931E+03 0.  0.
         24    2    5    5    0    0  0.16861701650E+03 -0.41215648081E+02  0.49231698052E+02  0.19736109679E+03  0.79982588945E+02 0.  0.
          5    1    5    5  501    0  0.19592054141E+03 -0.86046196619E+01 -0.73963456203E+02  0.20964632332E+03  0.47000000000E+01 0. -1.
        -13    1    6    6    0    0  0.58290784658E+02  0.18398448161E+02  0.36790465046E+02  0.71343232259E+02  0.00000000000E+00 0.  1.
         14    1    6    6    0    0  0.11032623184E+03 -0.59614096243E+02  0.12441233006E+02  0.12601786454E+03  0.00000000000E+00 0. -1.
         -5    1    3    3    0  503 -0.23227161152E+03 -0.90317708348E+01 -0.24587315324E+03  0.33838937910E+03  0.47000000000E+01 0.  1.
         13    1    4    4    0    0  0.12167866096E+02  0.15144764134E+02 -0.18685616392E+02  0.26955020051E+02  0.00000000000E+00 0. -1.
        -14    1    4    4    0    0 -0.14443381249E+03  0.43707274445E+02 -0.22291550460E+03  0.26918910495E+03  0.00000000000E+00 0.  1.
</event>
<event>
12    1  0.8052519E-002  0.1754463E+03  0.7818608E-02  0.1172546E+00
         21   -1    0    0  503  502  0.00000000000E+00  0.00000000000E+00  0.44570248924E+03  0.44570248924E+03  0.00000000000E+00 0.  1.
         21   -1    0    0  501  503 -0.00000000000E+00 -0.00000000000E+00 -0.73499351084E+02  0.73499351084E+02  0.00000000000E+00 0.  1.
          6    2    1    2  501    0  0.19860141945E+02  0.28833015366E+02  0.11891684456E+03  0.21108601166E+03  0.17085174973E+03 0.  0.
         24    2    3    3    0    0  0.20564714985E+01 -0.47726100184E+02  0.67980038359E+02  0.11730479242E+03  0.82807723050E+02 0.  0.
         -6    2    1    2    0  502 -0.19860141945E+02 -0.28833015366E+02  0.25328629360E+03  0.30811582867E+03  0.17191756553E+03 0.  0.
        -24    2    5    5    0    0  0.71900517864E+01 -0.80151269928E+02  0.16601997846E+03  0.20322171067E+03  0.85208611800E+02 0.  0.
          5    1    3    3  501    0  0.17803670446E+02  0.76559115550E+02  0.50936806201E+02  0.93781219235E+02  0.47000000000E+01 0. -1.
        -13    1    4    4    0    0 -0.10294410031E+02  0.22089518959E+02  0.13258988554E+02  0.27743873255E+02  0.00000000000E+00 0.  1.
         14    1    4    4    0    0  0.12350881530E+02 -0.69815619142E+02  0.54721049805E+02  0.89560919170E+02  0.00000000000E+00 0. -1.
         -5    1    5    5    0  502 -0.27050193731E+02  0.51318254561E+02  0.87266315139E+02  0.10489411800E+03  0.47000000000E+01 0.  1.
         11    1    6    6    0    0 -0.10369536402E+02 -0.80144790716E+01  0.10853940186E+03  0.10932776828E+03  0.00000000000E+00 0. -1.
        -12    1    6    6    0    0  0.17559588189E+02 -0.72136790856E+02  0.57480576598E+02  0.93893942395E+02  0.00000000000E+00 0.  1.
</event>
<event>
12    1  0.8052519E-002  0.1829981E+03  0.7818608E-02  0.1165208E+00
         21   -1    0    0  503  502  0.00000000000E+00  0.00000000000E+00  0.31980543463E+03  0.31980543463E+03  0.00000000000E+00 0.  1.
         21   -1    0    0  501  503 -0.00000000000E+00 -0.00000000000E+00 -0.10906199025E+03  0.10906199025E+03  0.00000000000E+00 0. -1.
          6    2    1    2  501    0 -0.24402019551E+02  0.56127431206E+02  0.15101421609E+03  0.23636836350E+03  0.17122780941E+03 0.  0.
         24    2    3    3    0    0  0.21122623090E+02  0.70573513645E+02  0.15341290297E+03  0.18831603698E+03  0.80626453177E+02 0.  0.
         -6    2    1    2    0  502  0.24402019551E+02 -0.56127431206E+02  0.59729228291E+02  0.19249906137E+03  0.17246031667E+03 0.  0.
        -24    2    5    5    0    0  0.78800611063E+02 -0.20841135369E+02  0.23425124776E+02  0.11803828402E+03  0.82100004847E+02 0.  0.
          5    1    3    3  501    0 -0.45524642641E+02 -0.14446082439E+02 -0.23986868870E+01  0.48052326522E+02  0.47000000000E+01 0. -1.
        -11    1    4    4    0    0 -0.29678211443E+02  0.30887329116E+02  0.78979114987E+02  0.89847225547E+02  0.00000000000E+00 0.  1.
         12    1    4    4    0    0  0.50800834533E+02  0.39686184529E+02  0.74433787986E+02  0.98468811436E+02  0.00000000000E+00 0. -1.
         -5    1    5    5    0  502 -0.54398591511E+02 -0.35286295838E+02  0.36304103515E+02  0.74460777356E+02  0.47000000000E+01 0.  1.
         11    1    6    6    0    0  0.13997027289E+02 -0.41340216600E+02 -0.58450902426E+01  0.44035160514E+02  0.00000000000E+00 0. -1.
        -12    1    6    6    0    0  0.64803583773E+02  0.20499081232E+02  0.29270215018E+02  0.74003123504E+02  0.00000000000E+00 0.  1.
</event>
<event>
12    1  0.8052519E-002  0.2064502E+03  0.7818608E-02  0.1145306E+00
         21   -1    0    0  503  502  0.00000000000E+00  0.00000000000E+00  0.17946638216E+02  0.17946638216E+02  0.00000000000E+00 0.  1.
         21   -1    0    0  501  503 -0.00000000000E+00 -0.00000000000E+00 -0.25349517026E+04  0.25349517026E+04  0.00000000000E+00 0.  1.
          6    2    1    2  501    0  0.10909042682E+03  0.27559554218E+02 -0.16384191558E+04  0.16513748911E+04  0.17309376325E+03 0.  0.
         24    2    3    3    0    0  0.52330838766E+02  0.69136678782E+02 -0.13194951417E+04  0.13247483079E+04  0.79826394922E+02 0.  0.
         -6    2    1    2    0  502 -0.10909042682E+03 -0.27559554218E+02 -0.87858590859E+03  0.90152344964E+03  0.16784242976E+03 0.  0.
        -24    2    5    5    0    0 -0.37149023068E+02 -0.49031159011E+02 -0.70632671377E+03  0.71355559179E+03  0.80498767178E+02 0.  0.
          5    1    3    3  501    0  0.56759588052E+02 -0.41577124564E+02 -0.31892401408E+03  0.32662658324E+03  0.47000000000E+01 0. -1.
        -11    1    4    4    0    0  0.35806036434E+02  0.39038664410E+02 -0.29768650690E+03  0.30236293747E+03  0.00000000000E+00 0.  1.
         12    1    4    4    0    0  0.16524802332E+02  0.30098014372E+02 -0.10218086348E+04  0.10223853704E+04  0.00000000000E+00 0. -1.
         -5    1    5    5    0  502 -0.71941403750E+02  0.21471604793E+02 -0.17225919481E+03  0.18796785785E+03  0.47000000000E+01 0.  1.
         13    1    6    6    0    0 -0.42387726375E+02 -0.18472876983E+02 -0.62189166328E+03  0.62360821626E+03  0.00000000000E+00 0. -1.
        -14    1    6    6    0    0  0.52387033070E+01 -0.30558282028E+02 -0.84435050492E+02  0.89947375529E+02  0.00000000000E+00 0.  1.
</event>
<event>
12    1  0.8052519E-002  0.1883823E+03  0.7818608E-02  0.1159987E+00
         21   -1    0    0  503  502  0.00000000000E+00  0.00000000000E+00  0.47371908563E+02  0.47371908563E+02  0.00000000000E+00 0.  1.
         21   -1    0    0  501  503 -0.00000000000E+00 -0.00000000000E+00 -0.91200838083E+03  0.91200838083E+03  0.00000000000E+00 0.  1.
          6    2    1    2  501    0 -0.34497056379E+02  0.67402670133E+02 -0.63542851448E+03  0.66269157989E+03  0.17221372246E+03 0.  0.
         24    2    3    3    0    0  0.19024202846E+02  0.56642275882E+02 -0.53750921453E+03  0.55048377902E+03  0.10269356138E+03 0.  0.
         -6    2    1    2    0  502  0.34497056379E+02 -0.67402670133E+02 -0.22920795778E+03  0.29668870950E+03  0.17249561036E+03 0.  0.
        -24    2    5    5    0    0  0.14389499272E+02 -0.22398180560E+02 -0.27521169632E+02  0.89012595202E+02  0.80356027434E+02 0.  0.
          5    1    3    3  501    0 -0.53521259225E+02  0.10760394251E+02 -0.97919299946E+02  0.11220780087E+03  0.47000000000E+01 0. -1.
        -13    1    4    4    0    0 -0.32309165020E+02  0.20429397951E+02 -0.36308117815E+03  0.36508791321E+03  0.00000000000E+00 0.  1.
         14    1    4    4    0    0  0.51333367866E+02  0.36212877931E+02 -0.17442803638E+03  0.18539586581E+03  0.00000000000E+00 0. -1.
         -5    1    5    5    0  502  0.20107557107E+02 -0.45004489574E+02 -0.20168678815E+03  0.20767611430E+03  0.47000000000E+01 0.  1.
         13    1    6    6    0    0  0.29066275528E+02 -0.22546735319E+02 -0.50056013558E+02  0.62119305694E+02  0.00000000000E+00 0. -1.
        -14    1    6    6    0    0 -0.14676776256E+02  0.14855475977E+00  0.22534843926E+02  0.26893289508E+02  0.00000000000E+00 0.  1.
</event>
<event>
12    1  0.8052519E-002  0.1832223E+03  0.7818608E-02  0.1164884E+00
         21   -1    0    0  503  502  0.00000000000E+00  0.00000000000E+00  0.13699477374E+03  0.13699477374E+03  0.00000000000E+00 0.  1.
         21   -1    0    0  501  503 -0.00000000000E+00 -0.00000000000E+00 -0.59356830270E+03  0.59356830270E+03  0.00000000000E+00 0.  1.
          6    2    1    2  501    0  0.49592425323E+00  0.61055844748E+02  0.52163155278E+02  0.18983816319E+03  0.17201590425E+03 0.  0.
         24    2    3    3    0    0  0.34848245247E+00  0.12548410343E+02 -0.51558721076E+02  0.75237506271E+02  0.53336634584E+02 0.  0.
         -6    2    1    2    0  502 -0.49592425323E+00 -0.61055844748E+02 -0.50873668424E+03  0.54072491325E+03  0.17274940173E+03 0.  0.
        -24    2    5    5    0    0 -0.16522490505E+02  0.10845314280E+02 -0.14719341179E+03  0.17172321224E+03  0.86211064329E+02 0.  0.
          5    1    3    3  501    0  0.14744180075E+00  0.48507434405E+02  0.10372187635E+03  0.11460065692E+03  0.47000000000E+01 0. -1.
        -13    1    4    4    0    0 -0.24766439091E+02  0.64540739063E+00 -0.13819015830E+02  0.28368261393E+02  0.00000000000E+00 0.  1.
         14    1    4    4    0    0  0.25114921543E+02  0.11903002952E+02 -0.37739705246E+02  0.46869244878E+02  0.00000000000E+00 0. -1.
         -5    1    5    5    0  502  0.16026566251E+02 -0.71901159028E+02 -0.36154327245E+03  0.36900170101E+03  0.47000000000E+01 0.  1.
         13    1    6    6    0    0 -0.36013419845E+02  0.38842017462E+02 -0.10372873186E+03  0.11647024746E+03  0.00000000000E+00 0. -1.
        -14    1    6    6    0    0  0.19490929340E+02 -0.27996703182E+02 -0.43464679926E+02  0.55252964777E+02  0.00000000000E+00 0.  1.
</event>
<event>
12    1  0.8052519E-002  0.2559208E+03  0.7818608E-02  0.1109810E+00
         21   -1    0    0  501  502  0.00000000000E+00  0.00000000000E+00  0.12609644294E+04  0.12609644294E+04  0.00000000000E+00 0.  1.
         21   -1    0    0  502  503 -0.00000000000E+00 -0.00000000000E+00 -0.52626698420E+02  0.52626698420E+02  0.00000000000E+00 0.  1.
         -6    2    1    2    0  503  0.16257415272E+03 -0.93603345016E+02  0.51502795337E+03  0.57455534900E+03  0.17224434671E+03 0.  0.
        -24    2    3    3    0    0  0.93636276604E+02 -0.36817292891E+02  0.14684159541E+03  0.19566173507E+03  0.81226812559E+02 0.  0.
          6    2    1    2  501    0 -0.16257415272E+03  0.93603345016E+02  0.69330977761E+03  0.73903577882E+03  0.17407898587E+03 0.  0.
         24    2    5    5    0    0 -0.17960912461E+03  0.57794811166E+02  0.47610379723E+03  0.51818974813E+03  0.79032344550E+02 0.  0.
          5    1    5    5  501    0  0.17034971884E+02  0.35808533849E+02  0.21720598038E+03  0.22084603070E+03  0.47000000000E+01 0. -1.
        -13    1    6    6    0    0 -0.20679278155E+02  0.39496420822E+02  0.10402785195E+03  0.11317859243E+03  0.00000000000E+00 0.  1.
         14    1    6    6    0    0 -0.15892984645E+03  0.18298390344E+02  0.37207594528E+03  0.40501115570E+03  0.00000000000E+00 0. -1.
         -5    1    3    3    0  503  0.68937876118E+02 -0.56786052124E+02  0.36818635797E+03  0.37889361392E+03  0.47000000000E+01 0.  1.
         13    1    4    4    0    0  0.40979880601E+02  0.14094527241E+02  0.16930955338E+02  0.46525945029E+02  0.00000000000E+00 0. -1.
        -14    1    4    4    0    0  0.52656396004E+02 -0.50911820132E+02  0.12991064007E+03  0.14913579004E+03  0.00000000000E+00 0.  1.
</event>
<event>
12    1  0.8052519E-002  0.2199073E+03  0.7818608E-02  0.1134041E+00
         21   -1    0    0  503  502  0.00000000000E+00  0.00000000000E+00  0.10065897655E+03  0.10065897655E+03  0.00000000000E+00 0.  1.
         21   -1    0    0  501  503 -0.00000000000E+00 -0.00000000000E+00 -0.51007615164E+03  0.51007615164E+03  0.00000000000E+00 0.  1.
          6    2    1    2  501    0  0.10077688724E+03 -0.94504252382E+02 -0.27940340365E+03  0.35526927762E+03  0.17047862895E+03 0.  0.
         24    2    3    3    0    0  0.80859132543E+02  0.77369064236E+01 -0.15614382771E+03  0.19382273983E+03  0.81168346686E+02 0.  0.
         -6    2    1    2    0  502 -0.10077688724E+03  0.94504252382E+02 -0.13001377144E+03  0.25546585058E+03  0.17109116087E+03 0.  0.
        -24    2    5    5    0    0  0.11434929883E+01  0.41474346305E+02 -0.10444519365E+03  0.13767036248E+03  0.79516672795E+02 0.  0.
          5    1    3    3  501    0  0.19917754699E+02 -0.10224115881E+03 -0.12325957593E+03  0.16144653779E+03  0.47000000000E+01 0. -1.
        -13    1    4    4    0    0  0.44632081359E+02 -0.36414411376E+02 -0.74015127378E+02  0.93788438110E+02  0.00000000000E+00 0.  1.
         14    1    4    4    0    0  0.36227051185E+02  0.44151317800E+02 -0.82128700335E+02  0.10003430172E+03  0.00000000000E+00 0. -1.
         -5    1    5    5    0  502 -0.10192038023E+03  0.53029906077E+02 -0.25568577792E+02  0.11779548809E+03  0.47000000000E+01 0.  1.
         11    1    6    6    0    0 -0.26481468284E+02  0.53149012656E+02 -0.74752316677E+02  0.95467243374E+02  0.00000000000E+00 0. -1.
        -12    1    6    6    0    0  0.27624961273E+02 -0.11674666351E+02 -0.29692876973E+02  0.42203119111E+02  0.00000000000E+00 0.  1.
</event>
<event>
12    1  0.8052519E-002  0.2923838E+03  0.7818608E-02  0.1089162E+00
         21   -1    0    0  501  502  0.00000000000E+00  0.00000000000E+00  0.19413901401E+03  0.19413901401E+03  0.00000000000E+00 0. -1.
         21   -1    0    0  502  503 -0.00000000000E+00 -0.00000000000E+00 -0.52518200469E+03  0.52518200469E+03  0.00000000000E+00 0.  1.
         -6    2    1    2    0  503 -0.80434383679E+02  0.22152263532E+03 -0.31048996860E+03  0.42621569798E+03  0.17237700707E+03 0.  0.
        -24    2    3    3    0    0  0.36729382004E+01  0.46739488180E+02 -0.69728328996E+02  0.11700469038E+03  0.81424735032E+02 0.  0.
          6    2    1    2  501    0  0.80434383679E+02 -0.22152263532E+03 -0.20553022078E+02  0.29310532072E+03  0.17305009181E+03 0.  0.
         24    2    5    5    0    0  0.53083405911E+02 -0.16870044890E+03 -0.79066456658E+02  0.20953396564E+03  0.79845405283E+02 0.  0.
          5    1    5    5  501    0  0.27350977768E+02 -0.52822186423E+02  0.58513434580E+02  0.83571355079E+02  0.47000000000E+01 0. -1.
        -11    1    6    6    0    0  0.31714136555E+02 -0.13472333470E+03 -0.22574975091E+02  0.14023477768E+03  0.00000000000E+00 0.  1.
         12    1    6    6    0    0  0.21369269355E+02 -0.33977114202E+02 -0.56491481567E+02  0.69299187960E+02  0.00000000000E+00 0. -1.
         -5    1    3    3    0  503 -0.84107321879E+02  0.17478314714E+03 -0.24076163960E+03  0.30921100760E+03  0.47000000000E+01 0.  1.
         11    1    4    4    0    0 -0.13397862425E+02  0.44351450535E+01  0.15112122865E+02  0.20677269808E+02  0.00000000000E+00 0. -1.
        -12    1    4    4    0    0  0.17070800625E+02  0.42304343126E+02 -0.84840451862E+02  0.96327420569E+02  0.00000000000E+00 0.  1.
</event>
<event>
12    1  0.8052519E-002  0.2199155E+03  0.7818608E-02  0.1134315E+00
         21   -1    0    0  501  502  0.00000000000E+00  0.00000000000E+00  0.49454707517E+03  0.49454707517E+03  0.00000000000E+00 0. -1.
         21   -1    0    0  502  503 -0.00000000000E+00 -0.00000000000E+00 -0.12479134575E+03  0.12479134575E+03  0.00000000000E+00 0.  1.
         -6    2    1    2    0  503  0.10441843890E+03 -0.89093702631E+02  0.37884773583E+02  0.22121637123E+03  0.16929420723E+03 0.  0.
        -24    2    3    3    0    0  0.13912623723E+03 -0.54880191439E+02  0.26985525617E+02  0.17105583675E+03  0.78510734266E+02 0.  0.
          6    2    1    2  501    0 -0.10441843890E+03  0.89093702631E+02  0.33187095584E+03  0.39812204968E+03  0.17181948924E+03 0.  0.
         24    2    5    5    0    0 -0.39482366506E+02  0.83673026549E+02  0.96158236920E+02  0.15352308589E+03  0.75913758553E+02 0.  0.
          5    1    5    5  501    0 -0.64936072393E+02  0.54206760818E+01  0.23571271892E+03  0.24459896379E+03  0.47000000000E+01 0. -1.
        -13    1    6    6    0    0 -0.30414987995E+02  0.14765562976E+02 -0.12841137840E+01  0.33834040446E+02  0.00000000000E+00 0.  1.
         14    1    6    6    0    0 -0.90673785113E+01  0.68907463573E+02  0.97442350704E+02  0.11968904545E+03  0.00000000000E+00 0. -1.
         -5    1    3    3    0  503 -0.34707798335E+02 -0.34213511191E+02  0.10899247966E+02  0.50160534482E+02  0.47000000000E+01 0.  1.
         13    1    4    4    0    0 -0.96905937310E+01 -0.38618560480E+01  0.67870727859E+01  0.12445316227E+02  0.00000000000E+00 0. -1.
        -14    1    4    4    0    0  0.14881683096E+03 -0.51018335391E+02  0.20198452831E+02  0.15861052053E+03  0.00000000000E+00 0.  1.
</event>
<event>
12    1  0.8052519E-002  0.2186651E+03  0.7818608E-02  0.1135046E+00
         21   -1    0    0  503  502  0.00000000000E+00  0.00000000000E+00  0.93260057122E+03  0.93260057122E+03  0.00000000000E+00 0.  1.
         21   -1    0    0  501  503 -0.00000000000E+00 -0.00000000000E+00 -0.58112545779E+02  0.58112545779E+02  0.00000000000E+00 0.  1.
          6    2    1    2  501    0 -0.13221057884E+03  0.20845226864E+02  0.26552207540E+03  0.34397152489E+03  0.17291696494E+03 0.  0.
         24    2    3    3    0    0 -0.15528465653E+02 -0.70440863324E+01  0.17650873717E+03  0.19451252144E+03  0.79931434989E+02 0.  0.
         -6    2    1    2    0  502  0.13221057884E+03 -0.20845226864E+02  0.60896595003E+03  0.64674159211E+03  0.17181675710E+03 0.  0.
        -24    2    5    5    0    0  0.34495970904E+02  0.37102110485E+02  0.37322547485E+03  0.38501329759E+03  0.79821335712E+02 0.  0.
          5    1    3    3  501    0 -0.11668211319E+03  0.27889313196E+02  0.89013338229E+02  0.14945900345E+03  0.47000000000E+01 0. -1.
        -11    1    4    4    0    0 -0.44055193439E+02  0.13929112594E+02  0.10508211527E+03  0.11479168609E+03  0.00000000000E+00 0.  1.
         12    1    4    4    0    0  0.28526727785E+02 -0.20973198926E+02  0.71426621909E+02  0.79720835349E+02  0.00000000000E+00 0. -1.
         -5    1    5    5    0  502  0.97714607940E+02 -0.57947337349E+02  0.23574047519E+03  0.26172829452E+03  0.47000000000E+01 0.  1.
         13    1    6    6    0    0  0.50258892913E+02  0.37965436907E+02  0.17201198241E+03  0.18318147507E+03  0.00000000000E+00 0. -1.
        -14    1    6    6    0    0 -0.15762922008E+02 -0.86332642149E+00  0.20121349244E+03  0.20183182252E+03  0.00000000000E+00 0.  1.
</event>
<event>
12    1  0.8052519E-002  0.2103287E+03  0.7818608E-02  0.1141450E+00
         21   -1    0    0  503  502  0.00000000000E+00  0.00000000000E+00  0.14104236729E+04  0.14104236729E+04  0.00000000000E+00 0.  1.
         21   -1    0    0  501  503 -0.00000000000E+00 -0.00000000000E+00 -0.64135390390E+02  0.64135390390E+02  0.00000000000E+00 0. -1.
          6    2    1    2  501    0  0.10995731100E+03  0.55171795702E+02  0.14468661414E+03  0.25468828009E+03  0.16969786804E+03 0.  0.
         24    2    3    3    0    0  0.32907031021E+02 -0.39369179870E+02  0.92743716137E+02  0.12204252493E+03  0.60499388384E+02 0.  0.
         -6    2    1    2    0  502 -0.10995731100E+03 -0.55171795702E+02  0.12016016684E+04  0.12198707832E+04  0.17059783412E+03 0.  0.
        -24    2    5    5    0    0 -0.26305434851E+02 -0.84019112915E+02  0.77402246669E+03  0.78320630354E+03  0.80932982919E+02 0.  0.
          5    1    3    3  501    0  0.77050279983E+02  0.94540975571E+02  0.51942898006E+02  0.13264575515E+03  0.47000000000E+01 0. -1.
        -13    1    4    4    0    0  0.35415515794E+02  0.39166017103E+01  0.47478484820E+02  0.59361646277E+02  0.00000000000E+00 0.  1.
         14    1    4    4    0    0 -0.25084847732E+01 -0.43285781580E+02  0.45265231317E+02  0.62680878655E+02  0.00000000000E+00 0. -1.
         -5    1    5    5    0  502 -0.83651876153E+02  0.28847317213E+02  0.42757920173E+03  0.43666447971E+03  0.47000000000E+01 0.  1.
         11    1    6    6    0    0  0.19028136621E+02 -0.22163339429E+02  0.41791837659E+03  0.41893800626E+03  0.00000000000E+00 0. -1.
        -12    1    6    6    0    0 -0.45333571472E+02 -0.61855773486E+02  0.35610409009E+03  0.36426829727E+03  0.00000000000E+00 0.  1.
</event>
<event>
12    1  0.8052519E-002  0.1778325E+03  0.7818608E-02  0.1170104E+00
         21   -1    0    0  503  502  0.00000000000E+00  0.00000000000E+00  0.13730188022E+04  0.13730188022E+04  0.00000000000E+00 0. -1.
         21   -1    0    0  501  503 -0.00000000000E+00 -0.00000000000E+00 -0.26398259152E+02  0.26398259152E+02  0.00000000000E+00 0. -1.
          6    2    1    2  501    0 -0.46218100795E+02  0.10915086968E+02  0.42111134262E+03  0.45712052653E+03  0.17137432983E+03 0.  0.
         24    2    3    3    0    0 -0.26412299612E+02  0.14656648725E+02  0.42707724998E+03  0.43558100250E+03  0.80146150006E+02 0.  0.
         -6    2    1    2    0  502  0.46218100795E+02 -0.10915086968E+02  0.92550920040E+03  0.94229653479E+03  0.17058788790E+03 0.  0.
        -24    2    5    5    0    0  0.72398791794E+02  0.32028007863E+01  0.89162275312E+03  0.89696305219E+03  0.65572403683E+02 0.  0.
          5    1    3    3  501    0 -0.19805801183E+02 -0.37415617569E+01 -0.59659073620E+01  0.21539524032E+02  0.47000000000E+01 0. -1.
        -11    1    4    4    0    0 -0.35732833339E+02  0.12208028234E+02  0.80996691695E+02  0.89366299002E+02  0.00000000000E+00 0.  1.
         12    1    4    4    0    0  0.93205337273E+01  0.24486204916E+01  0.34608055829E+03  0.34621470350E+03  0.00000000000E+00 0. -1.
         -5    1    5    5    0  502 -0.26180690999E+02 -0.14117887755E+02  0.33886447277E+02  0.45333482603E+02  0.47000000000E+01 0.  1.
         13    1    6    6    0    0  0.13827459405E+02  0.30171926923E+02  0.31812146295E+03  0.31984810301E+03  0.00000000000E+00 0. -1.
        -14    1    6    6    0    0  0.58571332389E+02 -0.26969126137E+02  0.57350129017E+03  0.57711494918E+03  0.00000000000E+00 0.  1.
</event>
<event>
12    1  0.8052519E-002  0.1882443E+03  0.7818608E-02  0.1160124E+00
         21   -1    0    0  501  502  0.00000000000E+00  0.00000000000E+00  0.29199071223E+03  0.29199071223E+03  0.00000000000E+00 0. -1.
         21   -1    0    0  502  503 -0.00000000000E+00 -0.00000000000E+00 -0.12227149594E+03  0.12227149594E+03  0.00000000000E+00 0. -1.
         -6    2    1    2    0  503  0.58937905287E+02  0.47878275545E+02  0.65069986871E+02  0.19888490927E+03  0.17191596201E+03 0.  0.
        -24    2    3    3    0    0 -0.30921713496E+02  0.32000532330E+02  0.52627682250E+02  0.10666910389E+03  0.81415221856E+02 0.  0.
          6    2    1    2  501    0 -0.58937905287E+02 -0.47878275545E+02  0.10464922942E+03  0.21537729890E+03  0.17224956811E+03 0.  0.
         24    2    5    5    0    0 -0.45751349520E+02  0.38384407160E+02  0.65952085556E+02  0.11980170252E+03  0.80226065841E+02 0.  0.
          5    1    5    5  501    0 -0.13186555767E+02 -0.86262682706E+02  0.38697143866E+02  0.95575596383E+02  0.47000000000E+01 0. -1.
        -11    1    6    6    0    0 -0.19018955297E+02  0.33633740720E+02  0.80285407817E+02  0.89099359615E+02  0.00000000000E+00 0.  1.
         12    1    6    6    0    0 -0.26732394224E+02  0.47506664401E+01 -0.14333322261E+02  0.30702342901E+02  0.00000000000E+00 0. -1.
         -5    1    3    3    0  503  0.89859618784E+02  0.15877743215E+02  0.12442304621E+02  0.92215805380E+02  0.47000000000E+01 0.  1.
         11    1    4    4    0    0 -0.38505367940E+02  0.52771263314E+02  0.53651204483E+02  0.84533551531E+02  0.00000000000E+00 0. -1.
        -12    1    4    4    0    0  0.75836544439E+01 -0.20770730983E+02 -0.10235222332E+01  0.22135552355E+02  0.00000000000E+00 0.  1.
</event>
<event>
12    1  0.8052519E-002  0.1722603E+03  0.7818608E-02  0.1175628E+00
         21   -1    0    0  503  502  0.00000000000E+00  0.00000000000E+00  0.19259775728E+03  0.19259775728E+03  0.00000000000E+00 0.  1.
         21   -1    0    0  501  503 -0.00000000000E+00 -0.00000000000E+00 -0.48226138738E+03  0.48226138738E+03  0.00000000000E+00 0.  1.
          6    2    1    2  501    0 -0.19389736489E+00  0.17232988542E+02 -0.42330187917E+03  0.45683894665E+03  0.17093954715E+03 0.  0.
         24    2    3    3    0    0 -0.51340989759E+02 -0.31838315329E+02 -0.25771689561E+03  0.27665988376E+03  0.80455686233E+02 0.  0.
         -6    2    1    2    0  502  0.19389736489E+00 -0.17232988542E+02  0.13363824906E+03  0.21802019801E+03  0.17139606658E+03 0.  0.
        -24    2    5    5    0    0 -0.39144804159E+01  0.27715186815E+02  0.67064113769E+01  0.83220351370E+02  0.78084545151E+02 0.  0.
          5    1    3    3  501    0  0.51147092394E+02  0.49071303871E+02 -0.16558498356E+03  0.18017906289E+03  0.47000000000E+01 0. -1.
        -11    1    4    4    0    0 -0.11123422734E+02 -0.37995344867E+02 -0.44356317433E+02  0.59454685779E+02  0.00000000000E+00 0.  1.
         12    1    4    4    0    0 -0.40217567025E+02  0.61570295386E+01 -0.21336057817E+03  0.21720519798E+03  0.00000000000E+00 0. -1.
         -5    1    5    5    0  502  0.41083777808E+01 -0.44948175357E+02  0.12693183769E+03  0.13479984664E+03  0.47000000000E+01 0.  1.
         13    1    6    6    0    0 -0.36415749539E+02 -0.50727530157E+01  0.37706770312E+01  0.36960217030E+02  0.00000000000E+00 0. -1.
        -14    1    6    6    0    0  0.32501269123E+02  0.32787939831E+02  0.29357343457E+01  0.46260134340E+02  0.00000000000E+00 0.  1.
</event>
<event>
12    1  0.8052519E-002  0.1933005E+03  0.7818608E-02  0.1155660E+00
         21   -1    0    0  503  502  0.00000000000E+00  0.00000000000E+00  0.40357319468E+02  0.40357319468E+02  0.00000000000E+00 0.  1.
         21   -1    0    0  501  503 -0.00000000000E+00 -0.00000000000E+00 -0.22080669193E+04  0.22080669193E+04  0.00000000000E+00 0.  1.
          6    2    1    2  501    0 -0.46762368043E+02 -0.75838845289E+02 -0.19423283529E+04  0.19519232877E+04  0.17154253452E+03 0.  0.
         24    2    3    3    0    0 -0.85179940996E+02 -0.35969135811E+02 -0.92307955717E+03  0.93116097394E+03  0.80221502351E+02 0.  0.
         -6    2    1    2    0  502  0.46762368043E+02  0.75838845289E+02 -0.22538124695E+03  0.29650095106E+03  0.17081527445E+03 0.  0.
        -24    2    5    5    0    0  0.81493436053E+02  0.69120498995E+02 -0.22409010350E+03  0.26079184419E+03  0.79857297788E+02 0.  0.
          5    1    3    3  501    0  0.38417572953E+02 -0.39869709479E+02 -0.10192487957E+04  0.10207623138E+04  0.47000000000E+01 0. -1.
        -11    1    4    4    0    0 -0.52168699160E+02  0.20049685591E+02 -0.50003530256E+03  0.50314895098E+03  0.00000000000E+00 0.  1.
         12    1    4    4    0    0 -0.33011241835E+02 -0.56018821402E+02 -0.42304425461E+03  0.42801202296E+03  0.00000000000E+00 0. -1.
         -5    1    5    5    0  502 -0.34731068011E+02  0.67183462941E+01 -0.12911434497E+01  0.35709106871E+02  0.47000000000E+01 0.  1.
         11    1    6    6    0    0  0.79050880489E+02  0.18713732729E+02 -0.15775101152E+03  0.17743908006E+03  0.00000000000E+00 0. -1.
        -12    1    6    6    0    0  0.24425555643E+01  0.50406766266E+02 -0.66339091982E+02  0.83352764130E+02  0.00000000000E+00 0.  1.
</event>
<event>
12    1  0.8052519E-002  0.2514947E+03  0.7818608E-02  0.1112474E+00
         21   -1    0    0  501  502  0.00000000000E+00  0.00000000000E+00  0.12209002938E+04  0.12209002938E+04  0.00000000000E+00 0. -1.
         21   -1    0    0  502  503 -0.00000000000E+00 -0.00000000000E+00 -0.53236721184E+02  0.53236721184E+02  0.00000000000E+00 0. -1.
         -6    2    1    2    0  503 -0.91319552552E+02 -0.15896596527E+03  0.47343416592E+03  0.53575766914E+03  0.17113425078E+03 0.  0.
        -24    2    3    3    0    0 -0.77277738000E+02 -0.11291060957E+03  0.18760965093E+03  0.24586801477E+03  0.80827254180E+02 0.  0.
          6    2    1    2  501    0  0.91319552552E+02  0.15896596527E+03  0.69422940669E+03  0.73837934584E+03  0.17216315069E+03 0.  0.
         24    2    5    5    0    0  0.71872753867E+02  0.78353121220E+02  0.58071066389E+03  0.59771945969E+03  0.93481404467E+02 0.  0.
          5    1    5    5  501    0  0.19446798685E+02  0.80612844047E+02  0.11351874280E+03  0.14065988615E+03  0.47000000000E+01 0. -1.
        -11    1    6    6    0    0  0.72662069766E+01 -0.89239645160E+01  0.62693349856E+01  0.13104940583E+02  0.00000000000E+00 0.  1.
         12    1    6    6    0    0  0.64606546891E+02  0.87277085736E+02  0.57444132891E+03  0.58461451911E+03  0.00000000000E+00 0. -1.
         -5    1    3    3    0  503 -0.14041814552E+02 -0.46055355694E+02  0.28582451499E+03  0.28988965438E+03  0.47000000000E+01 0.  1.
         11    1    4    4    0    0 -0.58846542464E+02 -0.44224806948E+02  0.14591258147E+03  0.16342958894E+03  0.00000000000E+00 0. -1.
        -12    1    4    4    0    0 -0.18431195536E+02 -0.68685802626E+02  0.41697069458E+02  0.82438425826E+02  0.00000000000E+00 0.  1.
</event>
<event>
12    1  0.8052519E-002  0.1823826E+03  0.7818608E-02  0.1166279E+00
         21   -1    0    0  503  502  0.00000000000E+00  0.00000000000E+00  0.34494704974E+03  0.34494704974E+03  0.00000000000E+00 0.  1.
         21   -1    0    0  501  503 -0.00000000000E+00 -0.00000000000E+00 -0.23828188756E+03  0.23828188756E+03  0.00000000000E+00 0. -1.
          6    2    1    2  501    0  0.28954118998E+02 -0.41207604786E+02 -0.17317076805E+03  0.24920564200E+03  0.17198525925E+03 0.  0.
         24    2    3    3    0    0  0.79308822297E+02 -0.15057181152E+02 -0.14887066960E+03  0.18730228518E+03  0.80019133767E+02 0.  0.
         -6    2    1    2    0  502 -0.28954118998E+02  0.41207604786E+02  0.27983593023E+03  0.33402329531E+03  0.17529120418E+03 0.  0.
        -24    2    5    5    0    0 -0.82508237269E+02  0.17454611407E+02  0.14607351488E+03  0.18791812073E+03  0.82846096308E+02 0.  0.
          5    1    3    3  501    0 -0.50354703299E+02 -0.26150423634E+02 -0.24300098447E+02  0.61903356817E+02  0.47000000000E+01 0. -1.
        -13    1    4    4    0    0  0.86019405693E+02 -0.12393258313E+02 -0.80215695310E+02  0.11826871430E+03  0.00000000000E+00 0.  1.
         14    1    4    4    0    0 -0.67105833961E+01 -0.26639228398E+01 -0.68654974289E+02  0.69033570884E+02  0.00000000000E+00 0. -1.
         -5    1    5    5    0  502  0.53554118271E+02  0.23752993379E+02  0.13376241535E+03  0.14610517458E+03  0.47000000000E+01 0.  1.
         13    1    6    6    0    0  0.61824468207E+01 -0.18100039045E+02  0.98227180472E+01  0.21501624402E+02  0.00000000000E+00 0. -1.
        -14    1    6    6    0    0 -0.88690684090E+02  0.35554650452E+02  0.13625079683E+03  0.16641649633E+03  0.00000000000E+00 0.  1.
</event>
<event>
12    1  0.8052519E-002  0.3006200E+03  0.7818608E-02  0.1084936E+00
         21   -1    0    0  501  502  0.00000000000E+00  0.00000000000E+00  0.18206401204E+03  0.18206401204E+03  0.00000000000E+00 0. -1.
         21   -1    0    0  502  503 -0.00000000000E+00 -0.00000000000E+00 -0.65614672442E+03  0.65614672442E+03  0.00000000000E+00 0. -1.
         -6    2    1    2    0  503 -0.15576928339E+03 -0.19129474856E+03 -0.44387996435E+03  0.53607736280E+03  0.17173166766E+03 0.  0.
        -24    2    3    3    0    0 -0.12815404884E+03 -0.21200334208E+03 -0.41800651028E+03  0.49268413003E+03  0.81482096533E+02 0.  0.
          6    2    1    2  501    0  0.15576928339E+03  0.19129474856E+03 -0.30202748024E+02  0.30213337366E+03  0.17179819271E+03 0.  0.
         24    2    5    5    0    0  0.74575352799E+02  0.28689357492E+02 -0.44686181416E+02  0.11974689551E+03  0.77187445203E+02 0.  0.
          5    1    5    5  501    0  0.81193930590E+02  0.16260539107E+03  0.14483433392E+02  0.18238647815E+03  0.47000000000E+01 0. -1.
        -11    1    6    6    0    0  0.31216857868E+02  0.38553117974E+02 -0.55034779192E+02  0.74092253586E+02  0.00000000000E+00 0.  1.
         12    1    6    6    0    0  0.43358494931E+02 -0.98637604819E+01  0.10348597776E+02  0.45654641927E+02  0.00000000000E+00 0. -1.
         -5    1    3    3    0  503 -0.27615234552E+02  0.20708593519E+02 -0.25873454069E+02  0.43393232772E+02  0.47000000000E+01 0.  1.
         13    1    4    4    0    0 -0.13764947331E+03 -0.18903952337E+03 -0.35654375101E+03  0.42638804542E+03  0.00000000000E+00 0. -1.
        -14    1    4    4    0    0  0.94954244769E+01 -0.22963818711E+02 -0.61462759274E+02  0.66296084601E+02  0.00000000000E+00 0.  1.
</event>
<event>
12    1  0.8052519E-002  0.2457019E+03  0.7818608E-02  0.1116298E+00
         21   -1    0    0  501  502  0.00000000000E+00  0.00000000000E+00  0.37351740056E+03  0.37351740056E+03  0.00000000000E+00 0. -1.
         21   -1    0    0  502  503 -0.00000000000E+00 -0.00000000000E+00 -0.16843108983E+03  0.16843108983E+03  0.00000000000E+00 0. -1.
         -6    2    1    2    0  503  0.55713978110E+02  0.16642927979E+03  0.16117038843E+03  0.29384572464E+03  0.17194959510E+03 0.  0.
        -24    2    3    3    0    0 -0.10821359571E+02  0.15665828557E+03  0.10040990121E+03  0.20309138427E+03  0.80653839617E+02 0.  0.
          6    2    1    2  501    0 -0.55713978110E+02 -0.16642927979E+03  0.43915922298E+02  0.24810276575E+03  0.16977520907E+03 0.  0.
         24    2    5    5    0    0 -0.33201658320E+02 -0.71133503430E+02 -0.39475499814E+02  0.11940036167E+03  0.80844331008E+02 0.  0.
          5    1    5    5  501    0 -0.22512319790E+02 -0.95295776356E+02  0.83391422112E+02  0.12870240408E+03  0.47000000000E+01 0. -1.
        -11    1    6    6    0    0  0.26944612208E+02 -0.19840036550E+02 -0.87071197489E+01  0.34575325185E+02  0.00000000000E+00 0.  1.
         12    1    6    6    0    0 -0.60146270528E+02 -0.51293466880E+02 -0.30768380065E+02  0.84825036485E+02  0.00000000000E+00 0. -1.
         -5    1    3    3    0  503  0.66535337681E+02  0.97709942193E+01  0.60760487225E+02  0.90754340371E+02  0.47000000000E+01 0.  1.
         13    1    4    4    0    0  0.26327172820E+02  0.12422660679E+03  0.76957837133E+02  0.14848528062E+03  0.00000000000E+00 0. -1.
        -14    1    4    4    0    0 -0.37148532391E+02  0.32431678775E+02  0.23452064075E+02  0.54606103655E+02  0.00000000000E+00 0.  1.
</event>
<event>
12    1  0.8052519E-002  0.2309491E+03  0.7818608E-02  0.1126043E+00
         21   -1    0    0  501  502  0.00000000000E+00  0.00000000000E+00  0.33293521178E+03  0.33293521178E+03  0.00000000000E+00 0.  1.
         21   -1    0    0  502  503 -0.00000000000E+00 -0.00000000000E+00 -0.35447593827E+03  0.35447593827E+03  0.00000000000E+00 0. -1.
         -6    2    1    2    0  503 -0.12266106783E+02 -0.15253397513E+03 -0.26539435832E+03  0.35155092758E+03  0.17244366707E+03 0.  0.
        -24    2    3    3    0    0 -0.58784495153E+02 -0.12720099195E+03 -0.24845372143E+03  0.29574057307E+03  0.78086654681E+02 0.  0.
          6    2    1    2  501    0  0.12266106783E+02  0.15253397513E+03  0.24385363183E+03  0.33586022246E+03  0.17297521305E+03 0.  0.
         24    2    5    5    0    0 -0.78106705615E+01  0.21945648174E+02  0.35618183152E+02  0.89201591531E+02  0.78394202032E+02 0.  0.
          5    1    5    5  501    0  0.20076777345E+02  0.13058832695E+03  0.20823544868E+03  0.24665863093E+03  0.47000000000E+01 0. -1.
        -11    1    6    6    0    0 -0.19199092809E+02 -0.10653854076E+01  0.54198763548E+02  0.57508661790E+02  0.00000000000E+00 0.  1.
         12    1    6    6    0    0  0.11388422247E+02  0.23011033581E+02 -0.18580580396E+02  0.31692929742E+02  0.00000000000E+00 0. -1.
         -5    1    3    3    0  503  0.46518388370E+02 -0.25332983178E+02 -0.16940636890E+02  0.55810354519E+02  0.47000000000E+01 0.  1.
         13    1    4    4    0    0 -0.52117080025E+02 -0.51840805597E+02 -0.68283417602E+02  0.10033087399E+03  0.00000000000E+00 0. -1.
        -14    1    4    4    0    0 -0.66674151281E+01 -0.75360186352E+02 -0.18017030383E+03  0.19540969908E+03  0.00000000000E+00 0.  1.
</event>
<event>
12    1  0.8052519E-002  0.1768011E+03  0.7818608E-02  0.1170998E+00
         21   -1    0    0  501  502  0.00000000000E+00  0.00000000000E+00  0.31697707010E+03  0.31697707010E+03  0.00000000000E+00 0. -1.
         21   -1    0    0  502  503 -0.00000000000E+00 -0.00000000000E+00 -0.31709910585E+03  0.31709910585E+03  0.00000000000E+00 0. -1.
         -6    2    1    2    0  503 -0.35000347096E+02  0.20255253816E+02 -0.26330811530E+03  0.31715894614E+03  0.17211430484E+03 0.  0.
        -24    2    3    3    0    0 -0.58843324712E+02  0.70696937050E+02 -0.17971077195E+03  0.21654355565E+03  0.78323407520E+02 0.  0.
          6    2    1    2  501    0  0.35000347096E+02 -0.20255253816E+02  0.26318607955E+03  0.31691722981E+03  0.17185551629E+03 0.  0.
         24    2    5    5    0    0 -0.27205541135E+02  0.37921350337E+02  0.14693012782E+03  0.17272421294E+03  0.77891084183E+02 0.  0.
          5    1    5    5  501    0  0.62205888230E+02 -0.58176604153E+02  0.11625595173E+03  0.14419301687E+03  0.47000000000E+01 0. -1.
        -13    1    6    6    0    0  0.38430903721E+01  0.55153346733E+02  0.90431382150E+02  0.10599290484E+03  0.00000000000E+00 0.  1.
         14    1    6    6    0    0 -0.31048631507E+02 -0.17231996396E+02  0.56498745669E+02  0.66731308098E+02  0.00000000000E+00 0. -1.
         -5    1    3    3    0  503  0.23842977616E+02 -0.50441683234E+02 -0.83597343349E+02  0.10061539049E+03  0.47000000000E+01 0.  1.
         13    1    4    4    0    0 -0.14015491548E+02  0.66234575745E+02 -0.14377376548E+03  0.15891616868E+03  0.00000000000E+00 0. -1.
        -14    1    4    4    0    0 -0.44827833164E+02  0.44623613049E+01 -0.35937006472E+02  0.57627386967E+02  0.00000000000E+00 0.  1.
</event>
<event>
12    1  0.8052519E-002  0.2476900E+03  0.7818608E-02  0.1114912E+00
         21   -1    0    0  503  502  0.00000000000E+00  0.00000000000E+00  0.28773121418E+03  0.28773121418E+03  0.00000000000E+00 0.  1.
         21   -1    0    0  501  503 -0.00000000000E+00 -0.00000000000E+00 -0.22506439197E+03  0.22506439197E+03  0.00000000000E+00 0. -1.
          6    2    1    2  501    0 -0.59303612263E+02  0.16700176676E+03  0.92023201511E+02  0.26423209067E+03  0.17304282590E+03 0.  0.
         24    2    3    3    0    0 -0.39767952705E+01  0.15448877394E+03  0.24100354446E+02  0.17561361166E+03  0.79854350799E+02 0.  0.
         -6    2    1    2    0  502  0.59303612263E+02 -0.16700176676E+03 -0.29356379295E+02  0.24856351548E+03  0.17180080236E+03 0.  0.
        -24    2    5    5    0    0  0.81110022786E+01 -0.97395358476E+02  0.45136354892E+02  0.13438386388E+03  0.80436858024E+02 0.  0.
          5    1    3    3  501    0 -0.55326816993E+02  0.12512992817E+02  0.67922847065E+02  0.88618479005E+02  0.47000000000E+01 0. -1.
        -11    1    4    4    0    0 -0.34496544118E+02  0.71798371783E+02 -0.11637620240E+02  0.80501254348E+02  0.00000000000E+00 0.  1.
         12    1    4    4    0    0  0.30519748848E+02  0.82690402161E+02  0.35737974686E+02  0.95112357315E+02  0.00000000000E+00 0. -1.
         -5    1    5    5    0  502  0.51192609985E+02 -0.69606408285E+02 -0.74492734188E+02  0.11417965159E+03  0.47000000000E+01 0.  1.
         13    1    6    6    0    0  0.14556932348E+02 -0.84257946798E+02 -0.14857992444E+01  0.85519082534E+02  0.00000000000E+00 0. -1.
        -14    1    6    6    0    0 -0.64459300694E+01 -0.13137411678E+02  0.46622154137E+02  0.48864781350E+02  0.00000000000E+00 0.  1.
</event>
<event>
12    1  0.8052519E-002  0.2422166E+03  0.7818608E-02  0.1118469E+00
         21   -1    0    0  503  502  0.00000000000E+00  0.00000000000E+00  0.77196704505E+03  0.77196704505E+03  0.00000000000E+00 0.  1.
         21   -1    0    0  501  503 -0.00000000000E+00 -0.00000000000E+00 -0.76280054276E+02  0.76280054276E+02  0.00000000000E+00 0. -1.
          6    2    1    2  501    0 -0.16911136815E+03 -0.10852551921E+02  0.31230444890E+03  0.39522517990E+03  0.17306773616E+03 0.  0.
         24    2    3    3    0    0 -0.19256598518E+03 -0.16438250606E+02  0.23437156753E+03  0.31351261606E+03  0.77512928145E+02 0.  0.
         -6    2    1    2    0  502  0.16911136815E+03  0.10852551921E+02  0.38338254187E+03  0.45302191943E+03  0.17184368872E+03 0.  0.
        -24    2    5    5    0    0  0.37503073138E+02  0.37346333756E+01  0.68060322674E+02  0.11123016997E+03  0.79495378534E+02 0.  0.
          5    1    3    3  501    0  0.23454617032E+02  0.55856986851E+01  0.77932881375E+02  0.81712563840E+02  0.47000000000E+01 0. -1.
        -13    1    4    4    0    0 -0.82483025049E+02  0.78396053162E+01  0.15463817002E+03  0.17543623474E+03  0.00000000000E+00 0.  1.
         14    1    4    4    0    0 -0.11008296013E+03 -0.24277855922E+02  0.79733397510E+02  0.13807638132E+03  0.00000000000E+00 0. -1.
         -5    1    5    5    0  502  0.13160829501E+03  0.71179185452E+01  0.31532221919E+03  0.34179174946E+03  0.47000000000E+01 0.  1.
         11    1    6    6    0    0  0.41520810774E+02 -0.22331096937E+02  0.70427336533E+02  0.84750606776E+02  0.00000000000E+00 0. -1.
        -12    1    6    6    0    0 -0.40177376362E+01  0.26065730313E+02 -0.23670138591E+01  0.26479563196E+02  0.00000000000E+00 0.  1.
</event>
<event>
12    1  0.8052519E-002  0.1785499E+03  0.7818608E-02  0.1169399E+00
         21   -1    0    0  501  502  0.00000000000E+00  0.00000000000E+00  0.95659759991E+03  0.95659759991E+03  0.00000000000E+00 0.  1.
         21   -1    0    0  502  503 -0.00000000000E+00 -0.00000000000E+00 -0.33860430273E+02  0.33860430273E+02  0.00000000000E+00 0.  1.
         -6    2    1    2    0  503  0.91957886925E+01  0.49434979937E+02  0.39242576288E+03  0.43113574869E+03  0.17132330447E+03 0.  0.
        -24    2    3    3    0    0 -0.44118439666E+02  0.74947063342E+02  0.28132421898E+03  0.30520355899E+03  0.80264545185E+02 0.  0.
          6    2    1    2  501    0 -0.91957886925E+01 -0.49434979937E+02  0.53031140676E+03  0.55932228149E+03  0.17053693638E+03 0.  0.
         24    2    5    5    0    0 -0.15108504793E+02 -0.98266552659E+02  0.35213767998E+03  0.37442379686E+03  0.79420725917E+02 0.  0.
          5    1    5    5  501    0  0.59127161008E+01  0.48831572722E+02  0.17817372678E+03  0.18489848463E+03  0.47000000000E+01 0. -1.
        -13    1    6    6    0    0 -0.46638371227E+02 -0.63473948273E+02  0.19154192793E+03  0.20710478008E+03  0.00000000000E+00 0.  1.
         14    1    6    6    0    0  0.31529866433E+02 -0.34792604386E+02  0.16059575205E+03  0.16731901678E+03  0.00000000000E+00 0. -1.
         -5    1    3    3    0  503  0.53314228359E+02 -0.25512083405E+02  0.11110154390E+03  0.12593218969E+03  0.47000000000E+01 0.  1.
         13    1    4    4    0    0 -0.37985018885E+02  0.59568005561E+02  0.27979442311E+03  0.28857603530E+03  0.00000000000E+00 0. -1.
        -14    1    4    4    0    0 -0.61334207818E+01  0.15379057781E+02  0.15297958717E+01  0.16627523692E+02  0.00000000000E+00 0.  1.
</event>
<event>
12    1  0.8052519E-002  0.1863285E+03  0.7818608E-02  0.1162569E+00
         21   -1    0    0  503  502  0.00000000000E+00  0.00000000000E+00  0.14114163022E+03  0.14114163022E+03  0.00000000000E+00 0.  1.
         21   -1    0    0  501  503 -0.00000000000E+00 -0.00000000000E+00 -0.40203547866E+03  0.40203547866E+03  0.00000000000E+00 0.  1.
          6    2    1    2  501    0  0.66895231745E+02  0.16578428564E+02 -0.30261860212E+03  0.35538195526E+03  0.17311412261E+03 0.  0.
         24    2    3    3    0    0  0.60033470328E+02 -0.44549329602E+01 -0.31423365567E+03  0.32995587542E+03  0.80648777922E+02 0.  0.
         -6    2    1    2    0  502 -0.66895231745E+02 -0.16578428564E+02  0.41724753678E+02  0.18779515363E+03  0.16963563403E+03 0.  0.
        -24    2    5    5    0    0 -0.56561516241E+02  0.50464316488E+02  0.50458405982E+01  0.11053618648E+03  0.80292811988E+02 0.  0.
          5    1    3    3  501    0  0.68617614171E+01  0.21033361524E+02  0.11615053553E+02  0.25426079835E+02  0.47000000000E+01 0. -1.
        -13    1    4    4    0    0  0.59828117697E+02  0.10069191219E+02 -0.11350113130E+03  0.12869848128E+03  0.00000000000E+00 0.  1.
         14    1    4    4    0    0  0.20535263153E+00 -0.14524124180E+02 -0.20073252438E+03  0.20125739414E+03  0.00000000000E+00 0. -1.
         -5    1    5    5    0  502 -0.10333715505E+02 -0.67042745052E+02  0.36678913080E+02  0.77258967149E+02  0.47000000000E+01 0.  1.
         11    1    6    6    0    0 -0.57904715263E+01 -0.18334103882E+02  0.15094138428E+02  0.24443852817E+02  0.00000000000E+00 0. -1.
        -12    1    6    6    0    0 -0.50771044714E+02  0.68798420370E+02 -0.10048297830E+02  0.86092333666E+02  0.00000000000E+00 0.  1.
</event>
<event>
12    1  0.8052519E-002  0.2966056E+03  0.7818608E-02  0.1087026E+00
         21   -1    0    0  503  502  0.00000000000E+00  0.00000000000E+00  0.15404903082E+03  0.15404903082E+03  0.00000000000E+00 0. -1.
         21   -1    0    0  501  503 -0.00000000000E+00 -0.00000000000E+00 -0.76751329782E+03  0.76751329782E+03  0.00000000000E+00 0.  1.
          6    2    1    2  501    0 -0.19970831697E+03  0.13684918971E+03 -0.54075545449E+03  0.61675873390E+03  0.17135857635E+03 0.  0.
         24    2    3    3    0    0 -0.19488519003E+03  0.81473447584E+02 -0.49771025871E+03  0.54629800548E+03  0.78152730023E+02 0.  0.
         -6    2    1    2    0  502  0.19970831697E+03 -0.13684918971E+03 -0.72708812506E+02  0.30480359474E+03  0.17031602202E+03 0.  0.
        -24    2    5    5    0    0  0.40095474892E+02 -0.56965335934E+02  0.12144568408E+02  0.10711728843E+03  0.80460712978E+02 0.  0.
          5    1    3    3  501    0 -0.48231269390E+01  0.55375742130E+02 -0.43045195779E+02  0.70460728421E+02  0.47000000000E+01 0. -1.
        -11    1    4    4    0    0  0.48589808537E+01  0.11394646476E+02 -0.42658347679E+02  0.44420516543E+02  0.00000000000E+00 0.  1.
         12    1    4    4    0    0 -0.19974417089E+03  0.70078801108E+02 -0.45505191103E+03  0.50187748894E+03  0.00000000000E+00 0. -1.
         -5    1    5    5    0  502  0.15961284208E+03 -0.79883853780E+02 -0.84853380914E+02  0.19768630631E+03  0.47000000000E+01 0.  1.
         11    1    6    6    0    0 -0.35278740915E+01  0.13061814897E+02  0.20101982525E+02  0.24231108217E+02  0.00000000000E+00 0. -1.
        -12    1    6    6    0    0  0.43623348983E+02 -0.70027150831E+02 -0.79574141167E+01  0.82886180208E+02  0.00000000000E+00 0.  1.
</event>
<event>
12    1  0.8052519E-002  0.1886329E+03  0.7818608E-02  0.1161194E+00
         21   -1    0    0  503  502  0.00000000000E+00  0.00000000000E+00  0.14871795835E+04  0.14871795835E+04  0.00000000000E+00 0. -1.
         21   -1    0    0  501  503 -0.00000000000E+00 -0.00000000000E+00 -0.29477491221E+02  0.29477491221E+02  0.00000000000E+00 0. -1.
          6    2    1    2  501    0 -0.73892669266E+02  0.12018768332E+02  0.38653787587E+03  0.43010915526E+03  0.17314092120E+03 0.  0.
         24    2    3    3    0    0 -0.50168858370E+02  0.57971490555E+02  0.34889572687E+03  0.36597263474E+03  0.79562133471E+02 0.  0.
         -6    2    1    2    0  502  0.73892669266E+02 -0.12018768332E+02  0.10711642164E+04  0.10865479194E+04  0.16609944432E+03 0.  0.
        -24    2    5    5    0    0  0.36480842878E+02  0.46625379998E+02  0.81407025885E+03  0.82016816441E+03  0.80378191123E+02 0.  0.
          5    1    3    3  501    0 -0.23723810897E+02 -0.45952722223E+02  0.37642148996E+02  0.64136520518E+02  0.47000000000E+01 0. -1.
        -11    1    4    4    0    0 -0.36908139297E+02 -0.24207722707E+01  0.21912260598E+03  0.22222238262E+03  0.00000000000E+00 0.  1.
         12    1    4    4    0    0 -0.13260719072E+02  0.60392262826E+02  0.12977312089E+03  0.14375025212E+03  0.00000000000E+00 0. -1.
         -5    1    5    5    0  502  0.37411826389E+02 -0.58644148330E+02  0.25709395753E+03  0.26637975502E+03  0.47000000000E+01 0.  1.
         11    1    6    6    0    0  0.11093346926E+02 -0.94061340011E+00  0.57440777540E+03  0.57451565648E+03  0.00000000000E+00 0. -1.
        -12    1    6    6    0    0  0.25387495951E+02  0.47565993398E+02  0.23966248345E+03  0.24565250793E+03  0.00000000000E+00 0.  1.
</event>
<event>
12    1  0.8052519E-002  0.2110859E+03  0.7818608E-02  0.1141310E+00
         21   -1    0    0  501  502  0.00000000000E+00  0.00000000000E+00  0.12009105854E+04  0.12009105854E+04  0.00000000000E+00 0.  1.
         21   -1    0    0  502  503 -0.00000000000E+00 -0.00000000000E+00 -0.18685700700E+03  0.18685700700E+03  0.00000000000E+00 0.  1.
         -6    2    1    2    0  503 -0.10038343666E+03  0.61154356014E+02 -0.11597333192E+03  0.23819460401E+03  0.17166876841E+03 0.  0.
        -24    2    3    3    0    0 -0.54955827964E+02 -0.93276360684E+00 -0.12725862011E+03  0.16029771200E+03  0.80495881925E+02 0.  0.
          6    2    1    2  501    0  0.10038343666E+03 -0.61154356014E+02  0.11300269103E+04  0.11495729884E+04  0.17532982629E+03 0.  0.
         24    2    5    5    0    0  0.29063096551E+02 -0.97530343871E+02  0.71162676295E+03  0.72355587991E+03  0.82241291606E+02 0.  0.
          5    1    5    5  501    0  0.71320340105E+02  0.36375987858E+02  0.41840014732E+03  0.42601710844E+03  0.47000000000E+01 0. -1.
        -13    1    6    6    0    0 -0.24726203160E+02 -0.34910679965E+02  0.15321414171E+03  0.15907455459E+03  0.00000000000E+00 0.  1.
         14    1    6    6    0    0  0.53789299711E+02 -0.62619663907E+02  0.55841262124E+03  0.56448132531E+03  0.00000000000E+00 0. -1.
         -5    1    3    3    0  503 -0.45427608692E+02  0.62087119621E+02  0.11285288184E+02  0.77896892002E+02  0.47000000000E+01 0.  1.
         13    1    4    4    0    0  0.15349070228E+02  0.14144352046E+02 -0.52859393967E+02  0.56831084648E+02  0.00000000000E+00 0. -1.
        -14    1    4    4    0    0 -0.70304898192E+02 -0.15077115653E+02 -0.74399226141E+02  0.10346662736E+03  0.00000000000E+00 0.  1.
</event>
<event>
12    1  0.8052519E-002  0.3388389E+03  0.7818608E-02  0.1067323E+00
         21   -1    0    0  503  502  0.00000000000E+00  0.00000000000E+00  0.18829009534E+03  0.18829009534E+03  0.00000000000E+00 0.  1.
         21   -1    0    0  501  503 -0.00000000000E+00 -0.00000000000E+00 -0.63326131732E+03  0.63326131732E+03  0.00000000000E+00 0. -1.
          6    2    1    2  501    0  0.26743378216E+03 -0.11705536233E+03 -0.14256954054E+03  0.36761105381E+03  0.17201461364E+03 0.  0.
         24    2    3    3    0    0  0.24159095810E+03 -0.46535616956E+02 -0.83266696419E+02  0.27179976344E+03  0.80062562967E+02 0.  0.
         -6    2    1    2    0  502 -0.26743378216E+03  0.11705536233E+03 -0.30240168145E+03  0.45394035885E+03  0.17144178825E+03 0.  0.
        -24    2    5    5    0    0 -0.14323746576E+03  0.11829390387E+03 -0.18844390670E+03  0.28531437207E+03  0.10669004474E+03 0.  0.
          5    1    3    3  501    0  0.25842824058E+02 -0.70519745376E+02 -0.59302844117E+02  0.95811290376E+02  0.47000000000E+01 0. -1.
        -13    1    4    4    0    0  0.93749234540E+02 -0.47879653232E+02 -0.71551850211E+01  0.10551102712E+03  0.00000000000E+00 0.  1.
         14    1    4    4    0    0  0.14784172356E+03  0.13440362759E+01 -0.76111511397E+02  0.16628873632E+03  0.00000000000E+00 0. -1.
         -5    1    5    5    0  502 -0.12419631640E+03 -0.12385415396E+01 -0.11395777475E+03  0.16862598678E+03  0.47000000000E+01 0.  1.
         13    1    6    6    0    0 -0.26050752748E+02 -0.13953444156E+02 -0.59943136952E+02  0.66832028177E+02  0.00000000000E+00 0. -1.
        -14    1    6    6    0    0 -0.11718671301E+03  0.13224734803E+03 -0.12850076975E+03  0.21848234389E+03  0.00000000000E+00 0.  1.
</event>
<event>
12    1  0.8052519E-002  0.2429994E+03  0.7818608E-02  0.1119296E+00
         21   -1    0    0  503  502  0.00000000000E+00  0.00000000000E+00  0.11383835087E+03  0.11383835087E+03  0.00000000000E+00 0.  1.
         21   -1    0    0  501  503 -0.00000000000E+00 -0.00000000000E+00 -0.63955389531E+03  0.63955389531E+03  0.00000000000E+00 0.  1.
          6    2    1    2  501    0  0.14296568492E+03 -0.66955329323E+02 -0.43502358452E+03  0.49402038284E+03  0.17288266652E+03 0.  0.
         24    2    3    3    0    0  0.99218887728E+02  0.99736245023E+01 -0.15997560405E+03  0.20504749871E+03  0.80674791405E+02 0.  0.
         -6    2    1    2    0  502 -0.14296568492E+03  0.66955329323E+02 -0.90691959919E+02  0.25937186335E+03  0.18473366968E+03 0.  0.
        -24    2    5    5    0    0  0.21958047500E+01  0.52115682476E+02 -0.20453073345E+02  0.97360553898E+02  0.79623384302E+02 0.  0.
          5    1    3    3  501    0  0.43746797192E+02 -0.76928953826E+02 -0.27504798047E+03  0.28897288413E+03  0.47000000000E+01 0. -1.
        -11    1    4    4    0    0  0.80402258673E+02 -0.21706193258E+02 -0.14060856038E+03  0.16342107966E+03  0.00000000000E+00 0.  1.
         12    1    4    4    0    0  0.18816629054E+02  0.31679817760E+02 -0.19367043670E+02  0.41626419048E+02  0.00000000000E+00 0. -1.
         -5    1    5    5    0  502 -0.14516148967E+03  0.14839646847E+02 -0.70238886574E+02  0.16201130945E+03  0.47000000000E+01 0.  1.
         13    1    6    6    0    0 -0.16043750770E+01 -0.34669545592E+01  0.25104045077E+02  0.25393047721E+02  0.00000000000E+00 0. -1.
        -14    1    6    6    0    0  0.38001798270E+01  0.55582637036E+02 -0.45557118422E+02  0.71967506178E+02  0.00000000000E+00 0.  1.
</event>
<event>
12    1  0.8052519E-002  0.1774182E+03  0.7818608E-02  0.1170870E+00
         21   -1    0    0  503  502  0.00000000000E+00  0.00000000000E+00  0.16137637469E+02  0.16137637469E+02  0.00000000000E+00 0. -1.
         21   -1    0    0  501  503 -0.00000000000E+00 -0.00000000000E+00 -0.19662121462E+04  0.19662121462E+04  0.00000000000E+00 0. -1.
          6    2    1    2  501    0 -0.99383973684E+01  0.34943570615E+02 -0.11218561904E+04  0.11357986236E+04  0.17365879343E+03 0.  0.
         24    2    3    3    0    0  0.41009945738E+02  0.59815940234E+02 -0.51516533537E+03  0.52644630184E+03  0.80564406563E+02 0.  0.
         -6    2    1    2    0  502  0.99383973684E+01 -0.34943570615E+02 -0.82821831837E+03  0.84655116012E+03  0.17141604051E+03 0.  0.
        -24    2    5    5    0    0  0.61444516590E+01 -0.81693902023E+02 -0.41954990864E+03  0.43517305348E+03  0.81497317262E+02 0.  0.
          5    1    3    3  501    0 -0.50948343106E+02 -0.24872369619E+02 -0.60669085501E+03  0.60935232172E+03  0.47000000000E+01 0. -1.
        -11    1    4    4    0    0  0.17601421622E+02 -0.67068779235E+01 -0.25358128405E+02  0.31588398674E+02  0.00000000000E+00 0.  1.
         12    1    4    4    0    0  0.23408524116E+02  0.66522818157E+02 -0.48980720696E+03  0.49485790317E+03  0.00000000000E+00 0. -1.
         -5    1    5    5    0  502  0.37939457093E+01  0.46750331408E+02 -0.40866840973E+03  0.41137810664E+03  0.47000000000E+01 0.  1.
         11    1    6    6    0    0 -0.85863280091E+01  0.15157323775E+02 -0.55273913705E+02  0.57954076896E+02  0.00000000000E+00 0. -1.
        -12    1    6    6    0    0  0.14730779668E+02 -0.96851225798E+02 -0.36427599493E+03  0.37721897658E+03  0.00000000000E+00 0.  1.
</event>
<event>
12    1  0.8052519E-002  0.1958437E+03  0.7818608E-02  0.1153402E+00
         21   -1    0    0  503  502  0.00000000000E+00  0.00000000000E+00  0.24653427626E+03  0.24653427626E+03  0.00000000000E+00 0.  1.
         21   -1    0    0  501  503 -0.00000000000E+00 -0.00000000000E+00 -0.45883962958E+03  0.45883962958E+03  0.00000000000E+00 0. -1.
          6    2    1    2  501    0  0.27867163647E+02  0.87590179045E+02 -0.39311200811E+03  0.43919448974E+03  0.17293389089E+03 0.  0.
         24    2    3    3    0    0 -0.36913635703E+02  0.13409547429E+02 -0.24969820634E+03  0.26515734827E+03  0.80104885172E+02 0.  0.
         -6    2    1    2    0  502 -0.27867163647E+02 -0.87590179045E+02  0.18080665479E+03  0.26617941611E+03  0.17237116020E+03 0.  0.
        -24    2    5    5    0    0  0.13388750791E+02 -0.49162504765E+02  0.21410235801E+02  0.97040286948E+02  0.79763453857E+02 0.  0.
          5    1    3    3  501    0  0.64780799350E+02  0.74180631616E+02 -0.14341380177E+03  0.17403714147E+03  0.47000000000E+01 0. -1.
        -11    1    4    4    0    0 -0.83148865473E+01 -0.31228525929E+02 -0.59507299651E+02  0.67716149342E+02  0.00000000000E+00 0.  1.
         12    1    4    4    0    0 -0.28598749156E+02  0.44638073357E+02 -0.19019090669E+03  0.19744119893E+03  0.00000000000E+00 0. -1.
         -5    1    5    5    0  502 -0.41255914439E+02 -0.38427674280E+02  0.15939641899E+03  0.16913912916E+03  0.47000000000E+01 0.  1.
         11    1    6    6    0    0  0.23999316815E+02 -0.49318561942E+02  0.45147304745E+02  0.71039192601E+02  0.00000000000E+00 0. -1.
        -12    1    6    6    0    0 -0.10610566024E+02  0.15605717667E+00 -0.23737068944E+02  0.26001094347E+02  0.00000000000E+00 0.  1.
</event>
<event>
12    1  0.8052519E-002  0.2045971E+03  0.7818608E-02  0.1145971E+00
         21   -1    0    0  501  502  0.00000000000E+00  0.00000000000E+00  0.36086195190E+03  0.36086195190E+03  0.00000000000E+00 0. -1.
         21   -1    0    0  502  503 -0.00000000000E+00 -0.00000000000E+00 -0.13008360026E+03  0.13008360026E+03  0.00000000000E+00 0. -1.
         -6    2    1    2    0  503  0.10418594819E+03  0.39698439664E+02  0.34133033552E+02  0.20716863114E+03  0.17123988974E+03 0.  0.
        -24    2    3    3    0    0  0.64213239078E+02  0.82146373947E+02 -0.13259922714E+02  0.13188365985E+03  0.79662458910E+02 0.  0.
          6    2    1    2  501    0 -0.10418594819E+03 -0.39698439664E+02  0.19664531808E+03  0.28377692102E+03  0.17154964841E+03 0.  0.
         24    2    5    5    0    0 -0.59296533448E+02 -0.66933380604E+02  0.53717903214E+02  0.13143803076E+03  0.79963657292E+02 0.  0.
          5    1    5    5  501    0 -0.44889414741E+02  0.27234940940E+02  0.14292741487E+03  0.15233889026E+03  0.47000000000E+01 0. -1.
        -13    1    6    6    0    0 -0.64699850875E+02 -0.31011777517E+02  0.67546373998E+01  0.72065429815E+02  0.00000000000E+00 0.  1.
         14    1    6    6    0    0  0.54033174271E+01 -0.35921603087E+02  0.46963265814E+02  0.59372600950E+02  0.00000000000E+00 0. -1.
         -5    1    3    3    0  503  0.39972709112E+02 -0.42447934284E+02  0.47392956267E+02  0.75284971292E+02  0.47000000000E+01 0.  1.
         11    1    4    4    0    0  0.82256028849E+02  0.60435850363E+02 -0.16760574228E+02  0.10343820928E+03  0.00000000000E+00 0. -1.
        -12    1    4    4    0    0 -0.18042789771E+02  0.21710523585E+02  0.35006515133E+01  0.28445450569E+02  0.00000000000E+00 0.  1.
</event>
<event>
12    1  0.8052519E-002  0.2058887E+03  0.7818608E-02  0.1145525E+00
         21   -1    0    0  503  502  0.00000000000E+00  0.00000000000E+00  0.19334624562E+04  0.19334624562E+04  0.00000000000E+00 0. -1.
         21   -1    0    0  501  503 -0.00000000000E+00 -0.00000000000E+00 -0.42710505983E+02  0.42710505983E+02  0.00000000000E+00 0. -1.
          6    2    1    2  501    0  0.10357603744E+03  0.62182301959E+01  0.24665235982E+03  0.31923192419E+03  0.17408323555E+03 0.  0.
         24    2    3    3    0    0  0.68711394070E+02  0.61407477165E+02  0.21546777225E+03  0.24673389084E+03  0.77195324227E+02 0.  0.
         -6    2    1    2    0  502 -0.10357603744E+03 -0.62182301959E+01  0.16440995904E+04  0.16569410380E+04  0.17782991402E+03 0.  0.
        -24    2    5    5    0    0 -0.19962268667E+00 -0.37549563104E+01  0.42526132583E+03  0.43371515697E+03  0.85132265255E+02 0.  0.
          5    1    3    3  501    0  0.34864643369E+02 -0.55189246969E+02  0.31184587570E+02  0.72498033354E+02  0.47000000000E+01 0. -1.
        -13    1    4    4    0    0 -0.81231549150E+01 -0.11608169955E+02  0.27788330503E+02  0.31191770831E+02  0.00000000000E+00 0.  1.
         14    1    4    4    0    0  0.76834548985E+02  0.73015647119E+02  0.18767944175E+03  0.21554212001E+03  0.00000000000E+00 0. -1.
         -5    1    5    5    0  502 -0.10337641475E+03 -0.24632738855E+01  0.12188382645E+04  0.12232258810E+04  0.47000000000E+01 0.  1.
         11    1    6    6    0    0  0.39821238205E+02 -0.16511293399E+02  0.20477783586E+03  0.20926613649E+03  0.00000000000E+00 0. -1.
        -12    1    6    6    0    0 -0.40020860891E+02  0.12756337088E+02  0.22048348997E+03  0.22444902047E+03  0.00000000000E+00 0.  1.
</event>
<event>
12    1  0.8052519E-002  0.3023892E+03  0.7818608E-02  0.1085150E+00
         21   -1    0    0  503  502  0.00000000000E+00  0.00000000000E+00  0.91391531198E+02  0.91391531198E+02  0.00000000000E+00 0.  1.
         21   -1    0    0  501  503 -0.00000000000E+00 -0.00000000000E+00 -0.10426445272E+04  0.10426445272E+04  0.00000000000E+00 0.  1.
          6    2    1    2  501    0  0.22622415051E+03 -0.75176469098E+02 -0.62987731488E+03  0.69870212651E+03  0.18603860353E+03 0.  0.
         24    2    3    3    0    0  0.10110752272E+03  0.84109556303E+01 -0.42789109091E+03  0.44678636123E+03  0.78954363871E+02 0.  0.
         -6    2    1    2    0  502 -0.22622415051E+03  0.75176469098E+02 -0.32137568110E+03  0.43533393187E+03  0.17147721731E+03 0.  0.
        -24    2    5    5    0    0 -0.47952553518E+02  0.48428108563E+02 -0.71152753835E+02  0.12690267468E+03  0.79980281159E+02 0.  0.
          5    1    3    3  501    0  0.12511662779E+03 -0.83587424729E+02 -0.20198622397E+03  0.25191576528E+03  0.47000000000E+01 0. -1.
        -11    1    4    4    0    0  0.87222946555E+02 -0.25595375533E+02 -0.27917246704E+03  0.29359876023E+03  0.00000000000E+00 0.  1.
         12    1    4    4    0    0  0.13884576167E+02  0.34006331163E+02 -0.14871862387E+03  0.15318760100E+03  0.00000000000E+00 0. -1.
         -5    1    5    5    0  502 -0.17827159699E+03  0.26748360535E+02 -0.25022292727E+03  0.30843125720E+03  0.47000000000E+01 0.  1.
         11    1    6    6    0    0 -0.66690603925E+02  0.20001562431E+02 -0.37724495607E+02  0.79188614840E+02  0.00000000000E+00 0. -1.
        -12    1    6    6    0    0  0.18738050407E+02  0.28426546133E+02 -0.33428258228E+02  0.47714059838E+02  0.00000000000E+00 0.  1.
</event>
<event>
12    1  0.8052519E-002  0.2104826E+03  0.7818608E-02  0.1141862E+00
         21   -1    0    0  501  502  0.00000000000E+00  0.00000000000E+00  0.54928828269E+02  0.54928828269E+02  0.00000000000E+00 0. -1.
         21   -1    0    0  502  503 -0.00000000000E+00 -0.00000000000E+00 -0.11099033404E+04  0.11099033404E+04  0.00000000000E+00 0.  1.
         -6    2    1    2    0  503  0.65308160747E+02  0.94869905231E+02 -0.83534094002E+03  0.86062531082E+03  0.17209295385E+03 0.  0.
        -24    2    3    3    0    0 -0.27867272692E+02  0.22153645399E+02 -0.23102898760E+03  0.24484585218E+03  0.72854164786E+02 0.  0.
          6    2    1    2  501    0 -0.65308160747E+02 -0.94869905231E+02 -0.21963357208E+03  0.30420685783E+03  0.17617449186E+03 0.  0.
         24    2    5    5    0    0 -0.81482391652E+02 -0.11713462936E+03 -0.12570375755E+03  0.20621592078E+03  0.79772612930E+02 0.  0.
          5    1    5    5  501    0  0.16174230905E+02  0.22264724131E+02 -0.93929814530E+02  0.97990937049E+02  0.47000000000E+01 0. -1.
        -13    1    6    6    0    0 -0.99292840848E+01 -0.44874881141E+02 -0.85098466962E+02  0.96716569000E+02  0.00000000000E+00 0.  1.
         14    1    6    6    0    0 -0.71553107567E+02 -0.72259748221E+02 -0.40605290592E+02  0.10949935178E+03  0.00000000000E+00 0. -1.
         -5    1    3    3    0  503  0.93175433440E+02  0.72716259832E+02 -0.60431195242E+03  0.61577945864E+03  0.47000000000E+01 0.  1.
         11    1    4    4    0    0  0.14535018568E+02 -0.15976113332E+02 -0.39642874459E+02  0.45144882958E+02  0.00000000000E+00 0. -1.
        -12    1    4    4    0    0 -0.42402291260E+02  0.38129758730E+02 -0.19138611315E+03  0.19970096923E+03  0.00000000000E+00 0.  1.
</event>
<event>
12    1  0.8052519E-002  0.1885811E+03  0.7818608E-02  0.1160034E+00
         21   -1    0    0  501  502  0.00000000000E+00  0.00000000000E+00  0.61909177428E+02  0.61909177428E+02  0.00000000000E+00 0.  1.
         21   -1    0    0  502  503 -0.00000000000E+00 -0.00000000000E+00 -0.10408388072E+04  0.10408388072E+04  0.00000000000E+00 0. -1.
         -6    2    1    2    0  503 -0.16118383507E+02  0.76159133799E+02 -0.85916785121E+03  0.87935215067E+03  0.17038424923E+03 0.  0.
        -24    2    3    3    0    0 -0.19586224362E+02  0.10860166009E+03 -0.79956816951E+03  0.81124374083E+03  0.81419951974E+02 0.  0.
          6    2    1    2  501    0  0.16118383507E+02 -0.76159133799E+02 -0.11976177851E+03  0.22339583391E+03  0.17176378858E+03 0.  0.
         24    2    5    5    0    0  0.49270584230E+02 -0.73128358871E+02 -0.26133573794E+02  0.12391425407E+03  0.83044755041E+02 0.  0.
          5    1    5    5  501    0 -0.33152200724E+02 -0.30307749279E+01 -0.93628204720E+02  0.99481579845E+02  0.47000000000E+01 0. -1.
        -13    1    6    6    0    0  0.13800039512E+02 -0.47947625992E+02 -0.52997139094E+02  0.72788135579E+02  0.00000000000E+00 0.  1.
         14    1    6    6    0    0  0.35470544718E+02 -0.25180732879E+02  0.26863565300E+02  0.51126118487E+02  0.00000000000E+00 0. -1.
         -5    1    3    3    0  503  0.34678408554E+01 -0.32442526291E+02 -0.59599681695E+02  0.68108409837E+02  0.47000000000E+01 0.  1.
         13    1    4    4    0    0  0.62824886063E+01  0.46640318534E+02 -0.57316444043E+03  0.57509326613E+03  0.00000000000E+00 0. -1.
        -14    1    4    4    0    0 -0.25868712968E+02  0.61961341556E+02 -0.22640372908E+03  0.23615047470E+03  0.00000000000E+00 0.  1.
</event>
<event>
12    1  0.8052519E-002  0.1861255E+03  0.7818608E-02  0.1162497E+00
         21   -1    0    0  503  502  0.00000000000E+00  0.00000000000E+00  0.64369275453E+03  0.64369275453E+03  0.00000000000E+00 0. -1.
         21   -1    0    0  501  503 -0.00000000000E+00 -0.00000000000E+00 -0.55419010352E+02  0.55419010352E+02  0.00000000000E+00 0. -1.
          6    2    1    2  501    0 -0.66823927127E+02  0.18803323857E+02  0.22592128947E+03  0.29271677872E+03  0.17269534238E+03 0.  0.
         24    2    3    3    0    0 -0.11101201291E+02  0.14257538660E+02  0.31785715511E+02  0.90636603007E+02  0.82934600833E+02 0.  0.
         -6    2    1    2    0  502  0.66823927127E+02 -0.18803323857E+02  0.36235245470E+03  0.40639498616E+03  0.17040710409E+03 0.  0.
        -24    2    5    5    0    0  0.11917425605E+02  0.43282258063E+02  0.11946400539E+03  0.14971185037E+03  0.78272668671E+02 0.  0.
          5    1    3    3  501    0 -0.55722725836E+02  0.45457851971E+01  0.19413557396E+03  0.20208017571E+03  0.47000000000E+01 0. -1.
        -11    1    4    4    0    0  0.27675327072E+02  0.15214235185E+02  0.40023553418E+02  0.50983149266E+02  0.00000000000E+00 0.  1.
         12    1    4    4    0    0 -0.38776528363E+02 -0.95669652569E+00 -0.82378379077E+01  0.39653453741E+02  0.00000000000E+00 0. -1.
         -5    1    5    5    0  502  0.54906501522E+02 -0.62085581920E+02  0.24288844931E+03  0.25668313579E+03  0.47000000000E+01 0.  1.
         11    1    6    6    0    0 -0.15472171156E+02  0.18839545198E+02  0.10878042037E+03  0.11147868137E+03  0.00000000000E+00 0. -1.
        -12    1    6    6    0    0  0.27389596761E+02  0.24442712865E+02  0.10683585020E+02  0.38233169000E+02  0.00000000000E+00 0.  1.
</event>
<event>
12    1  0.8052519E-002  0.1865054E+03  0.7818608E-02  0.1163264E+00
         21   -1    0    0  503  502  0.00000000000E+00  0.00000000000E+00  0.12208357782E+04  0.12208357782E+04  0.00000000000E+00 0.  1.
         21   -1    0    0  501  503 -0.00000000000E+00 -0.00000000000E+00 -0.76680306429E+02  0.76680306429E+02  0.00000000000E+00 0.  1.
          6    2    1    2  501    0 -0.49644916186E+02 -0.15580087647E+02  0.48495140306E+02  0.18609545634E+03  0.17196622751E+03 0.  0.
         24    2    3    3    0    0 -0.45451846596E+02 -0.55936603128E+02  0.81383412437E+02  0.13365540849E+03  0.77754321239E+02 0.  0.
         -6    2    1    2    0  502  0.49644916186E+02  0.15580087647E+02  0.10956603315E+04  0.11114206283E+04  0.17910023508E+03 0.  0.
        -24    2    5    5    0    0  0.92967765380E+02  0.37932927838E+02  0.73200880497E+03  0.74448597273E+03  0.91326669854E+02 0.  0.
          5    1    3    3  501    0 -0.41930695897E+01  0.40356515481E+02 -0.32888272131E+02  0.52440047846E+02  0.47000000000E+01 0. -1.
        -11    1    4    4    0    0  0.16964797193E+02 -0.34450919860E+02  0.19058564710E+02  0.42870725581E+02  0.00000000000E+00 0.  1.
         12    1    4    4    0    0 -0.62416643790E+02 -0.21485683267E+02  0.62324847727E+02  0.90784682913E+02  0.00000000000E+00 0. -1.
         -5    1    5    5    0  502 -0.43322849194E+02 -0.22352840191E+02  0.36365152653E+03  0.36693465559E+03  0.47000000000E+01 0.  1.
         13    1    6    6    0    0  0.14168005267E+02 -0.10670574300E+02  0.21058984610E+02  0.27533150237E+02  0.00000000000E+00 0. -1.
        -14    1    6    6    0    0  0.78799760113E+02  0.48603502138E+02  0.71094982036E+03  0.71695282250E+03  0.00000000000E+00 0.  1.
</event>
<event>
12    1  0.8052519E-002  0.2052656E+03  0.7818608E-02  0.1145547E+00
         21   -1    0    0  503  502  0.00000000000E+00  0.00000000000E+00  0.18944282275E+03  0.18944282275E+03  0.00000000000E+00 0.  1.
         21   -1    0    0  501  503 -0.00000000000E+00 -0.00000000000E+00 -0.31297537654E+03  0.31297537654E+03  0.00000000000E+00 0. -1.
          6    2    1    2  501    0 -0.11045061905E+03 -0.51633719961E+01 -0.19750140555E+03  0.28423164559E+03  0.17191516368E+03 0.  0.
         24    2    3    3    0    0 -0.84317050058E+02 -0.67429508837E+02 -0.10178859958E+03  0.16700082007E+03  0.76630616001E+02 0.  0.
         -6    2    1    2    0  502  0.11045061905E+03  0.51633719961E+01  0.73968851757E+02  0.21818655369E+03  0.17293924229E+03 0.  0.
        -24    2    5    5    0    0  0.11812975337E+03  0.49061494217E+02  0.83302881840E+02  0.17241288925E+03  0.80157129510E+02 0.  0.
          5    1    3    3  501    0 -0.26133568990E+02  0.62266136841E+02 -0.95712805973E+02  0.11723082552E+03  0.47000000000E+01 0. -1.
        -11    1    4    4    0    0  0.10357823221E+02 -0.20942970122E+02 -0.50948282959E+01  0.23913380664E+02  0.00000000000E+00 0.  1.
         12    1    4    4    0    0 -0.94674873279E+02 -0.46486538715E+02 -0.96693771280E+02  0.14308743941E+03  0.00000000000E+00 0. -1.
         -5    1    5    5    0  502 -0.76791343239E+01 -0.43898122221E+02 -0.93340300830E+01  0.45773664438E+02  0.47000000000E+01 0.  1.
         11    1    6    6    0    0  0.11558956229E+03  0.32724206402E+02  0.40905532511E+02  0.12690580438E+03  0.00000000000E+00 0. -1.
        -12    1    6    6    0    0  0.25401910853E+01  0.16337287815E+02  0.42397349330E+02  0.45507084878E+02  0.00000000000E+00 0.  1.
</event>
<event>
12    1  0.8052519E-002  0.2627862E+03  0.7818608E-02  0.1105490E+00
         21   -1    0    0  503  502  0.00000000000E+00  0.00000000000E+00  0.69513403133E+03  0.69513403133E+03  0.00000000000E+00 0.  1.
         21   -1    0    0  501  503 -0.00000000000E+00 -0.00000000000E+00 -0.11207437146E+03  0.11207437146E+03  0.00000000000E+00 0. -1.
          6    2    1    2  501    0  0.18906771453E+03 -0.60381489563E+02  0.42772306143E+03  0.50199958407E+03  0.17223251774E+03 0.  0.
         24    2    3    3    0    0  0.54555788994E+02  0.25330766154E+02  0.20455614812E+03  0.22765379845E+03  0.79781278426E+02 0.  0.
         -6    2    1    2    0  502 -0.18906771453E+03  0.60381489563E+02  0.15533659844E+03  0.30520881871E+03  0.17213494487E+03 0.  0.
        -24    2    5    5    0    0 -0.19546629987E+02  0.44610461549E+02  0.69406142458E+02  0.11444127248E+03  0.76859795815E+02 0.  0.
          5    1    3    3  501    0  0.13451192554E+03 -0.85712255717E+02  0.22316691331E+03  0.27434578563E+03  0.47000000000E+01 0. -1.
        -13    1    4    4    0    0 -0.10984156371E+02  0.13868578456E+02  0.11354849370E+03  0.11491844752E+03  0.00000000000E+00 0.  1.
         14    1    4    4    0    0  0.65539945365E+02  0.11462187697E+02  0.91007654424E+02  0.11273535093E+03  0.00000000000E+00 0. -1.
         -5    1    5    5    0  502 -0.16952108455E+03  0.15771028014E+02  0.85930455979E+02  0.19076754623E+03  0.47000000000E+01 0.  1.
         11    1    6    6    0    0 -0.42496153795E+02  0.41267065667E+02  0.24902972354E+02  0.64257698591E+02  0.00000000000E+00 0. -1.
        -12    1    6    6    0    0  0.22949523809E+02  0.33433958826E+01  0.44503170104E+02  0.50183573890E+02  0.00000000000E+00 0.  1.
</event>
<event>
12    1  0.8052519E-002  0.2775508E+03  0.7818608E-02  0.1097174E+00
         21   -1    0    0  501  502  0.00000000000E+00  0.00000000000E+00  0.27223008838E+03  0.27223008838E+03  0.00000000000E+00 0. -1.
         21   -1    0    0  502  503 -0.00000000000E+00 -0.00000000000E+00 -0.32327241682E+03  0.32327241682E+03  0.00000000000E+00 0.  1.
         -6    2    1    2    0  503 -0.21002103100E+03  0.57038328540E+02 -0.13193744591E+03  0.30640305400E+03  0.17062572337E+03 0.  0.
        -24    2    3    3    0    0 -0.99645747280E+02 -0.26247129989E+02 -0.28229076231E+02  0.13349646996E+03  0.80038990275E+02 0.  0.
          6    2    1    2  501    0  0.21002103100E+03 -0.57038328540E+02  0.80895117475E+02  0.28909945121E+03  0.17225640269E+03 0.  0.
         24    2    5    5    0    0  0.20462869652E+03 -0.11597057566E+02  0.32942932948E+02  0.22265030990E+03  0.80501729692E+02 0.  0.
          5    1    5    5  501    0  0.53923344800E+01 -0.45441270974E+02  0.47952184526E+02  0.66449141302E+02  0.47000000000E+01 0. -1.
        -13    1    6    6    0    0 -0.69147061846E+01  0.25867826804E+01 -0.22783754217E+01  0.77262928250E+01  0.00000000000E+00 0.  1.
         14    1    6    6    0    0  0.21154340271E+03 -0.14183840246E+02  0.35221308370E+02  0.21492401708E+03  0.00000000000E+00 0. -1.
         -5    1    3    3    0  503 -0.11037528373E+03  0.83285458529E+02 -0.10370836968E+03  0.17290658403E+03  0.47000000000E+01 0.  1.
         11    1    4    4    0    0 -0.46242664586E+02  0.85322234645E+01  0.22416822286E+02  0.52093154893E+02  0.00000000000E+00 0. -1.
        -12    1    4    4    0    0 -0.53403082693E+02 -0.34779353454E+02 -0.50645898517E+02  0.81403315070E+02  0.00000000000E+00 0.  1.
</event>
<event>
12    1  0.8052519E-002  0.3135762E+03  0.7818608E-02  0.1078664E+00
         21   -1    0    0  501  502  0.00000000000E+00  0.00000000000E+00  0.54946892937E+03  0.54946892937E+03  0.00000000000E+00 0. -1.
         21   -1    0    0  502  503 -0.00000000000E+00 -0.00000000000E+00 -0.27358386837E+03  0.27358386837E+03  0.00000000000E+00 0.  1.
         -6    2    1    2    0  503  0.79963135130E+02 -0.24971927949E+03  0.38011276057E+03  0.49276334443E+03  0.17197726982E+03 0.  0.
        -24    2    3    3    0    0  0.89194838888E+02 -0.26252895626E+03  0.32119346102E+03  0.43158421373E+03  0.78882963820E+02 0.  0.
          6    2    1    2  501    0 -0.79963135130E+02  0.24971927949E+03 -0.10422769957E+03  0.33028945331E+03  0.17167960883E+03 0.  0.
         24    2    5    5    0    0 -0.74850577468E+02  0.20753864908E+03 -0.13923860619E+03  0.27503370782E+03  0.87070380576E+02 0.  0.
          5    1    5    5  501    0 -0.51125576619E+01  0.42180630413E+02  0.35010906626E+02  0.55255745499E+02  0.47000000000E+01 0. -1.
        -13    1    6    6    0    0 -0.70194658029E+02  0.74383464572E+02 -0.44434390816E+02  0.11151055961E+03  0.00000000000E+00 0.  1.
         14    1    6    6    0    0 -0.46559194386E+01  0.13315518450E+03 -0.94804215376E+02  0.16352314820E+03  0.00000000000E+00 0. -1.
         -5    1    3    3    0  503 -0.92317037584E+01  0.12809676768E+02  0.58919299553E+02  0.61179130698E+02  0.47000000000E+01 0.  1.
         13    1    4    4    0    0  0.30450287262E+02 -0.53650830283E+02  0.12348819768E+03  0.13803972816E+03  0.00000000000E+00 0. -1.
        -14    1    4    4    0    0  0.58744551626E+02 -0.20887812597E+03  0.19770526334E+03  0.29354448557E+03  0.00000000000E+00 0.  1.
</event>
<event>
12    1  0.8052519E-002  0.2419183E+03  0.7818608E-02  0.1118658E+00
         21   -1    0    0  503  502  0.00000000000E+00  0.00000000000E+00  0.25492196446E+03  0.25492196446E+03  0.00000000000E+00 0.  1.
         21   -1    0    0  501  503 -0.00000000000E+00 -0.00000000000E+00 -0.10092913427E+04  0.10092913427E+04  0.00000000000E+00 0. -1.
          6    2    1    2  501    0 -0.16321923595E+03  0.45038722322E+02 -0.93290161096E+03  0.96355032844E+03  0.17162404907E+03 0.  0.
         24    2    3    3    0    0 -0.43858215000E+02  0.28472443489E+02 -0.21085097528E+03  0.23149793591E+03  0.79993359078E+02 0.  0.
         -6    2    1    2    0  502  0.16321923595E+03 -0.45038722322E+02  0.17853223268E+03  0.30066297876E+03  0.17278733518E+03 0.  0.
        -24    2    5    5    0    0  0.60799598029E+02  0.29679972853E+02  0.35604322304E+02  0.10955268808E+03  0.78464207056E+02 0.  0.
          5    1    3    3  501    0 -0.11936102095E+03  0.16566278833E+02 -0.72205063568E+03  0.73205239253E+03  0.47000000000E+01 0. -1.
        -11    1    4    4    0    0  0.23159180384E+02  0.13094853400E+02 -0.52244715175E+02  0.58628773528E+02  0.00000000000E+00 0.  1.
         12    1    4    4    0    0 -0.67017395384E+02  0.15377590089E+02 -0.15860626010E+03  0.17286916239E+03  0.00000000000E+00 0. -1.
         -5    1    5    5    0  502  0.10241963792E+03 -0.74718695175E+02  0.14292791038E+03  0.19111029069E+03  0.47000000000E+01 0.  1.
         11    1    6    6    0    0  0.36317742709E+00  0.41425386927E+02  0.20191035040E+02  0.46085490948E+02  0.00000000000E+00 0. -1.
        -12    1    6    6    0    0  0.60436420602E+02 -0.11745414075E+02  0.15413287264E+02  0.63467197128E+02  0.00000000000E+00 0.  1.
</event>
<event>
12    1  0.8052519E-002  0.1893825E+03  0.7818608E-02  0.1159392E+00
         21   -1    0    0  503  502  0.00000000000E+00  0.00000000000E+00  0.35426074292E+03  0.35426074292E+03  0.00000000000E+00 0.  1.
         21   -1    0    0  501  503 -0.00000000000E+00 -0.00000000000E+00 -0.32105081806E+03  0.32105081806E+03  0.00000000000E+00 0.  1.
          6    2    1    2  501    0  0.29882690497E+02 -0.71634790583E+02 -0.26331580949E+03  0.32434695178E+03  0.17274608878E+03 0.  0.
         24    2    3    3    0    0 -0.41193586134E+02 -0.40649673633E+02 -0.86788619719E+02  0.13148468668E+03  0.80041556788E+02 0.  0.
         -6    2    1    2    0  502 -0.29882690497E+02  0.71634790583E+02  0.29652573435E+03  0.35096460921E+03  0.17095065771E+03 0.  0.
        -24    2    5    5    0    0 -0.48218052246E+02 -0.20263235221E+02  0.15397941070E+03  0.18031005456E+03  0.77887595877E+02 0.  0.
          5    1    3    3  501    0  0.71076276631E+02 -0.30985116950E+02 -0.17652718977E+03  0.19286226510E+03  0.47000000000E+01 0. -1.
        -13    1    4    4    0    0 -0.11393632030E+02 -0.28306034502E+02 -0.93660507812E+02  0.98505518442E+02  0.00000000000E+00 0.  1.
         14    1    4    4    0    0 -0.29799954104E+02 -0.12343639131E+02  0.68718880923E+01  0.32979168236E+02  0.00000000000E+00 0. -1.
         -5    1    5    5    0  502  0.18335361749E+02  0.91898025804E+02  0.14254632365E+03  0.17065455465E+03  0.47000000000E+01 0.  1.
         13    1    6    6    0    0 -0.30216176040E+02  0.15503646769E+02  0.17754896651E+02  0.38322535311E+02  0.00000000000E+00 0. -1.
        -14    1    6    6    0    0 -0.18001876206E+02 -0.35766881990E+02  0.13622451405E+03  0.14198751925E+03  0.00000000000E+00 0.  1.
</event>
<event>
12    1  0.8052519E-002  0.2277645E+03  0.7818608E-02  0.1128400E+00
         21   -1    0    0  503  502  0.00000000000E+00  0.00000000000E+00  0.55894559436E+03  0.55894559436E+03  0.00000000000E+00 0.  1.
         21   -1    0    0  501  503 -0.00000000000E+00 -0.00000000000E+00 -0.14106835107E+03  0.14106835107E+03  0.00000000000E+00 0.  1.
          6    2    1    2  501    0  0.20526558574E+02 -0.14899697085E+03  0.30743241764E+01  0.22679292755E+03  0.16971783520E+03 0.  0.
         24    2    3    3    0    0  0.16081038153E+02 -0.60699786921E+02  0.63624018242E+02  0.11953384498E+03  0.79355280090E+02 0.  0.
         -6    2    1    2    0  502 -0.20526558574E+02  0.14899697085E+03  0.41480291911E+03  0.47322101788E+03  0.17104161229E+03 0.  0.
        -24    2    5    5    0    0 -0.20004697235E+02  0.14537250840E+03  0.42749630538E+03  0.45919885249E+03  0.81099574026E+02 0.  0.
          5    1    3    3  501    0  0.44455204210E+01 -0.88297183927E+02 -0.60549694065E+02  0.10725908256E+03  0.47000000000E+01 0. -1.
        -11    1    4    4    0    0 -0.27130917198E+02 -0.38289479236E+02  0.11706179372E+02  0.48365333904E+02  0.00000000000E+00 0.  1.
         12    1    4    4    0    0  0.43211955352E+02 -0.22410307685E+02  0.51917838870E+02  0.71168511076E+02  0.00000000000E+00 0. -1.
         -5    1    5    5    0  502 -0.52186133932E+00  0.36244624521E+01 -0.12693386268E+02  0.14022165392E+02  0.47000000000E+01 0.  1.
         13    1    6    6    0    0 -0.34777286990E+02  0.42532569882E+02  0.84314924905E+02  0.10063541004E+03  0.00000000000E+00 0. -1.
        -14    1    6    6    0    0  0.14772589755E+02  0.10283993851E+03  0.34318138048E+03  0.35856344246E+03  0.00000000000E+00 0.  1.
</event>
<event>
12    1  0.8052519E-002  0.2536378E+03  0.7818608E-02  0.1111062E+00
         21   -1    0    0  501  502  0.00000000000E+00  0.00000000000E+00  0.43349094493E+02  0.43349094493E+02  0.00000000000E+00 0.  1.
         21   -1    0    0  502  503 -0.00000000000E+00 -0.00000000000E+00 -0.15554865012E+04  0.15554865012E+04  0.00000000000E+00 0.  1.
         -6    2    1    2    0  503 -0.17150185744E+03  0.74865945206E+02 -0.58284201323E+03  0.63554849026E+03  0.17087795127E+03 0.  0.
        -24    2    3    3    0    0 -0.85183183878E+02  0.29646884951E+02 -0.47626746452E+03  0.49106353863E+03  0.78597637427E+02 0.  0.
          6    2    1    2  501    0  0.17150185744E+03 -0.74865945206E+02 -0.92929539344E+03  0.96328710539E+03  0.17121425844E+03 0.  0.
         24    2    5    5    0    0  0.18156700220E+03 -0.55969973019E+02 -0.62190219504E+03  0.65511339898E+03  0.79448166470E+02 0.  0.
          5    1    5    5  501    0 -0.10065144765E+02 -0.18895972187E+02 -0.30739319840E+03  0.30817370641E+03  0.47000000000E+01 0. -1.
        -11    1    6    6    0    0  0.62229939261E+01 -0.27533255578E+02 -0.91615255718E+02  0.95865326873E+02  0.00000000000E+00 0.  1.
         12    1    6    6    0    0  0.17534400828E+03 -0.28436717441E+02 -0.53028693932E+03  0.55924807211E+03  0.00000000000E+00 0. -1.
         -5    1    3    3    0  503 -0.86318673559E+02  0.45219060255E+02 -0.10657454872E+03  0.14448495164E+03  0.47000000000E+01 0.  1.
         13    1    4    4    0    0  0.27437091524E+01 -0.17846166133E+02 -0.10699552447E+03  0.10850832154E+03  0.00000000000E+00 0. -1.
        -14    1    4    4    0    0 -0.87926893031E+02  0.47493051084E+02 -0.36927194004E+03  0.38255521709E+03  0.00000000000E+00 0.  1.
</event>
<event>
12    1  0.8052519E-002  0.1868501E+03  0.7818608E-02  0.1161463E+00
         21   -1    0    0  501  502  0.00000000000E+00  0.00000000000E+00  0.88350708553E+02  0.88350708553E+02  0.00000000000E+00 0.  1.
         21   -1    0    0  502  503 -0.00000000000E+00 -0.00000000000E+00 -0.51462466802E+03  0.51462466802E+03  0.00000000000E+00 0.  1.
         -6    2    1    2    0  503  0.58021820675E+02  0.43075274225E+02 -0.66914112594E+02  0.19794146345E+03  0.17170123344E+03 0.  0.
        -24    2    3    3    0    0  0.18581460028E+02  0.79079522791E+02  0.13989611833E+02  0.10088812457E+03  0.58170979514E+02 0.  0.
          6    2    1    2  501    0 -0.58021820675E+02 -0.43075274225E+02 -0.35935984687E+03  0.40503391312E+03  0.17231065060E+03 0.  0.
         24    2    5    5    0    0 -0.18369767321E+02 -0.24839251014E+02 -0.35030813040E+03  0.36021358906E+03  0.77997479294E+02 0.  0.
          5    1    5    5  501    0 -0.39652053354E+02 -0.18236023211E+02 -0.90517164708E+01  0.44820324060E+02  0.47000000000E+01 0. -1.
        -11    1    6    6    0    0 -0.40602874098E+02 -0.10995640552E+02 -0.30494430040E+03  0.30783197339E+03  0.00000000000E+00 0.  1.
         12    1    6    6    0    0  0.22233106777E+02 -0.13843610462E+02 -0.45363829997E+02  0.52381615664E+02  0.00000000000E+00 0. -1.
         -5    1    3    3    0  503  0.39440360647E+02 -0.36004248566E+02 -0.80903724427E+02  0.97053338886E+02  0.47000000000E+01 0.  1.
         13    1    4    4    0    0 -0.99610426993E+01  0.36557687455E+01  0.17167323427E+02  0.20181774214E+02  0.00000000000E+00 0. -1.
        -14    1    4    4    0    0  0.28542502728E+02  0.75423754045E+02 -0.31777115932E+01  0.80706350352E+02  0.00000000000E+00 0.  1.
</event>
<event>
12    1  0.8052519E-002  0.1926248E+03  0.7818608E-02  0.1156185E+00
         21   -1    0    0  501  502  0.00000000000E+00  0.00000000000E+00  0.12728295894E+04  0.12728295894E+04  0.00000000000E+00 0.  1.
         21   -1    0    0  502  503 -0.00000000000E+00 -0.00000000000E+00 -0.35546807523E+02  0.35546807523E+02  0.00000000000E+00 0.  1.
         -6    2    1    2    0  503  0.86914074609E+02  0.55923868452E+01  0.33970126145E+03  0.39035847920E+03  0.17145688700E+03 0.  0.
        -24    2    3    3    0    0  0.42348585746E+01  0.11006168477E+02  0.67063907795E+02  0.10537009628E+03  0.80412807989E+02 0.  0.
          6    2    1    2  501    0 -0.86914074609E+02 -0.55923868452E+01  0.89758152043E+03  0.91801791772E+03  0.17181088524E+03 0.  0.
         24    2    5    5    0    0 -0.14694794291E+02 -0.60713808465E+02  0.42593948899E+03  0.43768231485E+03  0.78988967136E+02 0.  0.
          5    1    5    5  501    0 -0.72219280319E+02  0.55121421619E+02  0.47164203143E+03  0.48033560287E+03  0.47000000000E+01 0. -1.
        -11    1    6    6    0    0 -0.43506511472E+02 -0.28481035917E+02  0.30138746762E+03  0.30584046754E+03  0.00000000000E+00 0.  1.
         12    1    6    6    0    0  0.28811717181E+02 -0.32232772548E+02  0.12455202137E+03  0.13184184730E+03  0.00000000000E+00 0. -1.
         -5    1    3    3    0  503  0.82679216035E+02 -0.54137816315E+01  0.27263735366E+03  0.28498838293E+03  0.47000000000E+01 0.  1.
         11    1    4    4    0    0 -0.28939240716E+01  0.12135145423E+02  0.85065518000E+02  0.85975455239E+02  0.00000000000E+00 0. -1.
        -12    1    4    4    0    0  0.71287826462E+01 -0.11289769466E+01 -0.18001610205E+02  0.19394641036E+02  0.00000000000E+00 0.  1.
</event>
<event>
12    1  0.8052519E-002  0.1923310E+03  0.7818608E-02  0.1157280E+00
         21   -1    0    0  503  502  0.00000000000E+00  0.00000000000E+00  0.36840513861E+03  0.36840513861E+03  0.00000000000E+00 0.  1.
         21   -1    0    0  501  503 -0.00000000000E+00 -0.00000000000E+00 -0.10033376198E+03  0.10033376198E+03  0.00000000000E+00 0.  1.
          6    2    1    2  501    0 -0.51745290448E+02 -0.55697158674E+02  0.99419104453E+02  0.21293661172E+03  0.17227331108E+03 0.  0.
         24    2    3    3    0    0 -0.77368303605E+02  0.15212190851E+02  0.57847277057E+02  0.12671027301E+03  0.80572456032E+02 0.  0.
         -6    2    1    2    0  502  0.51745290448E+02  0.55697158674E+02  0.16865227218E+03  0.25580228887E+03  0.17666769233E+03 0.  0.
        -24    2    5    5    0    0  0.33267136167E+02  0.10473863925E+03  0.14221396229E+03  0.19691610006E+03  0.80462752206E+02 0.  0.
          5    1    3    3  501    0  0.25623013157E+02 -0.70909349525E+02  0.41571827396E+02  0.86226338704E+02  0.47000000000E+01 0. -1.
        -11    1    4    4    0    0 -0.11662820201E+02  0.76296110400E+01 -0.20114939951E+02  0.24471271910E+02  0.00000000000E+00 0.  1.
         12    1    4    4    0    0 -0.65705483404E+02  0.75825798109E+01  0.77962217007E+02  0.10223900110E+03  0.00000000000E+00 0. -1.
         -5    1    5    5    0  502  0.18478154281E+02 -0.49041480576E+02  0.26438309888E+02  0.58886188809E+02  0.47000000000E+01 0.  1.
         13    1    6    6    0    0  0.15233434155E+02  0.32901121473E+02 -0.35209637690E+00  0.36258313284E+02  0.00000000000E+00 0. -1.
        -14    1    6    6    0    0  0.18033702013E+02  0.71837517777E+02  0.14256605867E+03  0.16065778678E+03  0.00000000000E+00 0.  1.
</event>
<event>
12    1  0.8052519E-002  0.1892229E+03  0.7818608E-02  0.1159701E+00
         21   -1    0    0  501  502  0.00000000000E+00  0.00000000000E+00  0.35160699264E+03  0.35160699264E+03  0.00000000000E+00 0.  1.
         21   -1    0    0  502  503 -0.00000000000E+00 -0.00000000000E+00 -0.11773304375E+03  0.11773304375E+03  0.00000000000E+00 0.  1.
         -6    2    1    2    0  503  0.27227947433E+01 -0.80037407690E+02  0.20715874997E+03  0.28057094803E+03  0.17144068639E+03 0.  0.
        -24    2    3    3    0    0  0.38932456581E+02  0.86493168593E+00  0.14712556781E+03  0.17341498185E+03  0.83128448476E+02 0.  0.
          6    2    1    2  501    0 -0.27227947433E+01  0.80037407690E+02  0.26715198912E+02  0.18876908836E+03  0.16883917385E+03 0.  0.
         24    2    5    5    0    0  0.19862768024E-01 -0.21267634795E+02  0.27595410594E+02  0.87314179280E+02  0.80062141697E+02 0.  0.
          5    1    5    5  501    0 -0.27426575113E+01  0.10130504249E+03 -0.88021168190E+00  0.10145490908E+03  0.47000000000E+01 0. -1.
        -13    1    6    6    0    0  0.30426418644E+02 -0.23129017194E+01 -0.12999841698E+02  0.33167941601E+02  0.00000000000E+00 0.  1.
         14    1    6    6    0    0 -0.30406555876E+02 -0.18954733076E+02  0.40595252291E+02  0.54146237679E+02  0.00000000000E+00 0. -1.
         -5    1    3    3    0  503 -0.36209661837E+02 -0.80902339376E+02  0.60033182163E+02  0.10715596618E+03  0.47000000000E+01 0.  1.
         13    1    4    4    0    0 -0.17294086919E+02  0.25139534241E+02  0.51399430817E+02  0.59774435276E+02  0.00000000000E+00 0. -1.
        -14    1    4    4    0    0  0.56226543499E+02 -0.24274602555E+02  0.95726136992E+02  0.11364054658E+03  0.00000000000E+00 0.  1.
</event>
<event>
12    1  0.8052519E-002  0.2680988E+03  0.7818608E-02  0.1102401E+00
         21   -1    0    0  501  502  0.00000000000E+00  0.00000000000E+00  0.13179365574E+04  0.13179365574E+04  0.00000000000E+00 0.  1.
         21   -1    0    0  502  503 -0.00000000000E+00 -0.00000000000E+00 -0.70499968978E+02  0.70499968978E+02  0.00000000000E+00 0.  1.
         -6    2    1    2    0  503  0.51745977281E+02 -0.19826326535E+03  0.95428506758E+03  0.99117747209E+03  0.17258859294E+03 0.  0.
        -24    2    3    3    0    0  0.10075422334E+02 -0.10778385046E+03  0.29754745240E+03  0.32691145243E+03  0.81349485240E+02 0.  0.
          6    2    1    2  501    0 -0.51745977281E+02  0.19826326535E+03  0.29315152082E+03  0.39725905427E+03  0.17289006185E+03 0.  0.
         24    2    5    5    0    0 -0.99217136123E+02  0.11690717214E+03  0.20545679765E+03  0.26847714833E+03  0.79725507068E+02 0.  0.
          5    1    5    5  501    0  0.47471158842E+02  0.81356093216E+02  0.87694723166E+02  0.12878190594E+03  0.47000000000E+01 0. -1.
        -13    1    6    6    0    0 -0.13966996044E+02  0.75033934631E+02  0.74072121507E+02  0.10635716952E+03  0.00000000000E+00 0.  1.
         14    1    6    6    0    0 -0.85250140079E+02  0.41873237507E+02  0.13138467615E+03  0.16211997881E+03  0.00000000000E+00 0. -1.
         -5    1    3    3    0  503  0.41670554948E+02 -0.90479414889E+02  0.65673761518E+03  0.66426601965E+03  0.47000000000E+01 0.  1.
         13    1    4    4    0    0  0.80639714872E+01 -0.41503352099E+02  0.22370380018E+03  0.22766410803E+03  0.00000000000E+00 0. -1.
        -14    1    4    4    0    0  0.20114508467E+01 -0.66280498366E+02  0.73843652219E+02  0.99247344404E+02  0.00000000000E+00 0.  1.
</event>
<event>
12    1  0.8052519E-002  0.2595928E+03  0.7818608E-02  0.1107390E+00
         21   -1    0    0  501  502  0.00000000000E+00  0.00000000000E+00  0.28106164157E+03  0.28106164157E+03  0.00000000000E+00 0.  1.
         21   -1    0    0  502  503 -0.00000000000E+00 -0.00000000000E+00 -0.27512535156E+03  0.27512535156E+03  0.00000000000E+00 0.  1.
         -6    2    1    2    0  503  0.19339546364E+03  0.25956633151E+02 -0.96745050657E+02  0.27703435833E+03  0.17121004266E+03 0.  0.
        -24    2    3    3    0    0  0.80946301526E+02  0.12395799605E+02  0.19602893023E+02  0.11459161683E+03  0.77723906586E+02 0.  0.
          6    2    1    2  501    0 -0.19339546364E+03 -0.25956633151E+02  0.10268134067E+03  0.27915263480E+03  0.17119341002E+03 0.  0.
         24    2    5    5    0    0 -0.21516290844E+03 -0.27197473237E+02  0.10923496684E+03  0.25590610058E+03  0.80751932575E+02 0.  0.
          5    1    5    5  501    0  0.21767444804E+02  0.12408400859E+01 -0.65536261699E+01  0.23246534223E+02  0.47000000000E+01 0. -1.
        -11    1    6    6    0    0 -0.29792697390E+02  0.13221410192E+02 -0.70926745785E+01  0.33357406043E+02  0.00000000000E+00 0.  1.
         12    1    6    6    0    0 -0.18537021105E+03 -0.40418883428E+02  0.11632764141E+03  0.22254869454E+03  0.00000000000E+00 0. -1.
         -5    1    3    3    0  503  0.11244916211E+03  0.13560833546E+02 -0.11634794368E+03  0.16244274149E+03  0.47000000000E+01 0.  1.
         13    1    4    4    0    0 -0.64579858067E+01  0.86393763680E+01  0.24705990878E+02  0.26957937421E+02  0.00000000000E+00 0. -1.
        -14    1    4    4    0    0  0.87404287333E+02  0.37564232369E+01 -0.51030978554E+01  0.87633679413E+02  0.00000000000E+00 0.  1.
</event>
<event>
12    1  0.8052519E-002  0.2505890E+03  0.7818608E-02  0.1113249E+00
         21   -1    0    0  501  502  0.00000000000E+00  0.00000000000E+00  0.20376842058E+03  0.20376842058E+03  0.00000000000E+00 0.  1.
         21   -1    0    0  502  503 -0.00000000000E+00 -0.00000000000E+00 -0.59721457718E+03  0.59721457718E+03  0.00000000000E+00 0.  1.
         -6    2    1    2    0  503 -0.16976401584E+03 -0.58980919565E+02 -0.47692526153E+03  0.53875092432E+03  0.17463185112E+03 0.  0.
        -24    2    3    3    0    0 -0.65991592770E+02 -0.51748234669E+02 -0.11896758589E+03  0.16595498138E+03  0.79718249139E+02 0.  0.
          6    2    1    2  501    0  0.16976401584E+03  0.58980919565E+02  0.83479104922E+02  0.26223207344E+03  0.17175077711E+03 0.  0.
         24    2    5    5    0    0  0.79262524827E+02  0.37640364048E+02  0.11431227691E+03  0.16415703238E+03  0.78618635062E+02 0.  0.
          5    1    5    5  501    0  0.90501491014E+02  0.21340555517E+02 -0.30833171986E+02  0.98075041067E+02  0.47000000000E+01 0. -1.
        -13    1    6    6    0    0  0.15987786584E+02 -0.23866598023E+02  0.36957662014E+02  0.46809108115E+02  0.00000000000E+00 0.  1.
         14    1    6    6    0    0  0.63274738243E+02  0.61506962071E+02  0.77354614895E+02  0.11734792426E+03  0.00000000000E+00 0. -1.
         -5    1    3    3    0  503 -0.10377242307E+03 -0.72326848959E+01 -0.35795767564E+03  0.37279594294E+03  0.47000000000E+01 0.  1.
         13    1    4    4    0    0 -0.38548913766E+02  0.13652124373E+02 -0.23970940235E+02  0.47402586725E+02  0.00000000000E+00 0. -1.
        -14    1    4    4    0    0 -0.27442679004E+02 -0.65400359042E+02 -0.94996645652E+02  0.11855239466E+03  0.00000000000E+00 0.  1.
</event>
<event>
12    1  0.8052519E-002  0.1826134E+03  0.7818608E-02  0.1165438E+00
         21   -1    0    0  501  502  0.00000000000E+00  0.00000000000E+00  0.17268178030E+03  0.17268178030E+03  0.00000000000E+00 0. -1.
         21   -1    0    0  502  503 -0.00000000000E+00 -0.00000000000E+00 -0.20191122331E+03  0.20191122331E+03  0.00000000000E+00 0. -1.
         -6    2    1    2    0  503  0.48432071262E+02 -0.36974972067E+02 -0.55048529890E+02  0.19016337317E+03  0.17151954340E+03 0.  0.
        -24    2    3    3    0    0  0.50554852624E+02  0.33806520208E+02 -0.88399286201E-02  0.10035255356E+03  0.79824563855E+02 0.  0.
          6    2    1    2  501    0 -0.48432071262E+02  0.36974972067E+02  0.25819086882E+02  0.18442963044E+03  0.17214775412E+03 0.  0.
         24    2    5    5    0    0 -0.39451840135E+02  0.67937532724E+02 -0.33906572911E+02  0.11639604203E+03  0.78907711101E+02 0.  0.
          5    1    5    5  501    0 -0.89802311267E+01 -0.30962560657E+02  0.59725659792E+02  0.68033588404E+02  0.47000000000E+01 0. -1.
        -11    1    6    6    0    0  0.98792060175E+01  0.24350204984E+02 -0.42541906870E+02  0.50003450225E+02  0.00000000000E+00 0.  1.
         12    1    6    6    0    0 -0.49331046153E+02  0.43587327741E+02  0.86353339596E+01  0.66392591806E+02  0.00000000000E+00 0. -1.
         -5    1    3    3    0  503 -0.21227813618E+01 -0.70781492275E+02 -0.55039689961E+02  0.89810819618E+02  0.47000000000E+01 0.  1.
         13    1    4    4    0    0 -0.83565728379E+01  0.24875880427E+02 -0.24528144973E+02  0.35920351229E+02  0.00000000000E+00 0. -1.
        -14    1    4    4    0    0  0.58911425461E+02  0.89306397811E+01  0.24519305045E+02  0.64432202327E+02  0.00000000000E+00 0.  1.
</event>
<event>
12    1  0.8052519E-002  0.1927457E+03  0.7818608E-02  0.1157400E+00
         21   -1    0    0  503  502  0.00000000000E+00  0.00000000000E+00  0.55294917897E+03  0.55294917897E+03  0.00000000000E+00 0.  1.
         21   -1    0    0  501  503 -0.00000000000E+00 -0.00000000000E+00 -0.84247801642E+02  0.84247801642E+02  0.00000000000E+00 0. -1.
          6    2    1    2  501    0  0.67248117718E+01 -0.86393661911E+02  0.85225753175E+02  0.21074707555E+03  0.17216797883E+03 0.  0.
         24    2    3    3    0    0 -0.12004136248E+02 -0.12330864905E+03  0.40530658526E+02  0.14964690161E+03  0.73500603137E+02 0.  0.
         -6    2    1    2    0  502 -0.67248117718E+01  0.86393661911E+02  0.38347562416E+03  0.42644990507E+03  0.16521767248E+03 0.  0.
        -24    2    5    5    0    0 -0.23443488490E+02 -0.10180086555E+02  0.22163768539E+03  0.23718920797E+03  0.80512269100E+02 0.  0.
          5    1    3    3  501    0  0.18728948020E+02  0.36914987143E+02  0.44695094649E+02  0.61100173939E+02  0.47000000000E+01 0. -1.
        -13    1    4    4    0    0 -0.39740475719E+02 -0.96113719388E+02  0.37965077098E+02  0.11071810847E+03  0.00000000000E+00 0.  1.
         14    1    4    4    0    0  0.27736339471E+02 -0.27194929665E+02  0.25655814280E+01  0.38928793133E+02  0.00000000000E+00 0. -1.
         -5    1    5    5    0  502  0.16718676719E+02  0.96573748466E+02  0.16183793877E+03  0.18926069710E+03  0.47000000000E+01 0.  1.
         13    1    6    6    0    0 -0.17990818648E+02  0.26993612873E+02  0.17147328413E+03  0.17451478981E+03  0.00000000000E+00 0. -1.
        -14    1    6    6    0    0 -0.54526698424E+01 -0.37173699428E+02  0.50164401257E+02  0.62674418154E+02  0.00000000000E+00 0.  1.
</event>
<event>
12    1  0.8052519E-002  0.1952807E+03  0.7818608E-02  0.1153894E+00
         21   -1    0    0  501  502  0.00000000000E+00  0.00000000000E+00  0.24345182645E+03  0.24345182645E+03  0.00000000000E+00 0. -1.
         21   -1    0    0  502  503 -0.00000000000E+00 -0.00000000000E+00 -0.26255300275E+03  0.26255300275E+03  0.00000000000E+00 0. -1.
         -6    2    1    2    0  503  0.27062232320E+02  0.87826254553E+02 -0.17054364483E+03  0.25888261182E+03  0.17172436200E+03 0.  0.
        -24    2    3    3    0    0 -0.36573632637E+02  0.81524236225E+02 -0.14810303137E+03  0.19094948384E+03  0.80891073576E+02 0.  0.
          6    2    1    2  501    0 -0.27062232320E+02 -0.87826254553E+02  0.15144246853E+03  0.24712221738E+03  0.17230424731E+03 0.  0.
         24    2    5    5    0    0 -0.23927416239E+02 -0.57505336385E+02  0.94581345608E+01  0.10182656623E+03  0.79998801996E+02 0.  0.
          5    1    5    5  501    0 -0.31348160813E+01 -0.30320918168E+02  0.14198433397E+03  0.14529565115E+03  0.47000000000E+01 0. -1.
        -13    1    6    6    0    0 -0.11951496850E+02  0.14509049800E+02 -0.15821949151E+02  0.24569999552E+02  0.00000000000E+00 0.  1.
         14    1    6    6    0    0 -0.11975919389E+02 -0.72014386185E+02  0.25280083712E+02  0.77256566681E+02  0.00000000000E+00 0. -1.
         -5    1    3    3    0  503  0.63635864957E+02  0.63020183276E+01 -0.22440613465E+02  0.67933127976E+02  0.47000000000E+01 0.  1.
         11    1    4    4    0    0  0.25446210689E+02  0.22280442950E+02 -0.53111794054E+02  0.62966581963E+02  0.00000000000E+00 0. -1.
        -12    1    4    4    0    0 -0.62019843326E+02  0.59243793276E+02 -0.94991237313E+02  0.12798290188E+03  0.00000000000E+00 0.  1.
</event>
<event>
12    1  0.8052519E-002  0.2328701E+03  0.7818608E-02  0.1124783E+00
         21   -1    0    0  501  502  0.00000000000E+00  0.00000000000E+00  0.74177130508E+02  0.74177130508E+02  0.00000000000E+00 0. -1.
         21   -1    0    0  502  503 -0.00000000000E+00 -0.00000000000E+00 -0.10316352021E+04  0.10316352021E+04  0.00000000000E+00 0. -1.
         -6    2    1    2    0  503  0.68436709895E+02 -0.14001336494E+03 -0.77910948582E+03  0.81316669485E+03  0.17303513254E+03 0.  0.
        -24    2    3    3    0    0 -0.18972209267E+02 -0.11175564363E+03 -0.43597173571E+03  0.45791407556E+03  0.82247660440E+02 0.  0.
          6    2    1    2  501    0 -0.68436709895E+02  0.14001336494E+03 -0.17834858579E+03  0.29264563777E+03  0.17188928307E+03 0.  0.
         24    2    5    5    0    0 -0.28683866704E+01  0.14541543290E+03 -0.13421944121E+03  0.21328658820E+03  0.79513738046E+02 0.  0.
          5    1    5    5  501    0 -0.65568323225E+02 -0.54020679617E+01 -0.44129144574E+02  0.79359049576E+02  0.47000000000E+01 0. -1.
        -11    1    6    6    0    0 -0.26566601919E+02  0.28001439235E+02 -0.63138200250E+02  0.74002008537E+02  0.00000000000E+00 0.  1.
         12    1    6    6    0    0  0.23698215249E+02  0.11741399366E+03 -0.71081240962E+02  0.13928457966E+03  0.00000000000E+00 0. -1.
         -5    1    3    3    0  503  0.87408919162E+02 -0.28257721304E+02 -0.34313775011E+03  0.35525261929E+03  0.47000000000E+01 0.  1.
         11    1    4    4    0    0  0.13316030604E+02 -0.10206960223E+03 -0.36673773447E+03  0.38090955128E+03  0.00000000000E+00 0. -1.
        -12    1    4    4    0    0 -0.32288239871E+02 -0.96860414065E+01 -0.69234001242E+02  0.77004524284E+02  0.00000000000E+00 0.  1.
</event>
<event>
12    1  0.8052519E-002  0.1835824E+03  0.7818608E-02  0.1164432E+00
         21   -1    0    0  501  502  0.00000000000E+00  0.00000000000E+00  0.54015419778E+03  0.54015419778E+03  0.00000000000E+00 0.  1.
         21   -1    0    0  502  503 -0.00000000000E+00 -0.00000000000E+00 -0.67232187367E+02  0.67232187367E+02  0.00000000000E+00 0.  1.
         -6    2    1    2    0  503 -0.11919818271E+02  0.61794960235E+02  0.15449861592E+03  0.23994231243E+03  0.17245808708E+03 0.  0.
        -24    2    3    3    0    0 -0.70176904223E+02  0.45712029518E+02  0.68714901198E+02  0.13490191813E+03  0.80389068536E+02 0.  0.
          6    2    1    2  501    0  0.11919818271E+02 -0.61794960235E+02  0.31842339449E+03  0.36744407271E+03  0.17222366049E+03 0.  0.
         24    2    5    5    0    0  0.60109838710E+02  0.23498380539E+01  0.14949412015E+03  0.18037183279E+03  0.81035743085E+02 0.  0.
          5    1    5    5  501    0 -0.48190020439E+02 -0.64144798289E+02  0.16892927434E+03  0.18707223992E+03  0.47000000000E+01 0. -1.
        -13    1    6    6    0    0  0.47489377068E+02 -0.26000194824E+02  0.13628488528E+03  0.14664522161E+03  0.00000000000E+00 0.  1.
         14    1    6    6    0    0  0.12620461643E+02  0.28350032878E+02  0.13209234874E+02  0.33726611188E+02  0.00000000000E+00 0. -1.
         -5    1    3    3    0  503  0.58257085952E+02  0.16082930717E+02  0.85783714721E+02  0.10504039430E+03  0.47000000000E+01 0.  1.
         11    1    4    4    0    0 -0.28344918783E+02 -0.20604477336E+02  0.85494748156E+01  0.36070381571E+02  0.00000000000E+00 0. -1.
        -12    1    4    4    0    0 -0.41831985440E+02  0.66316506854E+02  0.60165426383E+02  0.98831536561E+02  0.00000000000E+00 0.  1.
</event>
<event>
12    1  0.8052519E-002  0.1854503E+03  0.7818608E-02  0.1163703E+00
         21   -1    0    0  503  502  0.00000000000E+00  0.00000000000E+00  0.81836785720E+03  0.81836785720E+03  0.00000000000E+00 0.  1.
         21   -1    0    0  501  503 -0.00000000000E+00 -0.00000000000E+00 -0.41097182503E+02  0.41097182503E+02  0.00000000000E+00 0.  1.
          6    2    1    2  501    0 -0.41739195193E+02  0.55276762861E+02  0.37261993753E+03  0.41621800064E+03  0.17202943146E+03 0.  0.
         24    2    3    3    0    0 -0.62852621081E+02 -0.23366077241E+02  0.22835274190E+03  0.25049055335E+03  0.78128848970E+02 0.  0.
         -6    2    1    2    0  502  0.41739195193E+02 -0.55276762861E+02  0.40465073717E+03  0.44324703906E+03  0.16711683822E+03 0.  0.
        -24    2    5    5    0    0  0.75226330101E+01 -0.78894340299E+02  0.37608602647E+03  0.39258545806E+03  0.80010847023E+02 0.  0.
          5    1    3    3  501    0  0.21113425888E+02  0.78642840102E+02  0.14426719563E+03  0.16572744730E+03  0.47000000000E+01 0. -1.
        -13    1    4    4    0    0 -0.22206131154E+02 -0.26642224873E+01  0.55193835451E+01  0.23036361193E+02  0.00000000000E+00 0.  1.
         14    1    4    4    0    0 -0.40646489927E+02 -0.20701854754E+02  0.22283335835E+03  0.22745419215E+03  0.00000000000E+00 0. -1.
         -5    1    5    5    0  502  0.34216562183E+02  0.23617577438E+02  0.28564710702E+02  0.50661580997E+02  0.47000000000E+01 0.  1.
         11    1    6    6    0    0  0.63136625482E+01 -0.63902631349E+02  0.12036628970E+03  0.13642379677E+03  0.00000000000E+00 0. -1.
        -12    1    6    6    0    0  0.12089704619E+01 -0.14991708950E+02  0.25571973676E+03  0.25616166129E+03  0.00000000000E+00 0.  1.
</event>
<event>
12    1  0.8052519E-002  0.1926907E+03  0.7818608E-02  0.1156283E+00
         21   -1    0    0  503  502  0.00000000000E+00  0.00000000000E+00  0.24716436711E+03  0.24716436711E+03  0.00000000000E+00 0. -1.
         21   -1    0    0  501  503 -0.00000000000E+00 -0.00000000000E+00 -0.24796453416E+03  0.24796453416E+03  0.00000000000E+00 0. -1.
          6    2    1    2  501    0  0.18385092575E+01 -0.83102652724E+02 -0.15645779721E+03  0.24742139844E+03  0.17271037922E+03 0.  0.
         24    2    3    3    0    0 -0.74024611686E+01 -0.13192863685E+03 -0.12271890764E+03  0.18717378496E+03  0.50141139117E+02 0.  0.
         -6    2    1    2    0  502 -0.18385092575E+01  0.83102652724E+02  0.15565763016E+03  0.24770750283E+03  0.17383980593E+03 0.  0.
        -24    2    5    5    0    0 -0.40954325587E+02  0.10088423913E+03  0.63258913195E+02  0.14569846010E+03  0.73290276892E+02 0.  0.
          5    1    3    3  501    0  0.92409704261E+01  0.48825984126E+02 -0.33738889566E+02  0.60247613475E+02  0.47000000000E+01 0. -1.
        -13    1    4    4    0    0 -0.17617445556E+02 -0.10622493063E+03 -0.72396862585E+02  0.12975136218E+03  0.00000000000E+00 0.  1.
         14    1    4    4    0    0  0.10214984388E+02 -0.25703706217E+02 -0.50322045055E+02  0.57422422779E+02  0.00000000000E+00 0. -1.
         -5    1    5    5    0  502  0.39115816329E+02 -0.17781586408E+02  0.92398716967E+02  0.10200904273E+03  0.47000000000E+01 0.  1.
         11    1    6    6    0    0 -0.59763408318E+02  0.63574075453E+02  0.29910307181E+02  0.92238573922E+02  0.00000000000E+00 0. -1.
        -12    1    6    6    0    0  0.18809082731E+02  0.37310163678E+02  0.33348606013E+02  0.53459886176E+02  0.00000000000E+00 0.  1.
</event>
<event>
12    1  0.8052519E-002  0.1788625E+03  0.7818608E-02  0.1169259E+00
         21   -1    0    0  501  502  0.00000000000E+00  0.00000000000E+00  0.22002992204E+04  0.22002992204E+04  0.00000000000E+00 0. -1.
         21   -1    0    0  502  503 -0.00000000000E+00 -0.00000000000E+00 -0.28295325566E+02  0.28295325566E+02  0.00000000000E+00 0. -1.
         -6    2    1    2    0  503  0.24354160273E+02 -0.42109216877E+02  0.30802429285E+03  0.35618923243E+03  0.17212057705E+03 0.  0.
        -24    2    3    3    0    0  0.79357257130E+02 -0.22979347064E+02  0.15080176979E+03  0.18846235820E+03  0.77144423218E+02 0.  0.
          6    2    1    2  501    0 -0.24354160273E+02  0.42109216877E+02  0.18639796019E+04  0.18724053135E+04  0.17063232486E+03 0.  0.
         24    2    5    5    0    0 -0.48454661795E+02  0.64132498333E+01  0.69423340562E+03  0.70185702742E+03  0.90853076073E+02 0.  0.
          5    1    5    5  501    0  0.24100501521E+02  0.35695967043E+02  0.11697461963E+04  0.11705482861E+04  0.47000000000E+01 0. -1.
        -11    1    6    6    0    0  0.39641941692E+01 -0.20851617273E+02  0.43044590202E+02  0.47993140385E+02  0.00000000000E+00 0.  1.
         12    1    6    6    0    0 -0.52418855964E+02  0.27264867106E+02  0.65118881542E+03  0.65386388704E+03  0.00000000000E+00 0. -1.
         -5    1    3    3    0  503 -0.55003096857E+02 -0.19129869812E+02  0.15722252306E+03  0.16772687423E+03  0.47000000000E+01 0.  1.
         11    1    4    4    0    0 -0.11638021711E+02 -0.15581206901E+02  0.13872097093E+02  0.23888336811E+02  0.00000000000E+00 0. -1.
        -12    1    4    4    0    0  0.90995278841E+02 -0.73981401633E+01  0.13692967270E+03  0.16457402138E+03  0.00000000000E+00 0.  1.
</event>
<event>
12    1  0.8052519E-002  0.2166804E+03  0.7818608E-02  0.1138368E+00
         21   -1    0    0  503  502  0.00000000000E+00  0.00000000000E+00  0.70265715730E+03  0.70265715730E+03  0.00000000000E+00 0. -1.
         21   -1    0    0  501  503 -0.00000000000E+00 -0.00000000000E+00 -0.97670303326E+02  0.97670303326E+02  0.00000000000E+00 0.  1.
          6    2    1    2  501    0 -0.62468685055E+02  0.11022948949E+03  0.71342459924E+02  0.22812308232E+03  0.17577689591E+03 0.  0.
         24    2    3    3    0    0 -0.59464220940E+02  0.14431107409E+03  0.79515111465E+02  0.19263416227E+03  0.80147288452E+02 0.  0.
         -6    2    1    2    0  502  0.62468685055E+02 -0.11022948949E+03  0.53364439405E+03  0.57220437831E+03  0.16306021674E+03 0.  0.
        -24    2    5    5    0    0  0.46802898085E+02  0.38384179529E+01  0.21991522198E+03  0.23798141710E+03  0.77892267291E+02 0.  0.
          5    1    3    3  501    0 -0.30044641151E+01 -0.34081584598E+02 -0.81726515411E+01  0.35488920053E+02  0.47000000000E+01 0. -1.
        -13    1    4    4    0    0  0.10357253730E+02  0.56007764900E+02  0.40371490784E+01  0.57100271510E+02  0.00000000000E+00 0.  1.
         14    1    4    4    0    0 -0.69821474670E+02  0.88303309186E+02  0.75477962386E+02  0.13553389076E+03  0.00000000000E+00 0. -1.
         -5    1    5    5    0  502  0.15665786970E+02 -0.11406790744E+03  0.31372917207E+03  0.33422296121E+03  0.47000000000E+01 0.  1.
         13    1    6    6    0    0  0.32173972076E+02 -0.28258144809E+02  0.17857745817E+03  0.18363985350E+03  0.00000000000E+00 0. -1.
        -14    1    6    6    0    0  0.14628926009E+02  0.32096562762E+02  0.41337763806E+02  0.54341563593E+02  0.00000000000E+00 0.  1.
</event>
<event>
12    1  0.8052519E-002  0.2028374E+03  0.7818608E-02  0.1147557E+00
         21   -1    0    0  503  502  0.00000000000E+00  0.00000000000E+00  0.43926452119E+03  0.43926452119E+03  0.00000000000E+00 0. -1.
         21   -1    0    0  501  503 -0.00000000000E+00 -0.00000000000E+00 -0.28808661647E+03  0.28808661647E+03  0.00000000000E+00 0. -1.
          6    2    1    2  501    0 -0.30171364388E+02 -0.10042347756E+03 -0.22344319687E+03  0.30177784742E+03  0.17363127855E+03 0.  0.
         24    2    3    3    0    0  0.43426393844E+02 -0.37280039283E+02 -0.14922813604E+03  0.17957437337E+03  0.81867368201E+02 0.  0.
         -6    2    1    2    0  502  0.30171364388E+02  0.10042347756E+03  0.37462110158E+03  0.42557329025E+03  0.17255859742E+03 0.  0.
        -24    2    5    5    0    0  0.33820195382E+02  0.13093732453E+03  0.35331142563E+03  0.38788242778E+03  0.85647099915E+02 0.  0.
          5    1    3    3  501    0 -0.73597758232E+02 -0.63143438278E+02 -0.74215060828E+02  0.12220347404E+03  0.47000000000E+01 0. -1.
        -11    1    4    4    0    0 -0.20288927550E+02 -0.26238952868E+02 -0.34370525755E+02  0.47764592214E+02  0.00000000000E+00 0.  1.
         12    1    4    4    0    0  0.63715321394E+02 -0.11041086415E+02 -0.11485761028E+03  0.13180978116E+03  0.00000000000E+00 0. -1.
         -5    1    5    5    0  502 -0.36488309939E+01 -0.30513846970E+02  0.21309675952E+02  0.37690862470E+02  0.47000000000E+01 0.  1.
         13    1    6    6    0    0  0.56375178757E+02  0.11993906571E+03  0.26832642136E+03  0.29927012658E+03  0.00000000000E+00 0. -1.
        -14    1    6    6    0    0 -0.22554983375E+02  0.10998258824E+02  0.84985004277E+02  0.88612301201E+02  0.00000000000E+00 0.  1.
</event>
<event>
12    1  0.8052519E-002  0.1795390E+03  0.7818608E-02  0.1168368E+00
         21   -1    0    0  503  502  0.00000000000E+00  0.00000000000E+00  0.39309458288E+03  0.39309458288E+03  0.00000000000E+00 0. -1.
         21   -1    0    0  501  503 -0.00000000000E+00 -0.00000000000E+00 -0.91772831714E+02  0.91772831714E+02  0.00000000000E+00 0. -1.
          6    2    1    2  501    0 -0.49296464935E+02 -0.93990485482E+01  0.23084114610E+03  0.29244124184E+03  0.17238260245E+03 0.  0.
         24    2    3    3    0    0  0.20670014185E+02 -0.15472996225E+02  0.57275440449E+02  0.10514643353E+03  0.84312711423E+02 0.  0.
         -6    2    1    2    0  502  0.49296464935E+02  0.93990485482E+01  0.70480605069E+02  0.19242617276E+03  0.17187737693E+03 0.  0.
        -24    2    5    5    0    0  0.59090422644E+02 -0.39909711067E+02  0.14068321159E+01  0.10686595132E+03  0.79585735462E+02 0.  0.
          5    1    3    3  501    0 -0.69966479120E+02  0.60739476764E+01  0.17356570565E+03  0.18729480830E+03  0.47000000000E+01 0. -1.
        -13    1    4    4    0    0 -0.11227327725E+02 -0.36582517823E+02  0.54771033772E+02  0.66814666344E+02  0.00000000000E+00 0.  1.
         14    1    4    4    0    0  0.31897341910E+02  0.21109521599E+02  0.25044066768E+01  0.38331767189E+02  0.00000000000E+00 0. -1.
         -5    1    5    5    0  502 -0.97939577084E+01  0.49308759615E+02  0.69073772953E+02  0.85560221437E+02  0.47000000000E+01 0.  1.
         13    1    6    6    0    0  0.74395961670E+02 -0.29411726021E+02 -0.15814718740E+02  0.81547005274E+02  0.00000000000E+00 0. -1.
        -14    1    6    6    0    0 -0.15305539026E+02 -0.10497985046E+02  0.17221550856E+02  0.25318946044E+02  0.00000000000E+00 0.  1.
</event>
<event>
12    1  0.8052519E-002  0.2147440E+03  0.7818608E-02  0.1139379E+00
         21   -1    0    0  503  502  0.00000000000E+00  0.00000000000E+00  0.51161136767E+03  0.51161136767E+03  0.00000000000E+00 0. -1.
         21   -1    0    0  501  503 -0.00000000000E+00 -0.00000000000E+00 -0.11927245722E+03  0.11927245722E+03  0.00000000000E+00 0.  1.
          6    2    1    2  501    0 -0.84479573700E+02  0.79010003616E+02  0.29286322445E+02  0.20907560234E+03  0.17168441911E+03 0.  0.
         24    2    3    3    0    0 -0.10289427194E+03  0.83412397368E+02  0.64672888388E+02  0.16866791456E+03  0.81984289220E+02 0.  0.
         -6    2    1    2    0  502  0.84479573700E+02 -0.79010003616E+02  0.36305258800E+03  0.42180822256E+03  0.18092986463E+03 0.  0.
        -24    2    5    5    0    0  0.78717397286E+02 -0.31002509286E+02  0.35258631330E+03  0.37211360419E+03  0.83629192733E+02 0.  0.
          5    1    3    3  501    0  0.18414698237E+02 -0.44023937518E+01 -0.35386565943E+02  0.40407687773E+02  0.47000000000E+01 0. -1.
        -13    1    4    4    0    0 -0.80237249908E+02  0.40319322983E+02  0.26741249479E+01  0.89837714925E+02  0.00000000000E+00 0.  1.
         14    1    4    4    0    0 -0.22657022029E+02  0.43093074385E+02  0.61998763440E+02  0.78830199640E+02  0.00000000000E+00 0. -1.
         -5    1    5    5    0  502  0.57621764146E+01 -0.48007494330E+02  0.10466274705E+02  0.49694618371E+02  0.47000000000E+01 0.  1.
         11    1    6    6    0    0  0.12760788814E+02 -0.36955976914E+02  0.22492096634E+03  0.22829372103E+03  0.00000000000E+00 0. -1.
        -12    1    6    6    0    0  0.65956608472E+02  0.59534676278E+01  0.12766534696E+03  0.14381988316E+03  0.00000000000E+00 0.  1.
</event>
<event>
12    1  0.8052519E-002  0.2011157E+03  0.7818608E-02  0.1149851E+00
         21   -1    0    0  503  502  0.00000000000E+00  0.00000000000E+00  0.12650174450E+03  0.12650174450E+03  0.00000000000E+00 0. -1.
         21   -1    0    0  501  503 -0.00000000000E+00 -0.00000000000E+00 -0.46048177334E+03  0.46048177334E+03  0.00000000000E+00 0. -1.
          6    2    1    2  501    0  0.61941447603E+02 -0.79381066041E+02 -0.33227411411E+03  0.38586058543E+03  0.16835738148E+03 0.  0.
         24    2    3    3    0    0  0.14721539937E+02 -0.53689378717E+02 -0.74653610352E+02  0.12264927025E+03  0.79814840911E+02 0.  0.
         -6    2    1    2    0  502 -0.61941447603E+02  0.79381066041E+02 -0.17059147258E+01  0.20112293242E+03  0.17409602874E+03 0.  0.
        -24    2    5    5    0    0  0.11973514808E+01  0.91959395149E+02  0.31693434923E+02  0.12844330068E+03  0.83876359395E+02 0.  0.
          5    1    3    3  501    0  0.47219907665E+02 -0.25691687324E+02 -0.25762050376E+03  0.26321131517E+03  0.47000000000E+01 0. -1.
        -11    1    4    4    0    0 -0.30990815076E+02 -0.13366181400E+02 -0.40706894634E+02  0.52878508820E+02  0.00000000000E+00 0.  1.
         12    1    4    4    0    0  0.45712355014E+02 -0.40323197317E+02 -0.33946715718E+02  0.69770761432E+02  0.00000000000E+00 0. -1.
         -5    1    5    5    0  502 -0.63138799083E+02 -0.12578329107E+02 -0.33399349649E+02  0.72679631739E+02  0.47000000000E+01 0. -1.
         13    1    6    6    0    0  0.33866318073E+02  0.53826979069E+02  0.43262270735E+02  0.76914857113E+02  0.00000000000E+00 0. -1.
        -14    1    6    6    0    0 -0.32668966592E+02  0.38132416080E+02 -0.11568835812E+02  0.51528443566E+02  0.00000000000E+00 0.  1.
</event>
<event>
12    1  0.8052519E-002  0.2110060E+03  0.7818608E-02  0.1140906E+00
         21   -1    0    0  503  502  0.00000000000E+00  0.00000000000E+00  0.21499605682E+04  0.21499605682E+04  0.00000000000E+00 0. -1.
         21   -1    0    0  501  503 -0.00000000000E+00 -0.00000000000E+00 -0.27757213420E+02  0.27757213420E+02  0.00000000000E+00 0. -1.
          6    2    1    2  501    0  0.59465101171E+02 -0.10610531637E+03  0.50854942268E+03  0.55032644618E+03  0.17158742854E+03 0.  0.
         24    2    3    3    0    0  0.18924987720E+02 -0.57995726608E+02  0.46031618262E+03  0.47091253762E+03  0.78396241244E+02 0.  0.
         -6    2    1    2    0  502 -0.59465101171E+02  0.10610531637E+03  0.16136539322E+04  0.16273913355E+04  0.17242131444E+03 0.  0.
        -24    2    5    5    0    0 -0.48380155018E+02  0.93386748488E+02  0.63519223297E+03  0.64877290896E+03  0.79846041684E+02 0.  0.
          5    1    3    3  501    0  0.40540113451E+02 -0.48109589762E+02  0.48233240061E+02  0.79413908558E+02  0.47000000000E+01 0. -1.
        -11    1    4    4    0    0 -0.22555767099E+02 -0.10959813151E+02  0.51134295274E+02  0.56952579282E+02  0.00000000000E+00 0.  1.
         12    1    4    4    0    0  0.41480754820E+02 -0.47035913457E+02  0.40918188734E+03  0.41395995834E+03  0.00000000000E+00 0. -1.
         -5    1    5    5    0  502 -0.11084946153E+02  0.12718567882E+02  0.97846169918E+03  0.97861842654E+03  0.47000000000E+01 0.  1.
         11    1    6    6    0    0 -0.48298793551E+02  0.24423693698E+02  0.40105934951E+03  0.40469481353E+03  0.00000000000E+00 0. -1.
        -12    1    6    6    0    0 -0.81361467200E-01  0.68963054790E+02  0.23413288347E+03  0.24407809543E+03  0.00000000000E+00 0.  1.
</event>
<event>
12    1  0.8052519E-002  0.2390054E+03  0.7818608E-02  0.1120597E+00
         21   -1    0    0  501  502  0.00000000000E+00  0.00000000000E+00  0.13238212992E+04  0.13238212992E+04  0.00000000000E+00 0.  1.
         21   -1    0    0  502  503 -0.00000000000E+00 -0.00000000000E+00 -0.12700297897E+03  0.12700297897E+03  0.00000000000E+00 0.  1.
         -6    2    1    2    0  503  0.12354074330E+03 -0.10926049146E+03  0.80895505630E+01  0.23830636454E+03  0.17182640164E+03 0.  0.
        -24    2    3    3    0    0  0.85184563014E+01 -0.53426572722E+02  0.46367071639E+01  0.11031587616E+03  0.96026718721E+02 0.  0.
          6    2    1    2  501    0 -0.12354074330E+03  0.10926049146E+03  0.11887287696E+04  0.12125179136E+04  0.17298390907E+03 0.  0.
         24    2    5    5    0    0 -0.85652819573E+02  0.65000849271E+01  0.80553100256E+03  0.81394820250E+03  0.79074797911E+02 0.  0.
          5    1    5    5  501    0 -0.37887923730E+02  0.10276040653E+03  0.38319776709E+03  0.39856971111E+03  0.47000000000E+01 0. -1.
        -11    1    6    6    0    0 -0.34867131389E+02  0.31220238262E+02  0.18410971844E+03  0.18996528249E+03  0.00000000000E+00 0.  1.
         12    1    6    6    0    0 -0.50785688184E+02 -0.24720153335E+02  0.62142128412E+03  0.62398292001E+03  0.00000000000E+00 0. -1.
         -5    1    3    3    0  503  0.11502228700E+03 -0.55833918736E+02  0.34528433991E+01  0.12799048838E+03  0.47000000000E+01 0.  1.
         11    1    4    4    0    0  0.46710977092E+02 -0.50379998909E+02  0.15625774074E+02  0.70457252901E+02  0.00000000000E+00 0. -1.
        -12    1    4    4    0    0 -0.38192520790E+02 -0.30465738135E+01 -0.10989066910E+02  0.39858623256E+02  0.00000000000E+00 0.  1.
</event>
<event>
12    1  0.8052519E-002  0.1819892E+03  0.7818608E-02  0.1166373E+00
         21   -1    0    0  503  502  0.00000000000E+00  0.00000000000E+00  0.31867801558E+03  0.31867801558E+03  0.00000000000E+00 0.  1.
         21   -1    0    0  501  503 -0.00000000000E+00 -0.00000000000E+00 -0.13117759896E+03  0.13117759896E+03  0.00000000000E+00 0.  1.
          6    2    1    2  501    0  0.39758884084E+02 -0.21445873323E+02 -0.10483034668E+02  0.18229091267E+03  0.17629347260E+03 0.  0.
         24    2    3    3    0    0  0.22246290095E+02 -0.13070777213E+02 -0.75899190207E+02  0.11389356924E+03  0.80903123554E+02 0.  0.
         -6    2    1    2    0  502 -0.39758884084E+02  0.21445873323E+02  0.19798345129E+03  0.26756470186E+03  0.17422034425E+03 0.  0.
        -24    2    5    5    0    0 -0.21708619980E+02  0.78804997252E+02  0.15837743493E+03  0.19540787499E+03  0.80120745994E+02 0.  0.
          5    1    3    3  501    0  0.17512593989E+02 -0.83750961098E+01  0.65416155539E+02  0.68397343432E+02  0.47000000000E+01 0. -1.
        -11    1    4    4    0    0  0.90728498777E+01 -0.47324392782E+02 -0.44635879117E+02  0.65683152038E+02  0.00000000000E+00 0.  1.
         12    1    4    4    0    0  0.13173440217E+02  0.34253615569E+02 -0.31263311089E+02  0.48210417204E+02  0.00000000000E+00 0. -1.
         -5    1    5    5    0  502 -0.18050264104E+02 -0.57359123930E+02  0.39606016361E+02  0.72156826872E+02  0.47000000000E+01 0.  1.
         11    1    6    6    0    0  0.23152015398E+02 -0.23284094625E+00  0.39278228043E+02  0.45594399109E+02  0.00000000000E+00 0. -1.
        -12    1    6    6    0    0 -0.44860635378E+02  0.79037838199E+02  0.11909920689E+03  0.14981347588E+03  0.00000000000E+00 0.  1.
</event>
<event>
12    1  0.8052519E-002  0.2210070E+03  0.7818608E-02  0.1133151E+00
         21   -1    0    0  501  502  0.00000000000E+00  0.00000000000E+00  0.35818790057E+03  0.35818790057E+03  0.00000000000E+00 0.  1.
         21   -1    0    0  502  503 -0.00000000000E+00 -0.00000000000E+00 -0.18977866858E+03  0.18977866858E+03  0.00000000000E+00 0.  1.
         -6    2    1    2    0  503 -0.27265575731E+02 -0.13681315019E+03 -0.61213102719E+02  0.22932758560E+03  0.17141425812E+03 0.  0.
        -24    2    3    3    0    0  0.42338317944E+02 -0.11775530857E+03 -0.41887200597E+02  0.15447116413E+03  0.80299172558E+02 0.  0.
          6    2    1    2  501    0  0.27265575731E+02  0.13681315019E+03  0.22962233471E+03  0.31863898355E+03  0.17129838164E+03 0.  0.
         24    2    5    5    0    0  0.71475082627E+02  0.14213760016E+03  0.18508408687E+03  0.25548381125E+03  0.75525318814E+02 0.  0.
          5    1    5    5  501    0 -0.44209506896E+02 -0.53244499666E+01  0.44538247838E+02  0.63155172297E+02  0.47000000000E+01 0. -1.
        -11    1    6    6    0    0  0.40080940293E+01  0.91912921913E+02  0.97547819127E+02  0.13408813165E+03  0.00000000000E+00 0.  1.
         12    1    6    6    0    0  0.67466988597E+02  0.50224678247E+02  0.87536267744E+02  0.12139567960E+03  0.00000000000E+00 0. -1.
         -5    1    3    3    0  503 -0.69603893675E+02 -0.19057841628E+02 -0.19325902122E+02  0.74856421469E+02  0.47000000000E+01 0.  1.
         11    1    4    4    0    0 -0.15305461488E+02 -0.12534326722E+02  0.11795522474E+02  0.23032604025E+02  0.00000000000E+00 0. -1.
        -12    1    4    4    0    0  0.57643779433E+02 -0.10522098184E+03 -0.53682723071E+02  0.13143856011E+03  0.00000000000E+00 0.  1.
</event>
<event>
12    1  0.8052519E-002  0.2022026E+03  0.7818608E-02  0.1147941E+00
         21   -1    0    0  503  502  0.00000000000E+00  0.00000000000E+00  0.40455298889E+03  0.40455298889E+03  0.00000000000E+00 0. -1.
         21   -1    0    0  501  503 -0.00000000000E+00 -0.00000000000E+00 -0.19282655531E+03  0.19282655531E+03  0.00000000000E+00 0. -1.
          6    2    1    2  501    0 -0.96371846050E+02  0.42174903301E+02 -0.10034254700E+03  0.22552884642E+03  0.17241919455E+03 0.  0.
         24    2    3    3    0    0  0.14131140928E+02 -0.73043525378E+01 -0.51488504334E+02  0.94884618175E+02  0.78095979267E+02 0.  0.
         -6    2    1    2    0  502  0.96371846050E+02 -0.42174903301E+02  0.31206898058E+03  0.37185069778E+03  0.17268363450E+03 0.  0.
        -24    2    5    5    0    0  0.85043553380E+02  0.92995181585E+01  0.10393717728E+03  0.15709762138E+03  0.80980484154E+02 0.  0.
          5    1    3    3  501    0 -0.11050298698E+03  0.49479255839E+02 -0.48854042664E+02  0.13064422825E+03  0.47000000000E+01 0. -1.
        -13    1    4    4    0    0 -0.27250635674E+02 -0.15556042950E+02 -0.44482994833E+01  0.31691875697E+02  0.00000000000E+00 0.  1.
         14    1    4    4    0    0  0.41381776602E+02  0.82516904125E+01 -0.47040204851E+02  0.63192742477E+02  0.00000000000E+00 0. -1.
         -5    1    5    5    0  502  0.11328292670E+02 -0.51474421459E+02  0.20813180330E+03  0.21475307640E+03  0.47000000000E+01 0.  1.
         11    1    6    6    0    0  0.19118728020E+02  0.18267202879E+02  0.83364238381E+02  0.87457490834E+02  0.00000000000E+00 0. -1.
        -12    1    6    6    0    0  0.65924825360E+02 -0.89676847210E+01  0.20572938901E+02  0.69640130550E+02  0.00000000000E+00 0.  1.
</event>
<event>
12    1  0.8052519E-002  0.1835007E+03  0.7818608E-02  0.1165461E+00
         21   -1    0    0  501  502  0.00000000000E+00  0.00000000000E+00  0.37073369924E+02  0.37073369924E+02  0.00000000000E+00 0.  1.
         21   -1    0    0  502  503 -0.00000000000E+00 -0.00000000000E+00 -0.10603062372E+04  0.10603062372E+04  0.00000000000E+00 0.  1.
         -6    2    1    2    0  503  0.12827781858E+02 -0.29053808077E+02 -0.29514268398E+03  0.34753662404E+03  0.18073136249E+03 0.  0.
        -24    2    3    3    0    0  0.39211482893E+02 -0.48530050006E+02 -0.29776244970E+03  0.31430445811E+03  0.78943712817E+02 0.  0.
          6    2    1    2  501    0 -0.12827781858E+02  0.29053808077E+02 -0.72809018328E+03  0.74984298307E+03  0.17646673489E+03 0.  0.
         24    2    5    5    0    0 -0.51886808412E+02  0.67331647578E+02 -0.58875674347E+03  0.60008752240E+03  0.79023666742E+02 0.  0.
          5    1    5    5  501    0  0.39059026554E+02 -0.38277839501E+02 -0.13933343981E+03  0.14975546068E+03  0.47000000000E+01 0. -1.
        -13    1    6    6    0    0 -0.23854856958E+02  0.16496667136E+02 -0.43123677805E+03  0.43221100515E+03  0.00000000000E+00 0.  1.
         14    1    6    6    0    0 -0.28031951454E+02  0.50834980442E+02 -0.15751996541E+03  0.16787651725E+03  0.00000000000E+00 0. -1.
         -5    1    3    3    0  503 -0.26383701035E+02  0.19476241929E+02  0.26197657128E+01  0.33232165930E+02  0.47000000000E+01 0.  1.
         13    1    4    4    0    0  0.17486532618E+02 -0.62207421529E+02 -0.13663254115E+03  0.15114229526E+03  0.00000000000E+00 0. -1.
        -14    1    4    4    0    0  0.21724950276E+02  0.13677371523E+02 -0.16112990855E+03  0.16316216285E+03  0.00000000000E+00 0.  1.
</event>
<event>
12    1  0.8052519E-002  0.4766624E+03  0.7818608E-02  0.1020114E+00
         21   -1    0    0  503  502  0.00000000000E+00  0.00000000000E+00  0.15590272034E+04  0.15590272034E+04  0.00000000000E+00 0.  1.
         21   -1    0    0  501  503 -0.00000000000E+00 -0.00000000000E+00 -0.66519597897E+03  0.66519597897E+03  0.00000000000E+00 0. -1.
          6    2    1    2  501    0 -0.44102754584E+03 -0.51200408579E+02 -0.53600252912E+03  0.71729053988E+03  0.17343652830E+03 0.  0.
         24    2    3    3    0    0 -0.27873807141E+03  0.94251125365E+00 -0.24486639649E+03  0.37989004295E+03  0.81615512170E+02 0.  0.
         -6    2    1    2    0  502  0.44102754584E+03  0.51200408579E+02  0.14298337536E+04  0.15069326425E+04  0.17115679417E+03 0.  0.
        -24    2    5    5    0    0  0.18463477178E+03 -0.17228158533E+02  0.47963402067E+03  0.52036214539E+03  0.79631401936E+02 0.  0.
          5    1    3    3  501    0 -0.16228947443E+03 -0.52142919832E+02 -0.29113613263E+03  0.33740049692E+03  0.47000000000E+01 0. -1.
        -11    1    4    4    0    0 -0.15015274538E+02  0.13570137117E+02 -0.66994507484E+00  0.20249837461E+02  0.00000000000E+00 0.  1.
         12    1    4    4    0    0 -0.26372279687E+03 -0.12627625863E+02 -0.24419645141E+03  0.35964020549E+03  0.00000000000E+00 0. -1.
         -5    1    5    5    0  502  0.25639277405E+03  0.68428567112E+02  0.95019973292E+03  0.98657049714E+03  0.47000000000E+01 0.  1.
         13    1    6    6    0    0  0.11580605761E+03  0.25406323599E+02  0.32237047863E+03  0.34348107626E+03  0.00000000000E+00 0. -1.
        -14    1    6    6    0    0  0.68828714174E+02 -0.42634482132E+02  0.15726354205E+03  0.17688106914E+03  0.00000000000E+00 0.  1.
</event>
<event>
12    1  0.8052519E-002  0.1947998E+03  0.7818608E-02  0.1156166E+00
         21   -1    0    0  503  502  0.00000000000E+00  0.00000000000E+00  0.17874264501E+04  0.17874264501E+04  0.00000000000E+00 0.  1.
         21   -1    0    0  501  503 -0.00000000000E+00 -0.00000000000E+00 -0.75085556334E+02  0.75085556334E+02  0.00000000000E+00 0.  1.
          6    2    1    2  501    0 -0.72159772499E+02 -0.13590421246E+02  0.65973140848E+02  0.20566826832E+03  0.18043073176E+03 0.  0.
         24    2    3    3    0    0 -0.63393200294E+02 -0.51146837112E+02 -0.15675366026E+02  0.11524755258E+03  0.80009902421E+02 0.  0.
         -6    2    1    2    0  502  0.72159772499E+02  0.13590421246E+02  0.16463677529E+04  0.16568437381E+04  0.17091712130E+03 0.  0.
        -24    2    5    5    0    0  0.11061969348E+03 -0.25288616974E+01  0.14167572842E+04  0.14234298265E+04  0.81903338244E+02 0.  0.
          5    1    3    3  501    0 -0.87665722052E+01  0.37556415865E+02  0.81648506874E+02  0.90420715744E+02  0.47000000000E+01 0. -1.
        -11    1    4    4    0    0 -0.19871258520E+02  0.16695832450E+02 -0.22509863111E+02  0.34355664361E+02  0.00000000000E+00 0.  1.
         12    1    4    4    0    0 -0.43521941774E+02 -0.67842669562E+02  0.68344970853E+01  0.80891888218E+02  0.00000000000E+00 0. -1.
         -5    1    5    5    0  502 -0.38459920977E+02  0.16119282944E+02  0.22961046869E+03  0.23341391162E+03  0.47000000000E+01 0.  1.
         11    1    6    6    0    0  0.36439435670E+02 -0.12096714856E+02  0.16370301702E+03  0.16814529658E+03  0.00000000000E+00 0. -1.
        -12    1    6    6    0    0  0.74180257805E+02  0.95678531582E+01  0.12530542672E+04  0.12552845299E+04  0.00000000000E+00 0.  1.
</event>
<event>
12    1  0.8052519E-002  0.2048684E+03  0.7818608E-02  0.1145739E+00
         21   -1    0    0  503  502  0.00000000000E+00  0.00000000000E+00  0.24453544268E+03  0.24453544268E+03  0.00000000000E+00 0. -1.
         21   -1    0    0  501  503 -0.00000000000E+00 -0.00000000000E+00 -0.52467243170E+03  0.52467243170E+03  0.00000000000E+00 0.  1.
          6    2    1    2  501    0  0.96730913646E+02 -0.55213162444E+02 -0.45560943992E+03  0.49946424175E+03  0.17169509046E+03 0.  0.
         24    2    3    3    0    0  0.12895565718E+03 -0.57760546195E+02 -0.42576106234E+03  0.45521563834E+03  0.77349550556E+02 0.  0.
         -6    2    1    2    0  502 -0.96730913646E+02  0.55213162444E+02  0.17547245089E+03  0.26974363263E+03  0.17194674571E+03 0.  0.
        -24    2    5    5    0    0 -0.44432111563E+02  0.95402031791E+02  0.14635416941E+03  0.19749216735E+03  0.80671265339E+02 0.  0.
          5    1    3    3  501    0 -0.32224743534E+02  0.25473837509E+01 -0.29848377578E+02  0.44248603411E+02  0.47000000000E+01 0. -1.
        -11    1    4    4    0    0  0.28729051317E+02 -0.53295877522E+02 -0.14900486734E+03  0.16083612605E+03  0.00000000000E+00 0.  1.
         12    1    4    4    0    0  0.10022660586E+03 -0.44646686729E+01 -0.27675619500E+03  0.29437951230E+03  0.00000000000E+00 0. -1.
         -5    1    5    5    0  502 -0.52298802082E+02 -0.40188869348E+02  0.29118281478E+02  0.72251465279E+02  0.47000000000E+01 0.  1.
         13    1    6    6    0    0 -0.25690778977E+02  0.85688842979E+02  0.57913311767E+02  0.10656709443E+03  0.00000000000E+00 0. -1.
        -14    1    6    6    0    0 -0.18741332586E+02  0.97131888122E+01  0.88440857644E+02  0.90925072917E+02  0.00000000000E+00 0.  1.
</event>
<event>
12    1  0.8052519E-002  0.1983299E+03  0.7818608E-02  0.1151538E+00
         21   -1    0    0  501  502  0.00000000000E+00  0.00000000000E+00  0.25135338834E+02  0.25135338834E+02  0.00000000000E+00 0. -1.
         21   -1    0    0  502  503 -0.00000000000E+00 -0.00000000000E+00 -0.16113625189E+04  0.16113625189E+04  0.00000000000E+00 0. -1.
         -6    2    1    2    0  503  0.78607750637E+02 -0.59261818822E+02 -0.63803925852E+03  0.66815331706E+03  0.17217322110E+03 0.  0.
        -24    2    3    3    0    0  0.59117198377E+02  0.68666184238E+01 -0.17179377003E+03  0.19681501248E+03  0.75372781039E+02 0.  0.
          6    2    1    2  501    0 -0.78607750637E+02  0.59261818822E+02 -0.94818792151E+03  0.96834454063E+03  0.17011664599E+03 0.  0.
         24    2    5    5    0    0  0.20067825612E+01  0.75915164179E+02 -0.63054882991E+03  0.64017885171E+03  0.80436284990E+02 0.  0.
          5    1    5    5  501    0 -0.80614533199E+02 -0.16653345357E+02 -0.31763909159E+03  0.32816568891E+03  0.47000000000E+01 0. -1.
        -11    1    6    6    0    0  0.22371584677E+02  0.49685282278E+02 -0.17190113014E+03  0.18033056762E+03  0.00000000000E+00 0.  1.
         12    1    6    6    0    0 -0.20364802115E+02  0.26229881901E+02 -0.45864769978E+03  0.45984828409E+03  0.00000000000E+00 0. -1.
         -5    1    3    3    0  503  0.19490552261E+02 -0.66128437245E+02 -0.46624548848E+03  0.47133830459E+03  0.47000000000E+01 0.  1.
         11    1    4    4    0    0  0.32441624037E+02 -0.31280980256E+02 -0.11414324498E+03  0.12271772109E+03  0.00000000000E+00 0. -1.
        -12    1    4    4    0    0  0.26675574340E+02  0.38147598680E+02 -0.57650525058E+02  0.74097291387E+02  0.00000000000E+00 0.  1.
</event>
<event>
12    1  0.8052519E-002  0.2647572E+03  0.7818608E-02  0.1104574E+00
         21   -1    0    0  501  502  0.00000000000E+00  0.00000000000E+00  0.19461429797E+03  0.19461429797E+03  0.00000000000E+00 0.  1.
         21   -1    0    0  502  503 -0.00000000000E+00 -0.00000000000E+00 -0.13413378522E+04  0.13413378522E+04  0.00000000000E+00 0.  1.
         -6    2    1    2    0  503  0.12082168096E+03  0.15924100545E+03 -0.12304692775E+04  0.12582657875E+04  0.17094611082E+03 0.  0.
        -24    2    3    3    0    0  0.62011404599E+02  0.54623144202E+02 -0.88692798839E+03  0.89433412799E+03  0.79769503634E+02 0.  0.
          6    2    1    2  501    0 -0.12082168096E+03 -0.15924100545E+03  0.83745723230E+02  0.27768636268E+03  0.17361104070E+03 0.  0.
         24    2    5    5    0    0 -0.11018888229E+03 -0.16480808115E+03  0.12060492166E+03  0.23863845302E+03  0.55672890542E+02 0.  0.
          5    1    5    5  501    0 -0.10632798677E+02  0.55670756997E+01 -0.36859198433E+02  0.39047909658E+02  0.47000000000E+01 0. -1.
        -13    1    6    6    0    0 -0.23384956332E+02 -0.84164648160E+02  0.47840060432E+02  0.99595258746E+02  0.00000000000E+00 0.  1.
         14    1    6    6    0    0 -0.86803925954E+02 -0.80643432988E+02  0.72764861231E+02  0.13904319428E+03  0.00000000000E+00 0. -1.
         -5    1    3    3    0  503  0.58810276364E+02  0.10461786125E+03 -0.34354128908E+03  0.36393165952E+03  0.47000000000E+01 0.  1.
         13    1    4    4    0    0 -0.17708351707E+02  0.17947264524E+02 -0.27379778664E+03  0.27495621104E+03  0.00000000000E+00 0. -1.
        -14    1    4    4    0    0  0.79719756307E+02  0.36675879678E+02 -0.61313020176E+03  0.61937791695E+03  0.00000000000E+00 0.  1.
</event>
<event>
12    1  0.8052519E-002  0.1784197E+03  0.7818608E-02  0.1169561E+00
         21   -1    0    0  503  502  0.00000000000E+00  0.00000000000E+00  0.21273343959E+03  0.21273343959E+03  0.00000000000E+00 0.  1.
         21   -1    0    0  501  503 -0.00000000000E+00 -0.00000000000E+00 -0.87346060211E+03  0.87346060211E+03  0.00000000000E+00 0.  1.
          6    2    1    2  501    0 -0.40133156182E+02 -0.26201381285E+02 -0.82486932777E+03  0.84375592857E+03  0.17093120399E+03 0.  0.
         24    2    3    3    0    0 -0.29559641535E+02  0.38201588503E+02 -0.30195443922E+03  0.31676293773E+03  0.82638620406E+02 0.  0.
         -6    2    1    2    0  502  0.40133156182E+02  0.26201381285E+02  0.16414216526E+03  0.24243811313E+03  0.17186158872E+03 0.  0.
        -24    2    5    5    0    0  0.14403353763E+02 -0.16417532854E+02  0.12890396702E+02  0.83134685467E+02  0.79172101247E+02 0.  0.
          5    1    3    3  501    0 -0.10573514646E+02 -0.64402969787E+02 -0.52291488855E+03  0.52699299084E+03  0.47000000000E+01 0. -1.
        -11    1    4    4    0    0 -0.11980697169E+01  0.14574456499E+02 -0.26184298463E+03  0.26225102241E+03  0.00000000000E+00 0.  1.
         12    1    4    4    0    0 -0.28361571818E+02  0.23627132003E+02 -0.40111454584E+02  0.54511915317E+02  0.00000000000E+00 0. -1.
         -5    1    5    5    0  502  0.25729802419E+02  0.42618914139E+02  0.15125176855E+03  0.15930342766E+03  0.47000000000E+01 0.  1.
         13    1    6    6    0    0  0.46242467683E+02  0.75601944015E-01  0.61580797563E+01  0.46650760758E+02  0.00000000000E+00 0. -1.
        -14    1    6    6    0    0 -0.31839113920E+02 -0.16493134798E+02  0.67323169457E+01  0.36483924709E+02  0.00000000000E+00 0.  1.
</event>
<event>
12    1  0.8052519E-002  0.1911360E+03  0.7818608E-02  0.1157456E+00
         21   -1    0    0  501  502  0.00000000000E+00  0.00000000000E+00  0.68085133082E+03  0.68085133082E+03  0.00000000000E+00 0.  1.
         21   -1    0    0  502  503 -0.00000000000E+00 -0.00000000000E+00 -0.14999088364E+03  0.14999088364E+03  0.00000000000E+00 0.  1.
         -6    2    1    2    0  503  0.82613359659E+02  0.13623838607E+02 -0.67509344086E+02  0.20270787261E+03  0.17182081919E+03 0.  0.
        -24    2    3    3    0    0  0.56365747704E+02  0.69873170489E+01  0.29933612411E+02  0.10146459963E+03  0.78569228792E+02 0.  0.
          6    2    1    2  501    0 -0.82613359659E+02 -0.13623838607E+02  0.59836979127E+03  0.62813434185E+03  0.17174332048E+03 0.  0.
         24    2    5    5    0    0 -0.30771719309E+02 -0.11662928070E+02  0.56091776326E+03  0.56397715015E+03  0.48565071307E+02 0.  0.
          5    1    5    5  501    0 -0.51841640350E+02 -0.19609105368E+01  0.37452028010E+02  0.64157191697E+02  0.47000000000E+01 0. -1.
        -13    1    6    6    0    0 -0.28685859593E+02 -0.24457370847E+02  0.25363341594E+03  0.25641948290E+03  0.00000000000E+00 0.  1.
         14    1    6    6    0    0 -0.20858597157E+01  0.12794442777E+02  0.30728434732E+03  0.30755766725E+03  0.00000000000E+00 0. -1.
         -5    1    3    3    0  503  0.26247611955E+02  0.66365215579E+01 -0.97442956497E+02  0.10124327297E+03  0.47000000000E+01 0.  1.
         11    1    4    4    0    0 -0.16527780801E+02  0.16140801747E+02  0.11060945048E+02  0.25613229484E+02  0.00000000000E+00 0. -1.
        -12    1    4    4    0    0  0.72893528505E+02 -0.91534846984E+01  0.18872667364E+02  0.75851370149E+02  0.00000000000E+00 0.  1.
</event>
<event>
12    1  0.8052519E-002  0.2067751E+03  0.7818608E-02  0.1144270E+00
         21   -1    0    0  503  502  0.00000000000E+00  0.00000000000E+00  0.71510482475E+03  0.71510482475E+03  0.00000000000E+00 0. -1.
         21   -1    0    0  501  503 -0.00000000000E+00 -0.00000000000E+00 -0.64854678646E+02  0.64854678646E+02  0.00000000000E+00 0. -1.
          6    2    1    2  501    0  0.24603947706E+02  0.11111081723E+03  0.21379354816E+03  0.29699955289E+03  0.17190138230E+03 0.  0.
         24    2    3    3    0    0  0.50745548528E+02  0.59748405031E+02  0.21186179932E+03  0.23914367735E+03  0.78481168496E+02 0.  0.
         -6    2    1    2    0  502 -0.24603947706E+02 -0.11111081723E+03  0.43645659795E+03  0.48295995051E+03  0.17264120004E+03 0.  0.
        -24    2    5    5    0    0 -0.11390147902E+02 -0.14506806448E+03  0.40821209569E+03  0.43661838112E+03  0.53141479626E+02 0.  0.
          5    1    3    3  501    0 -0.26141600822E+02  0.51362412204E+02  0.19317488406E+01  0.57855875540E+02  0.47000000000E+01 0. -1.
        -13    1    4    4    0    0 -0.19462840551E+02  0.21255457222E+02  0.78114451492E+02  0.83261420574E+02  0.00000000000E+00 0.  1.
         14    1    4    4    0    0  0.70208389079E+02  0.38492947810E+02  0.13374734782E+03  0.15588225678E+03  0.00000000000E+00 0. -1.
         -5    1    5    5    0  502 -0.13213799804E+02  0.33957247248E+02  0.28244502258E+02  0.46341569392E+02  0.47000000000E+01 0.  1.
         11    1    6    6    0    0  0.17917301323E+02 -0.63617553454E+02  0.21435058627E+03  0.22430870833E+03  0.00000000000E+00 0. -1.
        -12    1    6    6    0    0 -0.29307449225E+02 -0.81450511029E+02  0.19386150942E+03  0.21230967279E+03  0.00000000000E+00 0.  1.
</event>
<event>
12    1  0.8052519E-002  0.1779245E+03  0.7818608E-02  0.1170180E+00
         21   -1    0    0  503  502  0.00000000000E+00  0.00000000000E+00  0.11242269826E+03  0.11242269826E+03  0.00000000000E+00 0.  1.
         21   -1    0    0  501  503 -0.00000000000E+00 -0.00000000000E+00 -0.48777184350E+03  0.48777184350E+03  0.00000000000E+00 0.  1.
          6    2    1    2  501    0  0.36856133361E+02  0.18197770034E+02 -0.38428303584E+03  0.42347442973E+03  0.17311154670E+03 0.  0.
         24    2    3    3    0    0 -0.29492244645E+02 -0.23601917594E+02 -0.27570978452E+03  0.28946113915E+03  0.79655651335E+02 0.  0.
         -6    2    1    2    0  502 -0.36856133361E+02 -0.18197770034E+02  0.89338905975E+01  0.17672011203E+03  0.17164105043E+03 0.  0.
        -24    2    5    5    0    0  0.33172199906E+02  0.10721188361E+02 -0.32142411999E+02  0.90408894622E+02  0.76975936832E+02 0.  0.
          5    1    3    3  501    0  0.66348378006E+02  0.41799687628E+02 -0.10857325132E+03  0.13401329058E+03  0.47000000000E+01 0. -1.
        -11    1    4    4    0    0  0.11154551209E+02 -0.36612646138E+02 -0.74293623837E+02  0.83573036398E+02  0.00000000000E+00 0.  1.
         12    1    4    4    0    0 -0.40646795854E+02  0.13010728544E+02 -0.20141616069E+03  0.20588810275E+03  0.00000000000E+00 0. -1.
         -5    1    5    5    0  502 -0.70028333266E+02 -0.28918958395E+02  0.41076302596E+02  0.86311217404E+02  0.47000000000E+01 0.  1.
         11    1    6    6    0    0  0.21339315275E+02 -0.12988544348E+02 -0.51737098799E+02  0.57452554798E+02  0.00000000000E+00 0. -1.
        -12    1    6    6    0    0  0.11832884631E+02  0.23709732709E+02  0.19594686800E+02  0.32956339824E+02  0.00000000000E+00 0.  1.
</event>
<event>
12    1  0.8052519E-002  0.1786397E+03  0.7818608E-02  0.1169236E+00
         21   -1    0    0  501  502  0.00000000000E+00  0.00000000000E+00  0.11643362421E+04  0.11643362421E+04  0.00000000000E+00 0.  1.
         21   -1    0    0  502  503 -0.00000000000E+00 -0.00000000000E+00 -0.30339345392E+02  0.30339345392E+02  0.00000000000E+00 0.  1.
         -6    2    1    2    0  503 -0.29370826871E+02  0.38581347039E+02  0.75547874495E+03  0.77631196608E+03  0.17193303576E+03 0.  0.
        -24    2    3    3    0    0  0.23088949543E+02  0.59273477757E+02  0.61234190144E+03  0.62239498070E+03  0.91468371525E+02 0.  0.
          6    2    1    2  501    0  0.29370826871E+02 -0.38581347039E+02  0.37851815175E+03  0.41836362142E+03  0.17146708928E+03 0.  0.
         24    2    5    5    0    0  0.44980908561E+02 -0.86973625425E+02  0.28966522193E+03  0.31588230412E+03  0.79296882674E+02 0.  0.
          5    1    5    5  501    0 -0.15610081690E+02  0.48392278386E+02  0.88852929819E+02  0.10248131730E+03  0.47000000000E+01 0. -1.
        -11    1    6    6    0    0  0.12363351753E+02 -0.62745030993E+02  0.80517889119E+02  0.10282471419E+03  0.00000000000E+00 0.  1.
         12    1    6    6    0    0  0.32617556808E+02 -0.24228594432E+02  0.20914733281E+03  0.21305758992E+03  0.00000000000E+00 0. -1.
         -5    1    3    3    0  503 -0.52459776414E+02 -0.20692130719E+02  0.14313684351E+03  0.15391698537E+03  0.47000000000E+01 0.  1.
         13    1    4    4    0    0  0.34881329224E+02  0.53390675040E+02  0.20171443808E+03  0.21155610566E+03  0.00000000000E+00 0. -1.
        -14    1    4    4    0    0 -0.11792379681E+02  0.58828027171E+01  0.41062746336E+03  0.41083887505E+03  0.00000000000E+00 0.  1.
</event>
<event>
12    1  0.8052519E-002  0.1908472E+03  0.7818608E-02  0.1161540E+00
         21   -1    0    0  503  502  0.00000000000E+00  0.00000000000E+00  0.98162478220E+02  0.98162478220E+02  0.00000000000E+00 0.  1.
         21   -1    0    0  501  503 -0.00000000000E+00 -0.00000000000E+00 -0.44736509632E+03  0.44736509632E+03  0.00000000000E+00 0. -1.
          6    2    1    2  501    0  0.80370153114E+02  0.27012987189E+02 -0.46989470459E+02  0.19654686070E+03  0.17097834695E+03 0.  0.
         24    2    3    3    0    0  0.24218720038E+02  0.60063134701E+02  0.18747267049E+02  0.10387159784E+03  0.79017227651E+02 0.  0.
         -6    2    1    2    0  502 -0.80370153114E+02 -0.27012987189E+02 -0.30221314764E+03  0.34898071384E+03  0.15253094453E+03 0.  0.
        -24    2    5    5    0    0 -0.75714175494E+02 -0.68198181110E+01 -0.30769207894E+03  0.32703644595E+03  0.80618082656E+02 0.  0.
          5    1    3    3  501    0  0.56151433077E+02 -0.33050147512E+02 -0.65736737508E+02  0.92675262856E+02  0.47000000000E+01 0. -1.
        -13    1    4    4    0    0  0.42265540495E+02  0.60742109334E+02  0.32844468640E+02  0.80961341886E+02  0.00000000000E+00 0.  1.
         14    1    4    4    0    0 -0.18046820457E+02 -0.67897463309E+00 -0.14097201591E+02  0.22910255954E+02  0.00000000000E+00 0. -1.
         -5    1    5    5    0  502 -0.46559776206E+01 -0.20193169078E+02  0.54789312993E+01  0.21944267889E+02  0.47000000000E+01 0.  1.
         11    1    6    6    0    0 -0.40709408690E+02 -0.42811699370E+02 -0.19293089686E+03  0.20177321061E+03  0.00000000000E+00 0. -1.
        -12    1    6    6    0    0 -0.35004766804E+02  0.35991881259E+02 -0.11476118208E+03  0.12526323534E+03  0.00000000000E+00 0.  1.
</event>
<event>
12    1  0.8052519E-002  0.2199032E+03  0.7818608E-02  0.1135422E+00
         21   -1    0    0  503  502  0.00000000000E+00  0.00000000000E+00  0.45622479699E+03  0.45622479699E+03  0.00000000000E+00 0. -1.
         21   -1    0    0  501  503 -0.00000000000E+00 -0.00000000000E+00 -0.12256821825E+03  0.12256821825E+03  0.00000000000E+00 0. -1.
          6    2    1    2  501    0 -0.11059792126E+03 -0.56152975662E+02  0.51673768742E+02  0.22589286558E+03  0.18158290526E+03 0.  0.
         24    2    3    3    0    0 -0.59171290024E+02  0.38378619363E+02  0.46140615104E+01  0.10834446320E+03  0.82116217373E+02 0.  0.
         -6    2    1    2    0  502  0.11059792126E+03  0.56152975662E+02  0.28198281000E+03  0.35290014965E+03  0.17216025565E+03 0.  0.
        -24    2    5    5    0    0  0.28705513333E+02 -0.25472393052E+02  0.87873120895E+02  0.12691402464E+03  0.83142257431E+02 0.  0.
          5    1    3    3  501    0 -0.51426631233E+02 -0.94531595025E+02  0.47059707232E+02  0.11754840238E+03  0.47000000000E+01 0. -1.
        -11    1    4    4    0    0  0.19011079093E+02  0.13779225068E+02  0.11404324547E+02  0.26102620369E+02  0.00000000000E+00 0.  1.
         12    1    4    4    0    0 -0.78182369117E+02  0.24599394295E+02 -0.67902630361E+01  0.82241842833E+02  0.00000000000E+00 0. -1.
         -5    1    5    5    0  502  0.81892407923E+02  0.81625368715E+02  0.19410968910E+03  0.22598612501E+03  0.47000000000E+01 0.  1.
         11    1    6    6    0    0  0.51901223419E+02 -0.37775931497E+02  0.52900466393E+02  0.83181832977E+02  0.00000000000E+00 0. -1.
        -12    1    6    6    0    0 -0.23195710085E+02  0.12303538445E+02  0.34972654502E+02  0.43732191662E+02  0.00000000000E+00 0.  1.
</event>
<event>
12    1  0.8052519E-002  0.1894201E+03  0.7818608E-02  0.1159183E+00
         21   -1    0    0  501  502  0.00000000000E+00  0.00000000000E+00  0.28591792629E+03  0.28591792629E+03  0.00000000000E+00 0.  1.
         21   -1    0    0  502  503 -0.00000000000E+00 -0.00000000000E+00 -0.14267828846E+03  0.14267828846E+03  0.00000000000E+00 0.  1.
         -6    2    1    2    0  503  0.68320372940E+02  0.35917454533E+02 -0.41377582837E+01  0.18859607692E+03  0.17202796949E+03 0.  0.
        -24    2    3    3    0    0  0.10966194074E+03  0.48082218981E+02  0.89693027375E+01  0.14330820027E+03  0.78225001405E+02 0.  0.
          6    2    1    2  501    0 -0.68320372940E+02 -0.35917454533E+02  0.14737739612E+03  0.24000013784E+03  0.17298043929E+03 0.  0.
         24    2    5    5    0    0  0.10107182301E+02 -0.65811890026E+02  0.97067621523E+02  0.14203217310E+03  0.79483677857E+02 0.  0.
          5    1    5    5  501    0 -0.78427555241E+02  0.29894435493E+02  0.50309774592E+02  0.97967964734E+02  0.47000000000E+01 0. -1.
        -13    1    6    6    0    0 -0.34008218039E+02 -0.35229775519E+02  0.56381553063E+02  0.74676472219E+02  0.00000000000E+00 0.  1.
         14    1    6    6    0    0  0.44115400341E+02 -0.30582114507E+02  0.40686068460E+02  0.67355700885E+02  0.00000000000E+00 0. -1.
         -5    1    3    3    0  503 -0.41341567800E+02 -0.12164764448E+02 -0.13107061021E+02  0.45287876644E+02  0.47000000000E+01 0.  1.
         11    1    4    4    0    0 -0.12286107254E+02  0.15272547945E+01  0.23965497639E+01  0.12610487280E+02  0.00000000000E+00 0. -1.
        -12    1    4    4    0    0  0.12194804799E+03  0.46554964187E+02  0.65727529737E+01  0.13069771299E+03  0.00000000000E+00 0.  1.
</event>
<event>
12    1  0.8052519E-002  0.1783694E+03  0.7818608E-02  0.1169421E+00
         21   -1    0    0  503  502  0.00000000000E+00  0.00000000000E+00  0.27054500307E+03  0.27054500307E+03  0.00000000000E+00 0. -1.
         21   -1    0    0  501  503 -0.00000000000E+00 -0.00000000000E+00 -0.14228894755E+03  0.14228894755E+03  0.00000000000E+00 0. -1.
          6    2    1    2  501    0  0.45160437247E+02 -0.14335003958E+02 -0.21980549688E+02  0.17971865925E+03  0.17196131684E+03 0.  0.
         24    2    3    3    0    0  0.60528049452E+02 -0.73286690609E+01 -0.73554782298E+02  0.12524624694E+03  0.80987420096E+02 0.  0.
         -6    2    1    2    0  502 -0.45160437247E+02  0.14335003958E+02  0.15023660520E+03  0.23311529137E+03  0.17183347781E+03 0.  0.
        -24    2    5    5    0    0 -0.99887053457E-02 -0.11738735115E+01  0.15948489383E+03  0.18426133425E+03  0.92279086807E+02 0.  0.
          5    1    3    3  501    0 -0.15367612206E+02 -0.70063348973E+01  0.51574232610E+02  0.54472412310E+02  0.47000000000E+01 0. -1.
        -11    1    4    4    0    0  0.15812372966E+02 -0.66726025401E+01  0.17058631319E+02  0.24198174848E+02  0.00000000000E+00 0.  1.
         12    1    4    4    0    0  0.44715676486E+02 -0.65606652088E+00 -0.90613413617E+02  0.10104807210E+03  0.00000000000E+00 0. -1.
         -5    1    5    5    0  502 -0.45150448541E+02  0.15508877470E+02 -0.92482886202E+01  0.48853957120E+02  0.47000000000E+01 0.  1.
         11    1    6    6    0    0 -0.11243664031E+02  0.38621537970E+02  0.35804998617E+02  0.53852029692E+02  0.00000000000E+00 0. -1.
        -12    1    6    6    0    0  0.11233675326E+02 -0.39795411481E+02  0.12367989521E+03  0.13040930456E+03  0.00000000000E+00 0.  1.
</event>
<event>
12    1  0.8052519E-002  0.2803426E+03  0.7818608E-02  0.1095604E+00
         21   -1    0    0  503  502  0.00000000000E+00  0.00000000000E+00  0.88780928827E+03  0.88780928827E+03  0.00000000000E+00 0. -1.
         21   -1    0    0  501  503 -0.00000000000E+00 -0.00000000000E+00 -0.13269131356E+03  0.13269131356E+03  0.00000000000E+00 0.  1.
          6    2    1    2  501    0 -0.38036564121E+02  0.21838824822E+03  0.82057271750E+02  0.29138973416E+03  0.17039475978E+03 0.  0.
         24    2    3    3    0    0 -0.65522429943E+02  0.74611017054E+02  0.97808842331E+01  0.12807001333E+03  0.80288666237E+02 0.  0.
         -6    2    1    2    0  502  0.38036564121E+02 -0.21838824822E+03  0.67306070296E+03  0.72911086766E+03  0.17161509345E+03 0.  0.
        -24    2    5    5    0    0  0.55678298868E+02 -0.52543521912E+02  0.32184346137E+03  0.34027755525E+03  0.79653664829E+02 0.  0.
          5    1    3    3  501    0  0.27485865822E+02  0.14377723116E+03  0.72276387517E+02  0.16331972084E+03  0.47000000000E+01 0. -1.
        -11    1    4    4    0    0 -0.31151920177E+02  0.50029468262E+02 -0.33326732585E+02  0.67705693484E+02  0.00000000000E+00 0.  1.
         12    1    4    4    0    0 -0.34370509767E+02  0.24581548791E+02  0.43107616818E+02  0.60364319845E+02  0.00000000000E+00 0. -1.
         -5    1    5    5    0  502 -0.17641734746E+02 -0.16584472631E+03  0.35121724159E+03  0.38883331241E+03  0.47000000000E+01 0.  1.
         13    1    6    6    0    0  0.27812964764E+02 -0.71343789470E+02  0.21195886706E+03  0.22536649847E+03  0.00000000000E+00 0. -1.
        -14    1    6    6    0    0  0.27865334104E+02  0.18800267557E+02  0.10988459431E+03  0.11491105679E+03  0.00000000000E+00 0.  1.
</event>
<event>
12    1  0.8052519E-002  0.2246166E+03  0.7818608E-02  0.1130896E+00
         21   -1    0    0  501  502  0.00000000000E+00  0.00000000000E+00  0.32175966340E+03  0.32175966340E+03  0.00000000000E+00 0. -1.
         21   -1    0    0  502  503 -0.00000000000E+00 -0.00000000000E+00 -0.32943968155E+03  0.32943968155E+03  0.00000000000E+00 0. -1.
         -6    2    1    2    0  503  0.62619004311E+02 -0.12605330530E+03 -0.24061316571E+03  0.32916155603E+03  0.17504873316E+03 0.  0.
        -24    2    3    3    0    0  0.99589110294E+02 -0.60118774568E+02 -0.19333092132E+03  0.23987632930E+03  0.81434331049E+02 0.  0.
          6    2    1    2  501    0 -0.62619004311E+02  0.12605330530E+03  0.23293314757E+03  0.32203778892E+03  0.17216245461E+03 0.  0.
         24    2    5    5    0    0  0.72348474265E+01  0.13081727489E+03  0.11699829686E+03  0.18651939306E+03  0.62732607875E+02 0.  0.
          5    1    5    5  501    0 -0.69853851738E+02 -0.47639695913E+01  0.11593485070E+03  0.13551839586E+03  0.47000000000E+01 0. -1.
        -13    1    6    6    0    0 -0.98901189264E+01  0.28927254289E+02  0.18730490510E+00  0.30571810156E+02  0.00000000000E+00 0.  1.
         14    1    6    6    0    0  0.17124966353E+02  0.10189002060E+03  0.11681099196E+03  0.15594758290E+03  0.00000000000E+00 0. -1.
         -5    1    3    3    0  503 -0.36970105983E+02 -0.65934530729E+02 -0.47282244388E+02  0.89285226736E+02  0.47000000000E+01 0.  1.
         11    1    4    4    0    0 -0.10620362788E+01  0.14925483341E+02 -0.33038295946E+02  0.36268815435E+02  0.00000000000E+00 0. -1.
        -12    1    4    4    0    0  0.10065114657E+03 -0.75044257909E+02 -0.16029262537E+03  0.20360751386E+03  0.00000000000E+00 0.  1.
</event>
<event>
12    1  0.8052519E-002  0.1813837E+03  0.7818608E-02  0.1166546E+00
         21   -1    0    0  503  502  0.00000000000E+00  0.00000000000E+00  0.94469795156E+02  0.94469795156E+02  0.00000000000E+00 0. -1.
         21   -1    0    0  501  503 -0.00000000000E+00 -0.00000000000E+00 -0.84918273717E+03  0.84918273717E+03  0.00000000000E+00 0.  1.
          6    2    1    2  501    0 -0.27633605315E+02  0.49366647789E+02 -0.73982289294E+03  0.76165865083E+03  0.17200379473E+03 0.  0.
         24    2    3    3    0    0  0.33856941882E+02  0.76070387984E+02 -0.42732596423E+03  0.44201729307E+03  0.76412114387E+02 0.  0.
         -6    2    1    2    0  502  0.27633605315E+02 -0.49366647789E+02 -0.14890049071E+02  0.18199388150E+03  0.17233507271E+03 0.  0.
        -24    2    5    5    0    0 -0.17118066597E+02 -0.37969909685E+02  0.49670201049E+02  0.10247838820E+03  0.79372217626E+02 0.  0.
          5    1    3    3  501    0 -0.61490547197E+02 -0.26703740195E+02 -0.31249692871E+03  0.31964135776E+03  0.47000000000E+01 0. -1.
        -11    1    4    4    0    0 -0.14118436230E+02  0.18951171644E+02 -0.22747225697E+03  0.22869653438E+03  0.00000000000E+00 0.  1.
         12    1    4    4    0    0  0.47975378112E+02  0.57119216340E+02 -0.19985370726E+03  0.21332075869E+03  0.00000000000E+00 0. -1.
         -5    1    5    5    0  502  0.44751671912E+02 -0.11396738105E+02 -0.64560250121E+02  0.79515493295E+02  0.47000000000E+01 0.  1.
         13    1    6    6    0    0 -0.14649115185E+02 -0.60882539909E+02  0.48846741671E+02  0.79418413566E+02  0.00000000000E+00 0. -1.
        -14    1    6    6    0    0 -0.24689514120E+01  0.22912630224E+02  0.82345937831E+00  0.23059974636E+02  0.00000000000E+00 0.  1.
</event>
<event>
12    1  0.8052519E-002  0.2008301E+03  0.7818608E-02  0.1150100E+00
         21   -1    0    0  501  502  0.00000000000E+00  0.00000000000E+00  0.80743609437E+02  0.80743609437E+02  0.00000000000E+00 0.  1.
         21   -1    0    0  502  503 -0.00000000000E+00 -0.00000000000E+00 -0.60892966484E+03  0.60892966484E+03  0.00000000000E+00 0.  1.
         -6    2    1    2    0  503  0.40170489123E+02 -0.97570368582E+02 -0.41560763377E+03  0.45944158893E+03  0.16499461620E+03 0.  0.
        -24    2    3    3    0    0  0.57245068455E+02 -0.12511585181E+03 -0.30873342878E+03  0.34766287630E+03  0.81376724418E+02 0.  0.
          6    2    1    2  501    0 -0.40170489123E+02  0.97570368582E+02 -0.11257842164E+03  0.23023168535E+03  0.17087739142E+03 0.  0.
         24    2    5    5    0    0 -0.43129345062E+01  0.10558233007E+03 -0.19545345863E+02  0.13009578300E+03  0.73325727985E+02 0.  0.
          5    1    5    5  501    0 -0.35857554617E+02 -0.80119614833E+01 -0.93033075778E+02  0.10013590235E+03  0.47000000000E+01 0. -1.
        -13    1    6    6    0    0  0.29040260032E+02  0.82600427539E+02 -0.18966104160E+02  0.89587278334E+02  0.00000000000E+00 0.  1.
         14    1    6    6    0    0 -0.33353194538E+02  0.22981902526E+02 -0.57924170257E+00  0.40508504670E+02  0.00000000000E+00 0. -1.
         -5    1    3    3    0  503 -0.17074579332E+02  0.27545483225E+02 -0.10687420499E+03  0.11177871263E+03  0.47000000000E+01 0.  1.
         11    1    4    4    0    0  0.51003680722E+02 -0.21643162643E+02 -0.91573557418E+02  0.10703045527E+03  0.00000000000E+00 0. -1.
        -12    1    4    4    0    0  0.62413877330E+01 -0.10347268916E+03 -0.21715987136E+03  0.24063242103E+03  0.00000000000E+00 0.  1.
</event>
<event>
12    1  0.8052519E-002  0.1768516E+03  0.7818608E-02  0.1171167E+00
         21   -1    0    0  501  502  0.00000000000E+00  0.00000000000E+00  0.81543298768E+02  0.81543298768E+02  0.00000000000E+00 0.  1.
         21   -1    0    0  502  503 -0.00000000000E+00 -0.00000000000E+00 -0.80975661856E+03  0.80975661856E+03  0.00000000000E+00 0.  1.
         -6    2    1    2    0  503 -0.26363545021E+02  0.27093313359E+02 -0.68779731667E+03  0.70988897765E+03  0.17160456763E+03 0.  0.
        -24    2    3    3    0    0 -0.44781932321E+02  0.77799832630E+02 -0.54056953788E+03  0.55301802134E+03  0.74533691824E+02 0.  0.
          6    2    1    2  501    0  0.26363545021E+02 -0.27093313359E+02 -0.40416003116E+02  0.18141093967E+03  0.17276397654E+03 0.  0.
         24    2    5    5    0    0  0.61473852524E+02 -0.63157624180E+02 -0.51566637188E+02  0.12964420472E+03  0.79878543488E+02 0.  0.
          5    1    5    5  501    0 -0.35110307503E+02  0.36064310820E+02  0.11150634071E+02  0.51766734957E+02  0.47000000000E+01 0. -1.
        -13    1    6    6    0    0  0.28677079015E+02 -0.77269005576E+02 -0.42847358858E+02  0.92891174202E+02  0.00000000000E+00 0.  1.
         14    1    6    6    0    0  0.32796773509E+02  0.14111381396E+02 -0.87192783302E+01  0.36753030516E+02  0.00000000000E+00 0. -1.
         -5    1    3    3    0  503  0.18418387300E+02 -0.50706519271E+02 -0.14722777879E+03  0.15687095632E+03  0.47000000000E+01 0.  1.
         11    1    4    4    0    0  0.20906288531E+02  0.15492048503E+02 -0.13133078771E+03  0.13388372667E+03  0.00000000000E+00 0. -1.
        -12    1    4    4    0    0 -0.65688220852E+02  0.62307784128E+02 -0.40923875017E+03  0.41913429467E+03  0.00000000000E+00 0.  1.
</event>
<event>
12    1  0.8052519E-002  0.1872442E+03  0.7818608E-02  0.1161505E+00
         21   -1    0    0  501  502  0.00000000000E+00  0.00000000000E+00  0.22179158166E+03  0.22179158166E+03  0.00000000000E+00 0.  1.
         21   -1    0    0  502  503 -0.00000000000E+00 -0.00000000000E+00 -0.16213032953E+03  0.16213032953E+03  0.00000000000E+00 0.  1.
         -6    2    1    2    0  503  0.39568236394E+02  0.60032881876E+02 -0.72687362172E+01  0.18507524653E+03  0.17038315678E+03 0.  0.
        -24    2    3    3    0    0  0.17120534919E+02  0.28701101116E+02  0.61347996464E+02  0.10623410377E+03  0.80032757124E+02 0.  0.
          6    2    1    2  501    0 -0.39568236394E+02 -0.60032881876E+02  0.66929988347E+02  0.19884666466E+03  0.17288950364E+03 0.  0.
         24    2    5    5    0    0 -0.33523593830E+02  0.23572242829E+02  0.71235667115E+02  0.11478131241E+03  0.80129566534E+02 0.  0.
          5    1    5    5  501    0 -0.60446425632E+01 -0.83605124705E+02 -0.43056787676E+01  0.84065352258E+02  0.47000000000E+01 0. -1.
        -11    1    6    6    0    0  0.11957521025E+02  0.16434833202E+02  0.65266866617E+02  0.68358246974E+02  0.00000000000E+00 0.  1.
         12    1    6    6    0    0 -0.45481114855E+02  0.71374096277E+01  0.59688004984E+01  0.46423065432E+02  0.00000000000E+00 0. -1.
         -5    1    3    3    0  503  0.22447701475E+02  0.31331780760E+02 -0.68616732681E+02  0.78841142755E+02  0.47000000000E+01 0.  1.
         11    1    4    4    0    0 -0.61010950619E+01 -0.11685226004E+02  0.58053474343E+02  0.59531283801E+02  0.00000000000E+00 0. -1.
        -12    1    4    4    0    0  0.23221629981E+02  0.40386327120E+02  0.32945221214E+01  0.46702819971E+02  0.00000000000E+00 0.  1.
</event>
<event>
12    1  0.8052519E-002  0.2228165E+03  0.7818608E-02  0.1131972E+00
         21   -1    0    0  501  502  0.00000000000E+00  0.00000000000E+00  0.93127986415E+03  0.93127986415E+03  0.00000000000E+00 0.  1.
         21   -1    0    0  502  503 -0.00000000000E+00 -0.00000000000E+00 -0.96707158441E+02  0.96707158441E+02  0.00000000000E+00 0.  1.
         -6    2    1    2    0  503 -0.12949742011E+03 -0.57564297718E+02  0.72570150646E+02  0.23433653707E+03  0.17194172169E+03 0.  0.
        -24    2    3    3    0    0 -0.11821330903E+03 -0.98790752914E+02  0.78757960196E+02  0.19089311688E+03  0.80643452838E+02 0.  0.
          6    2    1    2  501    0  0.12949742011E+03  0.57564297718E+02  0.76200255506E+03  0.79365048552E+03  0.17073362015E+03 0.  0.
         24    2    5    5    0    0  0.37293411572E+02 -0.16366160212E+01  0.16565760809E+03  0.18730428642E+03  0.79037810791E+02 0.  0.
          5    1    5    5  501    0  0.92204008538E+02  0.59200913739E+02  0.59634494697E+03  0.60634619909E+03  0.47000000000E+01 0. -1.
        -11    1    6    6    0    0  0.43948384624E+02  0.82916451377E+01  0.16906115183E+03  0.17487677075E+03  0.00000000000E+00 0.  1.
         12    1    6    6    0    0 -0.66549730516E+01 -0.99282611589E+01 -0.34035437322E+01  0.12427515677E+02  0.00000000000E+00 0. -1.
         -5    1    3    3    0  503 -0.11284111076E+02  0.41226455195E+02 -0.61878095495E+01  0.43443420190E+02  0.47000000000E+01 0.  1.
         13    1    4    4    0    0 -0.86147937708E+02 -0.83880947550E+02  0.19391780534E+02  0.12179294596E+03  0.00000000000E+00 0. -1.
        -14    1    4    4    0    0 -0.32065371327E+02 -0.14909805364E+02  0.59366179662E+02  0.69100170926E+02  0.00000000000E+00 0.  1.
</event>
<event>
12    1  0.8052519E-002  0.1769987E+03  0.7818608E-02  0.1171031E+00
         21   -1    0    0  503  502  0.00000000000E+00  0.00000000000E+00  0.86644301039E+03  0.86644301039E+03  0.00000000000E+00 0.  1.
         21   -1    0    0  501  503 -0.00000000000E+00 -0.00000000000E+00 -0.80036237351E+02  0.80036237351E+02  0.00000000000E+00 0.  1.
          6    2    1    2  501    0 -0.16918714494E+02 -0.37566568777E+02  0.42437310013E+02  0.18201497531E+03  0.17213667816E+03 0.  0.
         24    2    3    3    0    0 -0.53587572907E+02 -0.40605185151E+02 -0.22980928250E+02  0.10681208797E+03  0.79751426585E+02 0.  0.
         -6    2    1    2    0  502  0.16918714494E+02  0.37566568777E+02  0.74396946302E+03  0.76446427243E+03  0.17093148310E+03 0.  0.
        -24    2    5    5    0    0 -0.47422861381E+02 -0.12385661521E+02  0.35663292374E+03  0.36862750258E+03  0.79352762841E+02 0.  0.
          5    1    3    3  501    0  0.36668858414E+02  0.30386163740E+01  0.65418238263E+02  0.75202887340E+02  0.47000000000E+01 0. -1.
        -11    1    4    4    0    0  0.95091155839E+01  0.15801818541E+02 -0.10615630324E+02  0.21279388045E+02  0.00000000000E+00 0.  1.
         12    1    4    4    0    0 -0.63096688491E+02 -0.56407003691E+02 -0.12365297927E+02  0.85532699927E+02  0.00000000000E+00 0. -1.
         -5    1    5    5    0  502  0.64341575875E+02  0.49952230297E+02  0.38733653928E+03  0.39583676985E+03  0.47000000000E+01 0.  1.
         11    1    6    6    0    0  0.57247788833E+00  0.25620045290E+02  0.17707526525E+03  0.17891999334E+03  0.00000000000E+00 0. -1.
        -12    1    6    6    0    0 -0.47995339269E+02 -0.38005706810E+02  0.17955765849E+03  0.18970750924E+03  0.00000000000E+00 0.  1.
</event>
<event>
12    1  0.8052519E-002  0.1758110E+03  0.7818608E-02  0.1172142E+00
         21   -1    0    0  503  502  0.00000000000E+00  0.00000000000E+00  0.37830349928E+03  0.37830349928E+03  0.00000000000E+00 0. -1.
         21   -1    0    0  501  503 -0.00000000000E+00 -0.00000000000E+00 -0.51184560217E+03  0.51184560217E+03  0.00000000000E+00 0. -1.
          6    2    1    2  501    0 -0.21314306964E+02  0.53675485356E+01 -0.47500069144E+03  0.50649302141E+03  0.17443168753E+03 0.  0.
         24    2    3    3    0    0  0.18189839547E+02  0.17767653245E+02 -0.44929573627E+03  0.45753206851E+03  0.82597671435E+02 0.  0.
         -6    2    1    2    0  502  0.21314306964E+02 -0.53675485356E+01  0.34145858855E+03  0.38365608004E+03  0.17353647973E+03 0.  0.
        -24    2    5    5    0    0  0.53143132360E+01 -0.48523991080E+02  0.98137004228E+02  0.13597491053E+03  0.80470398655E+02 0.  0.
          5    1    3    3  501    0 -0.39504146510E+02 -0.12400104709E+02 -0.25704955170E+02  0.48960952897E+02  0.47000000000E+01 0. -1.
        -11    1    4    4    0    0 -0.17849971646E+02  0.24318786776E+02 -0.35641123498E+03  0.35768560678E+03  0.00000000000E+00 0.  1.
         12    1    4    4    0    0  0.36039811193E+02 -0.65511335314E+01 -0.92884501289E+02  0.99846461735E+02  0.00000000000E+00 0. -1.
         -5    1    5    5    0  502  0.15999993727E+02  0.43156442544E+02  0.24332158432E+03  0.24768116951E+03  0.47000000000E+01 0.  1.
         11    1    6    6    0    0 -0.14290500792E+02 -0.59465540698E+02  0.95450974704E+02  0.11336338701E+03  0.00000000000E+00 0. -1.
        -12    1    6    6    0    0  0.19604814028E+02  0.10941549619E+02  0.26860295233E+01  0.22611523516E+02  0.00000000000E+00 0.  1.
</event>
<event>
12    1  0.8052519E-002  0.2060460E+03  0.7818608E-02  0.1146355E+00
         21   -1    0    0  501  502  0.00000000000E+00  0.00000000000E+00  0.26324019228E+04  0.26324019228E+04  0.00000000000E+00 0. -1.
         21   -1    0    0  502  503 -0.00000000000E+00 -0.00000000000E+00 -0.20949504649E+02  0.20949504649E+02  0.00000000000E+00 0. -1.
         -6    2    1    2    0  503 -0.10848666976E+03 -0.51667378106E+02  0.61183311607E+03  0.64314439866E+03  0.15765811156E+03 0.  0.
        -24    2    3    3    0    0 -0.56695417909E+02  0.25784767749E+02  0.25181747488E+03  0.27123779672E+03  0.79238103570E+02 0.  0.
          6    2    1    2  501    0  0.10848666976E+03  0.51667378106E+02  0.19996193021E+04  0.20102070288E+04  0.16738001627E+03 0.  0.
         24    2    5    5    0    0  0.44923440651E+02 -0.34746058718E+02  0.10729403436E+04  0.10773278575E+04  0.78796747820E+02 0.  0.
          5    1    5    5  501    0  0.63563229104E+02  0.86413436824E+02  0.92667895848E+03  0.93287917130E+03  0.47000000000E+01 0. -1.
        -11    1    6    6    0    0  0.47889553778E+02 -0.16502852709E+02  0.30594216025E+03  0.31010701206E+03  0.00000000000E+00 0.  1.
         12    1    6    6    0    0 -0.29661131274E+01 -0.18243206008E+02  0.76699818340E+03  0.76722084547E+03  0.00000000000E+00 0. -1.
         -5    1    3    3    0  503 -0.51791251847E+02 -0.77452145855E+02  0.36001564119E+03  0.37190660194E+03  0.47000000000E+01 0.  1.
         11    1    4    4    0    0 -0.55637766869E+01 -0.14743024465E+02  0.59227128551E+01  0.16834218395E+02  0.00000000000E+00 0. -1.
        -12    1    4    4    0    0 -0.51131641222E+02  0.40527792214E+02  0.24589476202E+03  0.25440357833E+03  0.00000000000E+00 0.  1.
</event>
<event>
12    1  0.8052519E-002  0.1776852E+03  0.7818608E-02  0.1170657E+00
         21   -1    0    0  501  502  0.00000000000E+00  0.00000000000E+00  0.23901987723E+02  0.23901987723E+02  0.00000000000E+00 0.  1.
         21   -1    0    0  502  503 -0.00000000000E+00 -0.00000000000E+00 -0.19947888762E+04  0.19947888762E+04  0.00000000000E+00 0.  1.
         -6    2    1    2    0  503 -0.62323769477E+01  0.40441860398E+02 -0.15754077912E+04  0.15851291566E+04  0.17044162566E+03 0.  0.
        -24    2    3    3    0    0  0.24915548206E+02 -0.28504891744E+02 -0.55936431748E+03  0.56626200212E+03  0.79566965386E+02 0.  0.
          6    2    1    2  501    0  0.62323769477E+01 -0.40441860398E+02 -0.39547909729E+03  0.43356170739E+03  0.17290937259E+03 0.  0.
         24    2    5    5    0    0 -0.25705943105E+02 -0.67858936666E+02 -0.15141628799E+03  0.18585119642E+03  0.79675241752E+02 0.  0.
          5    1    5    5  501    0  0.31938320053E+02  0.27417076269E+02 -0.24406280930E+03  0.24771051097E+03  0.47000000000E+01 0. -1.
        -11    1    6    6    0    0 -0.39245612351E+02 -0.27550555422E+02 -0.12933581114E+03  0.13793840377E+03  0.00000000000E+00 0.  1.
         12    1    6    6    0    0  0.13539669245E+02 -0.40308381244E+02 -0.22080476851E+02  0.47912792653E+02  0.00000000000E+00 0. -1.
         -5    1    3    3    0  503 -0.31147925153E+02  0.68946752142E+02 -0.10160434737E+04  0.10188671544E+04  0.47000000000E+01 0.  1.
         13    1    4    4    0    0 -0.25557823759E+02 -0.23510339447E+01 -0.94088344298E+02  0.97526131107E+02  0.00000000000E+00 0. -1.
        -14    1    4    4    0    0  0.50473371965E+02 -0.26153857800E+02 -0.46527597318E+03  0.46873587101E+03  0.00000000000E+00 0.  1.
</event>
<event>
12    1  0.8052519E-002  0.3348607E+03  0.7818608E-02  0.1069085E+00
         21   -1    0    0  503  502  0.00000000000E+00  0.00000000000E+00  0.14844690563E+03  0.14844690563E+03  0.00000000000E+00 0. -1.
         21   -1    0    0  501  503 -0.00000000000E+00 -0.00000000000E+00 -0.10494009480E+04  0.10494009480E+04  0.00000000000E+00 0.  1.
          6    2    1    2  501    0  0.19340820149E+03  0.21298063004E+03 -0.76874519399E+03  0.83851110884E+03  0.17135992877E+03 0.  0.
         24    2    3    3    0    0  0.13111376884E+03  0.18596214426E+03 -0.43083223028E+03  0.49381144833E+03  0.80377835088E+02 0.  0.
         -6    2    1    2    0  502 -0.19340820149E+03 -0.21298063004E+03 -0.13220884834E+03  0.35933674475E+03  0.16993008967E+03 0.  0.
        -24    2    5    5    0    0 -0.17187354058E+03 -0.14833373033E+03 -0.15456418635E+03  0.28747010159E+03  0.84885582404E+02 0.  0.
          5    1    3    3  501    0  0.62294432651E+02  0.27018485775E+02 -0.33791296371E+03  0.34469966051E+03  0.47000000000E+01 0. -1.
        -11    1    4    4    0    0  0.57505208651E+02  0.22478156359E+02 -0.10017425619E+03  0.11767326858E+03  0.00000000000E+00 0.  1.
         12    1    4    4    0    0  0.73608560189E+02  0.16348398790E+03 -0.33065797410E+03  0.37613817975E+03  0.00000000000E+00 0. -1.
         -5    1    5    5    0  502 -0.21534660913E+02 -0.64646899709E+02  0.22355338007E+02  0.71866643166E+02  0.47000000000E+01 0.  1.
         13    1    6    6    0    0 -0.54716587036E+02 -0.31322555572E+02 -0.31981113215E+01  0.63128720092E+02  0.00000000000E+00 0. -1.
        -14    1    6    6    0    0 -0.11715695354E+03 -0.11701117476E+03 -0.15136607503E+03  0.22434138150E+03  0.00000000000E+00 0.  1.
</event>
<event>
12    1  0.8052519E-002  0.1985452E+03  0.7818608E-02  0.1152018E+00
         21   -1    0    0  501  502  0.00000000000E+00  0.00000000000E+00  0.94270441211E+03  0.94270441211E+03  0.00000000000E+00 0. -1.
         21   -1    0    0  502  503 -0.00000000000E+00 -0.00000000000E+00 -0.64063066907E+02  0.64063066907E+02  0.00000000000E+00 0. -1.
         -6    2    1    2    0  503  0.28051847037E+02 -0.93626131264E+02  0.13946342914E+03  0.24263194053E+03  0.17282202383E+03 0.  0.
        -24    2    3    3    0    0 -0.68166916920E+00 -0.76897628856E+02  0.84449008097E+01  0.10737883516E+03  0.74466018391E+02 0.  0.
          6    2    1    2  501    0 -0.28051847037E+02  0.93626131264E+02  0.73917791607E+03  0.76413553849E+03  0.16723148926E+03 0.  0.
         24    2    5    5    0    0  0.50467191949E+02  0.59523374896E+02  0.42709724083E+03  0.44049271788E+03  0.74376150459E+02 0.  0.
          5    1    5    5  501    0 -0.78519038985E+02  0.34102756368E+02  0.31208067523E+03  0.32364282061E+03  0.47000000000E+01 0. -1.
        -11    1    6    6    0    0  0.49099370399E+02  0.14159946185E+01  0.17344252175E+03  0.18026386650E+03  0.00000000000E+00 0.  1.
         12    1    6    6    0    0  0.13678215500E+01  0.58107380278E+02  0.25365471908E+03  0.26022885138E+03  0.00000000000E+00 0. -1.
         -5    1    3    3    0  503  0.28733516206E+02 -0.16728502409E+02  0.13101852833E+03  0.13525310537E+03  0.47000000000E+01 0.  1.
         13    1    4    4    0    0 -0.10664024905E+01 -0.82129085938E+02  0.28275082109E+02  0.86866588742E+02  0.00000000000E+00 0. -1.
        -14    1    4    4    0    0  0.38473332132E+00  0.52314570825E+01 -0.19830181299E+02  0.20512246423E+02  0.00000000000E+00 0.  1.
</event>
<event>
12    1  0.8052519E-002  0.2074922E+03  0.7818608E-02  0.1143577E+00
         21   -1    0    0  503  502  0.00000000000E+00  0.00000000000E+00  0.15830412941E+04  0.15830412941E+04  0.00000000000E+00 0.  1.
         21   -1    0    0  501  503 -0.00000000000E+00 -0.00000000000E+00 -0.11934402634E+03  0.11934402634E+03  0.00000000000E+00 0.  1.
          6    2    1    2  501    0 -0.97107969186E+02 -0.64366322666E+02 -0.16142312214E+02  0.20807002375E+03  0.17163793102E+03 0.  0.
         24    2    3    3    0    0 -0.29825057098E+02 -0.84169436378E+02 -0.51166938124E+02  0.12953361186E+03  0.78656677998E+02 0.  0.
         -6    2    1    2    0  502  0.97107969186E+02  0.64366322666E+02  0.14798395800E+04  0.14943152967E+04  0.17169753137E+03 0.  0.
        -24    2    5    5    0    0  0.48233145708E+02  0.58215967466E+02  0.41656405094E+03  0.42988891789E+03  0.74587787031E+02 0.  0.
          5    1    3    3  501    0 -0.67282912088E+02  0.19803113712E+02  0.35024625910E+02  0.78536411885E+02  0.47000000000E+01 0. -1.
        -13    1    4    4    0    0 -0.40014086913E+02 -0.94386899682E+02 -0.36143923409E+02  0.10870325286E+03  0.00000000000E+00 0.  1.
         14    1    4    4    0    0  0.10189029816E+02  0.10217463304E+02 -0.15023014715E+02  0.20830359000E+02  0.00000000000E+00 0. -1.
         -5    1    5    5    0  502  0.48874823478E+02  0.61503552004E+01  0.10632755291E+04  0.10644263788E+04  0.47000000000E+01 0.  1.
         13    1    6    6    0    0 -0.15117369010E+02 -0.55270055989E+01  0.53600249236E+02  0.55964893950E+02  0.00000000000E+00 0. -1.
        -14    1    6    6    0    0  0.63350514718E+02  0.63742973065E+02  0.36296380171E+03  0.37392402394E+03  0.00000000000E+00 0.  1.
</event>
<event>
12    1  0.8052519E-002  0.2167800E+03  0.7818608E-02  0.1136655E+00
         21   -1    0    0  501  502  0.00000000000E+00  0.00000000000E+00  0.28744955035E+03  0.28744955035E+03  0.00000000000E+00 0. -1.
         21   -1    0    0  502  503 -0.00000000000E+00 -0.00000000000E+00 -0.16222549532E+03  0.16222549532E+03  0.00000000000E+00 0. -1.
         -6    2    1    2    0  503  0.86557762074E+01  0.13036276040E+03  0.56947008736E+02  0.22413502995E+03  0.17298606327E+03 0.  0.
        -24    2    3    3    0    0  0.58961878470E+02  0.13315096934E+03  0.39470350949E+02  0.17059997973E+03  0.79628893829E+02 0.  0.
          6    2    1    2  501    0 -0.86557762074E+01 -0.13036276040E+03  0.68277046302E+02  0.22554001572E+03  0.17069613903E+03 0.  0.
         24    2    5    5    0    0  0.55173045479E+02 -0.82546919432E+02  0.14137618314E+02  0.12903280984E+03  0.81188268288E+02 0.  0.
          5    1    5    5  501    0 -0.63828821686E+02 -0.47815840967E+02  0.54139427987E+02  0.96507205887E+02  0.47000000000E+01 0. -1.
        -11    1    6    6    0    0 -0.17707093883E+02 -0.12596149136E+02  0.17587829026E+02  0.27955963169E+02  0.00000000000E+00 0.  1.
         12    1    6    6    0    0  0.72880139362E+02 -0.69950770296E+02 -0.34502107121E+01  0.10107684667E+03  0.00000000000E+00 0. -1.
         -5    1    3    3    0  503 -0.50306102263E+02 -0.27882089395E+01  0.17476657786E+02  0.53535050213E+02  0.47000000000E+01 0.  1.
         11    1    4    4    0    0  0.39261918692E+02  0.95788176343E+02 -0.11776305549E+02  0.10418999164E+03  0.00000000000E+00 0. -1.
        -12    1    4    4    0    0  0.19699959778E+02  0.37362792996E+02  0.51246656498E+02  0.66409988089E+02  0.00000000000E+00 0.  1.
</event>
<event>
12    1  0.8052519E-002  0.2195966E+03  0.7818608E-02  0.1134573E+00
         21   -1    0    0  501  502  0.00000000000E+00  0.00000000000E+00  0.14409916942E+03  0.14409916942E+03  0.00000000000E+00 0.  1.
         21   -1    0    0  502  503 -0.00000000000E+00 -0.00000000000E+00 -0.38997849408E+03  0.38997849408E+03  0.00000000000E+00 0.  1.
         -6    2    1    2    0  503 -0.78928935187E+02 -0.10966618891E+03 -0.22684303975E+03  0.31572209942E+03  0.17310756650E+03 0.  0.
        -24    2    3    3    0    0  0.27523342990E+02 -0.77673784948E+02 -0.64554769639E+02  0.11896038044E+03  0.56511083464E+02 0.  0.
          6    2    1    2  501    0  0.78928935187E+02  0.10966618891E+03 -0.19036284905E+02  0.21835556408E+03  0.17047088438E+03 0.  0.
         24    2    5    5    0    0  0.11575455031E+03  0.10523573064E+03 -0.34196750435E+02  0.17801099065E+03  0.77748441351E+02 0.  0.
          5    1    5    5  501    0 -0.36825615123E+02  0.44304582687E+01  0.15160465529E+02  0.40344573423E+02  0.47000000000E+01 0. -1.
        -11    1    6    6    0    0  0.55278445176E+02  0.34778530164E+02 -0.51981665777E+02  0.83470630993E+02  0.00000000000E+00 0.  1.
         12    1    6    6    0    0  0.60476105134E+02  0.70457200475E+02  0.17784915342E+02  0.94540359660E+02  0.00000000000E+00 0. -1.
         -5    1    3    3    0  503 -0.10645227818E+03 -0.31992403960E+02 -0.16228827011E+03  0.19676171898E+03  0.47000000000E+01 0.  1.
         11    1    4    4    0    0 -0.13103144332E+02 -0.29299613265E+02 -0.56549253341E+01  0.32590457336E+02  0.00000000000E+00 0. -1.
        -12    1    4    4    0    0  0.40626487322E+02 -0.48374171684E+02 -0.58899844304E+02  0.86369923106E+02  0.00000000000E+00 0.  1.
</event>
<event>
12    1  0.8052519E-002  0.2064218E+03  0.7818608E-02  0.1144477E+00
         21   -1    0    0  503  502  0.00000000000E+00  0.00000000000E+00  0.68848582484E+02  0.68848582484E+02  0.00000000000E+00 0.  1.
         21   -1    0    0  501  503 -0.00000000000E+00 -0.00000000000E+00 -0.77743851452E+03  0.77743851452E+03  0.00000000000E+00 0.  1.
          6    2    1    2  501    0  0.47973115029E+02 -0.10117338939E+03 -0.54563551008E+03  0.58329643331E+03  0.17314486642E+03 0.  0.
         24    2    3    3    0    0  0.18599253916E+02  0.18610564483E+02 -0.22087870467E+03  0.23587724561E+03  0.78475394005E+02 0.  0.
         -6    2    1    2    0  502 -0.47973115029E+02  0.10117338939E+03 -0.16295442196E+03  0.26299066369E+03  0.17341416051E+03 0.  0.
        -24    2    5    5    0    0 -0.75907069938E+02  0.10395003981E+03 -0.74904054165E+02  0.17045433087E+03  0.82925071826E+02 0.  0.
          5    1    3    3  501    0  0.29373861112E+02 -0.11978395388E+03 -0.32475680541E+03  0.34741918770E+03  0.47000000000E+01 0. -1.
        -11    1    4    4    0    0  0.16804450891E+02 -0.64162297081E+01 -0.20584005994E+03  0.20662450932E+03  0.00000000000E+00 0.  1.
         12    1    4    4    0    0  0.17948030252E+01  0.25026794191E+02 -0.15038644723E+02  0.29252736290E+02  0.00000000000E+00 0. -1.
         -5    1    5    5    0  502  0.27933954909E+02 -0.27766504187E+01 -0.88050367791E+02  0.92536332824E+02  0.47000000000E+01 0.  1.
         11    1    6    6    0    0 -0.15267811595E+01  0.60066077804E+02 -0.55813103612E+02  0.82008336761E+02  0.00000000000E+00 0. -1.
        -12    1    6    6    0    0 -0.74380288778E+02  0.43883962008E+02 -0.19090950553E+02  0.88445994105E+02  0.00000000000E+00 0.  1.
</event>
<event>
12    1  0.8052519E-002  0.2377268E+03  0.7818608E-02  0.1121321E+00
         21   -1    0    0  501  502  0.00000000000E+00  0.00000000000E+00  0.25108980341E+03  0.25108980341E+03  0.00000000000E+00 0.  1.
         21   -1    0    0  502  503 -0.00000000000E+00 -0.00000000000E+00 -0.22719561344E+03  0.22719561344E+03  0.00000000000E+00 0. -1.
         -6    2    1    2    0  503 -0.14889313316E+03 -0.69043272922E+02 -0.11305649694E+02  0.23799553053E+03  0.17198231363E+03 0.  0.
        -24    2    3    3    0    0 -0.84425085214E+02 -0.77360802606E+01  0.53341418741E+02  0.12792267041E+03  0.79570476311E+02 0.  0.
          6    2    1    2  501    0  0.14889313316E+03  0.69043272922E+02  0.35199839664E+02  0.24028988632E+03  0.17194203128E+03 0.  0.
         24    2    5    5    0    0  0.17955742172E+03  0.54597354513E+02  0.33774570910E+02  0.20603927257E+03  0.78036666940E+02 0.  0.
          5    1    5    5  501    0 -0.30664288561E+02  0.14445918409E+02  0.14252687540E+01  0.34250613756E+02  0.47000000000E+01 0. -1.
        -13    1    6    6    0    0  0.89628031664E+02  0.22786370649E+02  0.55975097200E+02  0.10810001968E+03  0.00000000000E+00 0.  1.
         14    1    6    6    0    0  0.89929390053E+02  0.31810983863E+02 -0.22200526290E+02  0.97939252893E+02  0.00000000000E+00 0. -1.
         -5    1    3    3    0  503 -0.64468047942E+02 -0.61307192661E+02 -0.64647068435E+02  0.11007286012E+03  0.47000000000E+01 0.  1.
         13    1    4    4    0    0 -0.17953337514E+02  0.33366046614E+02  0.13693988472E+02  0.40288220547E+02  0.00000000000E+00 0. -1.
        -14    1    4    4    0    0 -0.66471747700E+02 -0.41102126875E+02  0.39647430269E+02  0.87634449863E+02  0.00000000000E+00 0.  1.
</event>
<event>
12    1  0.8052519E-002  0.1927151E+03  0.7818608E-02  0.1156058E+00
         21   -1    0    0  501  502  0.00000000000E+00  0.00000000000E+00  0.30078325064E+02  0.30078325064E+02  0.00000000000E+00 0.  1.
         21   -1    0    0  502  503 -0.00000000000E+00 -0.00000000000E+00 -0.12407495482E+04  0.12407495482E+04  0.00000000000E+00 0.  1.
         -6    2    1    2    0  503 -0.83719679869E+02 -0.29940206235E+02 -0.65174373889E+03  0.67960959986E+03  0.17086224362E+03 0.  0.
        -24    2    3    3    0    0 -0.10339560512E+03  0.25563396847E+02 -0.45968261299E+03  0.47866841923E+03  0.80443846691E+02 0.  0.
          6    2    1    2  501    0  0.83719679869E+02  0.29940206235E+02 -0.55892748422E+03  0.59121827338E+03  0.17097869286E+03 0.  0.
         24    2    5    5    0    0  0.10005505665E+03 -0.20695246933E+02 -0.47621243282E+03  0.49275679167E+03  0.74777449523E+02 0.  0.
          5    1    5    5  501    0 -0.16335376778E+02  0.50635453168E+02 -0.82715051404E+02  0.98461481711E+02  0.47000000000E+01 0. -1.
        -13    1    6    6    0    0  0.96149044649E+02 -0.79871961096E+00 -0.29181453780E+03  0.30724745924E+03  0.00000000000E+00 0.  1.
         14    1    6    6    0    0  0.39060119978E+01 -0.19896527322E+02 -0.18439789502E+03  0.18550933243E+03  0.00000000000E+00 0. -1.
         -5    1    3    3    0  503  0.19675925254E+02 -0.55503603082E+02 -0.19206112590E+03  0.20094118063E+03  0.47000000000E+01 0.  1.
         11    1    4    4    0    0  0.12929655098E+02  0.87238953681E+01 -0.65748229124E+02  0.67573012101E+02  0.00000000000E+00 0. -1.
        -12    1    4    4    0    0 -0.11632526022E+03  0.16839501479E+02 -0.39393438386E+03  0.41109540713E+03  0.00000000000E+00 0.  1.
</event>
<event>
12    1  0.8052519E-002  0.1760626E+03  0.7818608E-02  0.1172337E+00
         21   -1    0    0  501  502  0.00000000000E+00  0.00000000000E+00  0.86187163459E+03  0.86187163459E+03  0.00000000000E+00 0. -1.
         21   -1    0    0  502  503 -0.00000000000E+00 -0.00000000000E+00 -0.38775176144E+02  0.38775176144E+02  0.00000000000E+00 0. -1.
         -6    2    1    2    0  503 -0.26344877695E+02  0.11096463626E+02  0.54105835336E+03  0.56816593841E+03  0.17102984463E+03 0.  0.
        -24    2    3    3    0    0 -0.71272931229E+01  0.20140492363E+02  0.54004377194E+03  0.54638912992E+03  0.80233209771E+02 0.  0.
          6    2    1    2  501    0  0.26344877695E+02 -0.11096463626E+02  0.28203810509E+03  0.33248087232E+03  0.17372637580E+03 0.  0.
         24    2    5    5    0    0  0.58554843540E+02 -0.39002668980E+02  0.26370993402E+03  0.28585201803E+03  0.84962162303E+02 0.  0.
          5    1    5    5  501    0 -0.32209965846E+02  0.27906205354E+02  0.18328171068E+02  0.46628854283E+02  0.47000000000E+01 0. -1.
        -13    1    6    6    0    0 -0.15247824547E+02 -0.32874047099E+02  0.84377090286E+02  0.91829692863E+02  0.00000000000E+00 0.  1.
         14    1    6    6    0    0  0.73802668087E+02 -0.61286218812E+01  0.17933284374E+03  0.19402232517E+03  0.00000000000E+00 0. -1.
         -5    1    3    3    0  503 -0.19217584572E+02 -0.90440287369E+01  0.10145814170E+01  0.21776808490E+02  0.47000000000E+01 0.  1.
         11    1    4    4    0    0 -0.34806683785E+02  0.35639218123E+02  0.37808528697E+03  0.38135304290E+03  0.00000000000E+00 0. -1.
        -12    1    4    4    0    0  0.27679390662E+02 -0.15498725760E+02  0.16195848496E+03  0.16503608702E+03  0.00000000000E+00 0.  1.
</event>
<event>
12    1  0.8052519E-002  0.2065221E+03  0.7818608E-02  0.1144568E+00
         21   -1    0    0  503  502  0.00000000000E+00  0.00000000000E+00  0.31784240149E+03  0.31784240149E+03  0.00000000000E+00 0. -1.
         21   -1    0    0  501  503 -0.00000000000E+00 -0.00000000000E+00 -0.13775133508E+03  0.13775133508E+03  0.00000000000E+00 0.  1.
          6    2    1    2  501    0  0.51313814967E+02  0.10273577388E+03  0.50222311156E+02  0.21254095134E+03  0.17164972653E+03 0.  0.
         24    2    3    3    0    0 -0.28951433970E+02  0.36918342542E+02  0.57715191936E+02  0.10836476540E+03  0.78808181401E+02 0.  0.
         -6    2    1    2    0  502 -0.51313814967E+02 -0.10273577388E+03  0.12986875525E+03  0.24305278522E+03  0.17035555750E+03 0.  0.
        -24    2    5    5    0    0 -0.44742128429E+02 -0.10961378188E+03  0.34093806702E+02  0.14669187599E+03  0.79618337022E+02 0.  0.
          5    1    3    3  501    0  0.80265248938E+02  0.65817431334E+02 -0.74928807805E+01  0.10417618594E+03  0.47000000000E+01 0. -1.
        -13    1    4    4    0    0  0.52933119900E+01  0.35037102305E+02  0.64323124122E+02  0.73437606079E+02  0.00000000000E+00 0.  1.
         14    1    4    4    0    0 -0.34244745960E+02  0.18812402375E+01 -0.66079321859E+01  0.34927159325E+02  0.00000000000E+00 0. -1.
         -5    1    5    5    0  502 -0.65716865384E+01  0.68780080077E+01  0.95774948551E+02  0.96360909232E+02  0.47000000000E+01 0.  1.
         11    1    6    6    0    0 -0.37447251016E+02 -0.99938225791E+01 -0.56912321694E+01  0.39173501528E+02  0.00000000000E+00 0. -1.
        -12    1    6    6    0    0 -0.72948774132E+01 -0.99619959305E+02  0.39785038872E+02  0.10751837446E+03  0.00000000000E+00 0.  1.
</event>
<event>
12    1  0.8052519E-002  0.2587561E+03  0.7818608E-02  0.1108276E+00
         21   -1    0    0  503  502  0.00000000000E+00  0.00000000000E+00  0.74459260545E+02  0.74459260545E+02  0.00000000000E+00 0.  1.
         21   -1    0    0  501  503 -0.00000000000E+00 -0.00000000000E+00 -0.90675736192E+03  0.90675736192E+03  0.00000000000E+00 0.  1.
          6    2    1    2  501    0  0.37178355605E+01  0.19276660588E+03 -0.47987876783E+03  0.54400489453E+03  0.16877472209E+03 0.  0.
         24    2    3    3    0    0  0.47963305960E+02  0.15926251328E+03 -0.43456978689E+03  0.47220531496E+03  0.80386148991E+02 0.  0.
         -6    2    1    2    0  502 -0.37178355605E+01 -0.19276660588E+03 -0.35241933355E+03  0.43721172794E+03  0.17257439481E+03 0.  0.
        -24    2    5    5    0    0  0.11101697764E+02 -0.19810320288E+03 -0.36061633223E+03  0.41884385863E+03  0.77575203242E+02 0.  0.
          5    1    3    3  501    0 -0.44245470400E+02  0.33504092599E+02 -0.45308980940E+02  0.71799579564E+02  0.47000000000E+01 0. -1.
        -13    1    4    4    0    0  0.28344592209E+02  0.78620384485E+02 -0.11579858712E+03  0.14280719010E+03  0.00000000000E+00 0.  1.
         14    1    4    4    0    0  0.19618713752E+02  0.80642128795E+02 -0.31877119976E+03  0.32939812486E+03  0.00000000000E+00 0. -1.
         -5    1    5    5    0  502 -0.14819533325E+02  0.53365970045E+01  0.81969986783E+01  0.18367869307E+02  0.47000000000E+01 0.  1.
         13    1    6    6    0    0  0.24376459182E+02 -0.15724117572E+02 -0.65972406280E+02  0.72068148485E+02  0.00000000000E+00 0. -1.
        -14    1    6    6    0    0 -0.13274761418E+02 -0.18237908531E+03 -0.29464392595E+03  0.34677571015E+03  0.00000000000E+00 0.  1.
</event>
<event>
12    1  0.8052519E-002  0.1924547E+03  0.7818608E-02  0.1157789E+00
         21   -1    0    0  503  502  0.00000000000E+00  0.00000000000E+00  0.13783890238E+03  0.13783890238E+03  0.00000000000E+00 0.  1.
         21   -1    0    0  501  503 -0.00000000000E+00 -0.00000000000E+00 -0.34350873336E+03  0.34350873336E+03  0.00000000000E+00 0.  1.
          6    2    1    2  501    0  0.88299999949E+02 -0.26521167650E+01 -0.22330499369E+03  0.29479474418E+03  0.17098215483E+03 0.  0.
         24    2    3    3    0    0  0.73584953863E+02 -0.55522445968E+01 -0.48016388621E+02  0.11880290235E+03  0.79768309337E+02 0.  0.
         -6    2    1    2    0  502 -0.88299999949E+02  0.26521167650E+01  0.17635162719E+02  0.18655289157E+03  0.16336174177E+03 0.  0.
        -24    2    5    5    0    0 -0.88186857936E+02  0.23503925482E+02 -0.38201462940E+02  0.12676468627E+03  0.79250094562E+02 0.  0.
          5    1    3    3  501    0  0.14715046085E+02  0.29001278318E+01 -0.17528860507E+03  0.17599184183E+03  0.47000000000E+01 0. -1.
        -11    1    4    4    0    0  0.73907041118E+02 -0.27301849265E+02 -0.54852166549E+02  0.96002093077E+02  0.00000000000E+00 0.  1.
         12    1    4    4    0    0 -0.32208725450E+00  0.21749604668E+02  0.68357779285E+01  0.22800809268E+02  0.00000000000E+00 0. -1.
         -5    1    5    5    0  502 -0.11314201232E+00 -0.20851808717E+02  0.55836625658E+02  0.59788205298E+02  0.47000000000E+01 0.  1.
         11    1    6    6    0    0  0.12798874820E+02 -0.24566157885E+01  0.49204574123E+01  0.13930436423E+02  0.00000000000E+00 0. -1.
        -12    1    6    6    0    0 -0.10098573276E+03  0.25960541271E+02 -0.43121920352E+02  0.11283424985E+03  0.00000000000E+00 0.  1.
</event>
<event>
12    1  0.8052519E-002  0.1954928E+03  0.7818608E-02  0.1153918E+00
         21   -1    0    0  501  502  0.00000000000E+00  0.00000000000E+00  0.10098874964E+03  0.10098874964E+03  0.00000000000E+00 0. -1.
         21   -1    0    0  502  503 -0.00000000000E+00 -0.00000000000E+00 -0.37917818231E+03  0.37917818231E+03  0.00000000000E+00 0. -1.
         -6    2    1    2    0  503  0.93915813893E+02 -0.19039454721E+01 -0.11526363023E+03  0.22568263634E+03  0.16977379887E+03 0.  0.
        -24    2    3    3    0    0  0.49917456279E+02  0.61361620665E+02 -0.91146495069E+02  0.14479930345E+03  0.80013460015E+02 0.  0.
          6    2    1    2  501    0 -0.93915813893E+02  0.19039454721E+01 -0.16292580245E+03  0.25448429561E+03  0.17144571882E+03 0.  0.
         24    2    5    5    0    0  0.53435917270E+01  0.27874067947E+02 -0.10828304816E+03  0.13814514716E+03  0.80952736397E+02 0.  0.
          5    1    5    5  501    0 -0.99259405620E+02 -0.25970122475E+02 -0.54642754289E+02  0.11633914845E+03  0.47000000000E+01 0. -1.
        -11    1    6    6    0    0  0.32345215099E+02 -0.13340233001E+02 -0.58067207865E+02  0.67793623487E+02  0.00000000000E+00 0.  1.
         12    1    6    6    0    0 -0.27001623372E+02  0.41214300948E+02 -0.50215840292E+02  0.70351523676E+02  0.00000000000E+00 0. -1.
         -5    1    3    3    0  503  0.43998357615E+02 -0.63265566137E+02 -0.24117135156E+02  0.80883332891E+02  0.47000000000E+01 0.  1.
         13    1    4    4    0    0  0.44123523118E+02  0.27044212800E+02 -0.96582775434E+02  0.10957420887E+03  0.00000000000E+00 0. -1.
        -14    1    4    4    0    0  0.57939331602E+01  0.34317407864E+02  0.54362803647E+01  0.35225094580E+02  0.00000000000E+00 0.  1.
</event>
<event>
12    1  0.8052519E-002  0.3175049E+03  0.7818608E-02  0.1076820E+00
         21   -1    0    0  503  502  0.00000000000E+00  0.00000000000E+00  0.19576007741E+04  0.19576007741E+04  0.00000000000E+00 0. -1.
         21   -1    0    0  501  503 -0.00000000000E+00 -0.00000000000E+00 -0.68370136275E+02  0.68370136275E+02  0.00000000000E+00 0.  1.
          6    2    1    2  501    0  0.53539332757E+02 -0.26148848093E+03  0.44087490481E+03  0.54322222014E+03  0.17168870946E+03 0.  0.
         24    2    3    3    0    0  0.57068991011E+02 -0.71475650231E+02  0.12132191171E+03  0.17139761133E+03  0.79325258263E+02 0.  0.
         -6    2    1    2    0  502 -0.53539332757E+02  0.26148848093E+03  0.14483557330E+04  0.14827486902E+04  0.17194959498E+03 0.  0.
        -24    2    5    5    0    0 -0.94022717313E+02  0.12102006379E+03  0.80914153766E+03  0.82701462967E+03  0.75875177146E+02 0.  0.
          5    1    3    3  501    0 -0.35296582537E+01 -0.19001283070E+03  0.31955299311E+03  0.37182460881E+03  0.47000000000E+01 0. -1.
        -13    1    4    4    0    0 -0.12216226303E+02 -0.45129943578E+02  0.42275147370E+02  0.63032817465E+02  0.00000000000E+00 0.  1.
         14    1    4    4    0    0  0.69285217314E+02 -0.26345706653E+02  0.79046764336E+02  0.10836479386E+03  0.00000000000E+00 0. -1.
         -5    1    5    5    0  502  0.40483384555E+02  0.14046841714E+03  0.63921419532E+03  0.65573406053E+03  0.47000000000E+01 0.  1.
         11    1    6    6    0    0 -0.40478151339E+02  0.10548891760E+02  0.31909392747E+03  0.32182401154E+03  0.00000000000E+00 0. -1.
        -12    1    6    6    0    0 -0.53544565973E+02  0.11047117203E+03  0.49004761019E+03  0.50519061813E+03  0.00000000000E+00 0.  1.
</event>
<event>
12    1  0.8052519E-002  0.2231701E+03  0.7818608E-02  0.1131664E+00
         21   -1    0    0  501  502  0.00000000000E+00  0.00000000000E+00  0.18060995508E+03  0.18060995508E+03  0.00000000000E+00 0.  1.
         21   -1    0    0  502  503 -0.00000000000E+00 -0.00000000000E+00 -0.27626804014E+03  0.27626804014E+03  0.00000000000E+00 0. -1.
         -6    2    1    2    0  503  0.63113404710E+02  0.12577420156E+03 -0.31900114440E+02  0.22477894593E+03  0.17235285202E+03 0.  0.
        -24    2    3    3    0    0  0.18167134869E+02  0.63323331545E+02  0.48084300518E+02  0.11369395606E+03  0.79210646889E+02 0.  0.
          6    2    1    2  501    0 -0.63113404710E+02 -0.12577420156E+03 -0.63757970616E+02  0.23209904929E+03  0.17321211919E+03 0.  0.
         24    2    5    5    0    0 -0.67120923742E+02 -0.12148420086E+03  0.98377537264E+01  0.15812009988E+03  0.75110286408E+02 0.  0.
          5    1    5    5  501    0  0.40075190311E+01 -0.42900006924E+01 -0.73595724342E+02  0.73978949413E+02  0.47000000000E+01 0. -1.
        -13    1    6    6    0    0 -0.30567606114E+02 -0.38663198252E+02 -0.31611554905E+02  0.58553495593E+02  0.00000000000E+00 0.  1.
         14    1    6    6    0    0 -0.36553317627E+02 -0.82821002612E+02  0.41449308632E+02  0.99566604287E+02  0.00000000000E+00 0. -1.
         -5    1    3    3    0  503  0.44946269841E+02  0.62450870012E+02 -0.79984414958E+02  0.11108498987E+03  0.47000000000E+01 0.  1.
         11    1    4    4    0    0 -0.12811041629E+01  0.71424457092E+02  0.12763725384E+02  0.72567258350E+02  0.00000000000E+00 0. -1.
        -12    1    4    4    0    0  0.19448239032E+02 -0.81011255476E+01  0.35320575133E+02  0.41126697708E+02  0.00000000000E+00 0.  1.
</event>
<event>
12    1  0.8052519E-002  0.1900410E+03  0.7818608E-02  0.1158662E+00
         21   -1    0    0  501  502  0.00000000000E+00  0.00000000000E+00  0.63244241390E+03  0.63244241390E+03  0.00000000000E+00 0.  1.
         21   -1    0    0  502  503 -0.00000000000E+00 -0.00000000000E+00 -0.43210019338E+03  0.43210019338E+03  0.00000000000E+00 0. -1.
         -6    2    1    2    0  503 -0.17672858735E+02  0.76360395989E+02 -0.39585452292E+03  0.43910861618E+03  0.17312519596E+03 0.  0.
        -24    2    3    3    0    0 -0.50466570691E+02  0.23680980010E+02 -0.34552061572E+03  0.35907024647E+03  0.80245139672E+02 0.  0.
          6    2    1    2  501    0  0.17672858735E+02 -0.76360395989E+02  0.59619674345E+03  0.62543399109E+03  0.17197057976E+03 0.  0.
         24    2    5    5    0    0  0.71858046451E+02 -0.71789197076E+02  0.46389735839E+03  0.48231813692E+03  0.84337171097E+02 0.  0.
          5    1    5    5  501    0 -0.54185187716E+02 -0.45711989129E+01  0.13229938506E+03  0.14311585417E+03  0.47000000000E+01 0. -1.
        -11    1    6    6    0    0  0.58692856821E+02 -0.43795072210E+02  0.43093448127E+03  0.43711255637E+03  0.00000000000E+00 0.  1.
         12    1    6    6    0    0  0.13165189630E+02 -0.27994124866E+02  0.32962877122E+02  0.45205580553E+02  0.00000000000E+00 0. -1.
         -5    1    3    3    0  503  0.32793711956E+02  0.52679415980E+02 -0.50333907203E+02  0.80038369712E+02  0.47000000000E+01 0.  1.
         11    1    4    4    0    0 -0.38286677349E+02  0.46867885446E+02 -0.14914283385E+03  0.16095357479E+03  0.00000000000E+00 0. -1.
        -12    1    4    4    0    0 -0.12179893342E+02 -0.23186905437E+02 -0.19637778188E+03  0.19811667169E+03  0.00000000000E+00 0.  1.
</event>
<event>
12    1  0.8052519E-002  0.2166690E+03  0.7818608E-02  0.1136960E+00
         21   -1    0    0  503  502  0.00000000000E+00  0.00000000000E+00  0.93170162899E+03  0.93170162899E+03  0.00000000000E+00 0. -1.
         21   -1    0    0  501  503 -0.00000000000E+00 -0.00000000000E+00 -0.60162204045E+02  0.60162204045E+02  0.00000000000E+00 0.  1.
          6    2    1    2  501    0  0.10837396598E+03  0.65433394753E+02  0.22646698224E+03  0.31137584992E+03  0.17216614132E+03 0.  0.
         24    2    3    3    0    0  0.12420437969E+03  0.30468910025E+00  0.15030399462E+03  0.20981187510E+03  0.77478457430E+02 0.  0.
         -6    2    1    2    0  502 -0.10837396598E+03 -0.65433394753E+02  0.64507244271E+03  0.68048798311E+03  0.17583797421E+03 0.  0.
        -24    2    5    5    0    0 -0.12619890731E+03 -0.84121553236E+02  0.62293267336E+03  0.64614798912E+03  0.80371066833E+02 0.  0.
          5    1    3    3  501    0 -0.15830413704E+02  0.65128705653E+02  0.76162987621E+02  0.10156397482E+03  0.47000000000E+01 0. -1.
        -11    1    4    4    0    0  0.43920009522E+02 -0.16287548594E+02  0.10908669588E+02  0.48096263345E+02  0.00000000000E+00 0.  1.
         12    1    4    4    0    0  0.80284370164E+02  0.16592237694E+02  0.13939532503E+03  0.16171561175E+03  0.00000000000E+00 0. -1.
         -5    1    5    5    0  502  0.17824941326E+02  0.18688158483E+02  0.22139769350E+02  0.34339993996E+02  0.47000000000E+01 0.  1.
         13    1    6    6    0    0 -0.69010698464E+02 -0.90493816261E+02  0.39540449875E+03  0.41145634631E+03  0.00000000000E+00 0. -1.
        -14    1    6    6    0    0 -0.57188208843E+02  0.63722630244E+01  0.22752817460E+03  0.23469164281E+03  0.00000000000E+00 0.  1.
</event>
<event>
12    1  0.8052519E-002  0.2603019E+03  0.7818608E-02  0.1107001E+00
         21   -1    0    0  503  502  0.00000000000E+00  0.00000000000E+00  0.29391393828E+03  0.29391393828E+03  0.00000000000E+00 0. -1.
         21   -1    0    0  501  503 -0.00000000000E+00 -0.00000000000E+00 -0.31909116554E+03  0.31909116554E+03  0.00000000000E+00 0.  1.
          6    2    1    2  501    0 -0.10178171103E+03 -0.16714115563E+03 -0.17426231242E+03  0.31303271765E+03  0.17124966039E+03 0.  0.
         24    2    3    3    0    0 -0.99161068663E+02 -0.19281133103E+03 -0.16918950743E+03  0.28631850754E+03  0.79649679338E+02 0.  0.
         -6    2    1    2    0  502  0.10178171103E+03  0.16714115563E+03  0.14908508516E+03  0.29997238616E+03  0.17164319746E+03 0.  0.
        -24    2    5    5    0    0  0.42884860276E+02  0.14748348119E+03  0.45253144570E+02  0.17890040311E+03  0.79793600460E+02 0.  0.
          5    1    3    3  501    0 -0.26206423656E+01  0.25670175403E+02 -0.50728049850E+01  0.26714210115E+02  0.47000000000E+01 0. -1.
        -11    1    4    4    0    0 -0.91102817305E+02 -0.16751768488E+03 -0.17536300493E+03  0.25906385616E+03  0.00000000000E+00 0.  1.
         12    1    4    4    0    0 -0.80582513578E+01 -0.25293646151E+02  0.61734974932E+01  0.27254651380E+02  0.00000000000E+00 0. -1.
         -5    1    5    5    0  502  0.58896850753E+02  0.19657674442E+02  0.10383194059E+03  0.12107198305E+03  0.47000000000E+01 0.  1.
         13    1    6    6    0    0 -0.19603918714E+02  0.70036433560E+02  0.10442354529E+02  0.73474202431E+02  0.00000000000E+00 0. -1.
        -14    1    6    6    0    0  0.62488778989E+02  0.77447047630E+02  0.34810790041E+02  0.10542620068E+03  0.00000000000E+00 0.  1.
</event>
<event>
12    1  0.8052519E-002  0.2025447E+03  0.7818608E-02  0.1147623E+00
         21   -1    0    0  501  502  0.00000000000E+00  0.00000000000E+00  0.11260909083E+03  0.11260909083E+03  0.00000000000E+00 0.  1.
         21   -1    0    0  502  503 -0.00000000000E+00 -0.00000000000E+00 -0.37719429023E+03  0.37719429023E+03  0.00000000000E+00 0.  1.
         -6    2    1    2    0  503  0.72770861788E+02 -0.76839182032E+02 -0.86798801497E+02  0.22029944224E+03  0.17262083909E+03 0.  0.
        -24    2    3    3    0    0 -0.10887355066E+02  0.78052033711E+01 -0.51622626138E+02  0.96110785187E+02  0.79955811545E+02 0.  0.
          6    2    1    2  501    0 -0.72770861788E+02  0.76839182032E+02 -0.17778639790E+03  0.26950393882E+03  0.17269774620E+03 0.  0.
         24    2    5    5    0    0 -0.63182002580E+02  0.94261568050E+02 -0.19788725176E+03  0.24084002280E+03  0.77248582590E+02 0.  0.
          5    1    5    5  501    0 -0.95888592073E+01 -0.17422386018E+02  0.20100853865E+02  0.28663916019E+02  0.47000000000E+01 0. -1.
        -11    1    6    6    0    0 -0.15596281580E+02  0.72511632995E+02 -0.67264490854E+02  0.10012838083E+03  0.00000000000E+00 0.  1.
         12    1    6    6    0    0 -0.47585721000E+02  0.21749935056E+02 -0.13062276091E+03  0.14071164197E+03  0.00000000000E+00 0. -1.
         -5    1    3    3    0  503  0.83658216854E+02 -0.84644385403E+02 -0.35176175359E+02  0.12418865705E+03  0.47000000000E+01 0.  1.
         11    1    4    4    0    0 -0.15783207408E+02 -0.34229373659E+02 -0.16630002426E+02  0.41198502859E+02  0.00000000000E+00 0. -1.
        -12    1    4    4    0    0  0.48958523412E+01  0.42034577030E+02 -0.34992623711E+02  0.54912282328E+02  0.00000000000E+00 0.  1.
</event>
<event>
12    1  0.8052519E-002  0.2428735E+03  0.7818608E-02  0.1118109E+00
         21   -1    0    0  501  502  0.00000000000E+00  0.00000000000E+00  0.15869127350E+03  0.15869127350E+03  0.00000000000E+00 0.  1.
         21   -1    0    0  502  503 -0.00000000000E+00 -0.00000000000E+00 -0.39170788152E+03  0.39170788152E+03  0.00000000000E+00 0.  1.
         -6    2    1    2    0  503  0.66175526836E+02  0.15846427262E+03 -0.18202998854E+03  0.30351683598E+03  0.17174814975E+03 0.  0.
        -24    2    3    3    0    0  0.47456750858E+02  0.18610817127E+03 -0.14307075767E+03  0.25199509904E+03  0.78382993210E+02 0.  0.
          6    2    1    2  501    0 -0.66175526836E+02 -0.15846427262E+03 -0.50986619478E+02  0.24688231905E+03  0.16988560282E+03 0.  0.
         24    2    5    5    0    0 -0.63461120705E+02 -0.18640726944E+03 -0.42285811296E+02  0.21711701820E+03  0.81097014836E+02 0.  0.
          5    1    5    5  501    0 -0.27144061308E+01  0.27942996815E+02 -0.87008081820E+01  0.29765300849E+02  0.47000000000E+01 0. -1.
        -13    1    6    6    0    0  0.19258313260E+02 -0.44593522995E+02 -0.56346588945E+01  0.48900044004E+02  0.00000000000E+00 0.  1.
         14    1    6    6    0    0 -0.82719433965E+02 -0.14181374644E+03 -0.36651152401E+02  0.16821697419E+03  0.00000000000E+00 0. -1.
         -5    1    3    3    0  503  0.18718775977E+02 -0.27643898652E+02 -0.38959230868E+02  0.51521736933E+02  0.47000000000E+01 0.  1.
         13    1    4    4    0    0 -0.15173575811E+02  0.70898172511E+02 -0.28644640429E+02  0.77957063141E+02  0.00000000000E+00 0. -1.
        -14    1    4    4    0    0  0.62630326669E+02  0.11520999876E+03 -0.11442611724E+03  0.17403803590E+03  0.00000000000E+00 0.  1.
</event>
<event>
12    1  0.8052519E-002  0.1824917E+03  0.7818608E-02  0.1165982E+00
         21   -1    0    0  501  502  0.00000000000E+00  0.00000000000E+00  0.26888231377E+03  0.26888231377E+03  0.00000000000E+00 0. -1.
         21   -1    0    0  502  503 -0.00000000000E+00 -0.00000000000E+00 -0.33728573973E+03  0.33728573973E+03  0.00000000000E+00 0. -1.
         -6    2    1    2    0  503  0.57439666041E+02 -0.26142805465E+01  0.20771757809E+03  0.27649558437E+03  0.17319661148E+03 0.  0.
        -24    2    3    3    0    0  0.10547066766E+03 -0.96252031046E+01  0.15352748152E+03  0.20359300061E+03  0.81625461985E+02 0.  0.
          6    2    1    2  501    0 -0.57439666041E+02  0.26142805465E+01 -0.27612100405E+03  0.32967246913E+03  0.17068971359E+03 0.  0.
         24    2    5    5    0    0 -0.41707432679E+02  0.65877174981E+02 -0.20283071376E+03  0.23147239973E+03  0.79748738350E+02 0.  0.
          5    1    5    5  501    0 -0.15732233362E+02 -0.63262894434E+02 -0.73290290291E+02  0.98200069398E+02  0.47000000000E+01 0. -1.
        -11    1    6    6    0    0  0.11902508809E+02  0.41992877647E+02 -0.43269767987E+02  0.61460103406E+02  0.00000000000E+00 0.  1.
         12    1    6    6    0    0 -0.53609941488E+02  0.23884297334E+02 -0.15956094578E+03  0.17001229633E+03  0.00000000000E+00 0. -1.
         -5    1    3    3    0  503 -0.48031001621E+02  0.70109225581E+01  0.54190096572E+02  0.72902583756E+02  0.47000000000E+01 0.  1.
         11    1    4    4    0    0  0.11564271611E+03 -0.14199019852E+02  0.15315309174E+03  0.19243367549E+03  0.00000000000E+00 0. -1.
        -12    1    4    4    0    0 -0.10172048452E+02  0.45738167473E+01  0.37438977985E+00  0.11159325117E+02  0.00000000000E+00 0.  1.
</event>
<event>
12    1  0.8052519E-002  0.2789087E+03  0.7818608E-02  0.1096382E+00
         21   -1    0    0  501  502  0.00000000000E+00  0.00000000000E+00  0.41367133751E+02  0.41367133751E+02  0.00000000000E+00 0.  1.
         21   -1    0    0  502  503 -0.00000000000E+00 -0.00000000000E+00 -0.19386621652E+04  0.19386621652E+04  0.00000000000E+00 0. -1.
         -6    2    1    2    0  503  0.21719383830E+03  0.29340180147E+02 -0.11257591716E+04  0.11596284082E+04  0.17137772074E+03 0.  0.
        -24    2    3    3    0    0  0.17817297496E+03 -0.96975489694E+01 -0.10357915414E+04  0.10539740824E+04  0.78470362544E+02 0.  0.
          6    2    1    2  501    0 -0.21719383830E+03 -0.29340180147E+02 -0.77153585987E+03  0.82040089074E+03  0.17249935911E+03 0.  0.
         24    2    5    5    0    0 -0.95563898046E+02 -0.15928530714E+02 -0.19608857347E+03  0.23206817524E+03  0.77580491178E+02 0.  0.
          5    1    5    5  501    0 -0.12162994026E+03 -0.13411649433E+02 -0.57544728640E+03  0.58833271550E+03  0.47000000000E+01 0. -1.
        -11    1    6    6    0    0 -0.64108939860E+02 -0.47283137376E+02 -0.12883220522E+03  0.15147075081E+03  0.00000000000E+00 0.  1.
         12    1    6    6    0    0 -0.31454958186E+02  0.31354606662E+02 -0.67256368253E+02  0.80597424425E+02  0.00000000000E+00 0. -1.
         -5    1    3    3    0  503  0.39020863340E+02  0.39037729116E+02 -0.89967630192E+02  0.10565432576E+03  0.47000000000E+01 0.  1.
         11    1    4    4    0    0  0.80105693134E+02  0.20098686687E+02 -0.63218784948E+03  0.63755968842E+03  0.00000000000E+00 0. -1.
        -12    1    4    4    0    0  0.98067281828E+02 -0.29796235656E+02 -0.40360369189E+03  0.41641439400E+03  0.00000000000E+00 0.  1.
</event>
<event>
12    1  0.8052519E-002  0.4540299E+03  0.7818608E-02  0.1026543E+00
         21   -1    0    0  503  502  0.00000000000E+00  0.00000000000E+00  0.63858415309E+03  0.63858415309E+03  0.00000000000E+00 0.  1.
         21   -1    0    0  501  503 -0.00000000000E+00 -0.00000000000E+00 -0.52733551137E+03  0.52733551137E+03  0.00000000000E+00 0. -1.
          6    2    1    2  501    0 -0.37108791230E+03  0.19837996893E+03 -0.30757045855E+03  0.54822025359E+03  0.16995590234E+03 0.  0.
         24    2    3    3    0    0 -0.16571778389E+03  0.32537946668E+02 -0.11053701559E+03  0.21878932966E+03  0.84434809693E+02 0.  0.
         -6    2    1    2    0  502  0.37108791230E+03 -0.19837996893E+03  0.41881910027E+03  0.61769941087E+03  0.17053525356E+03 0.  0.
        -24    2    5    5    0    0  0.20895738784E+03 -0.17058684450E+03  0.20752261915E+03  0.34988033451E+03  0.81163720773E+02 0.  0.
          5    1    3    3  501    0 -0.20537012841E+03  0.16584202226E+03 -0.19703344297E+03  0.32943092393E+03  0.47000000000E+01 0. -1.
        -11    1    4    4    0    0 -0.29493352566E+02 -0.19790064936E+01  0.12419511936E+02  0.32062728970E+02  0.00000000000E+00 0.  1.
         12    1    4    4    0    0 -0.13622443133E+03  0.34516953161E+02 -0.12295652752E+03  0.18672660069E+03  0.00000000000E+00 0. -1.
         -5    1    5    5    0  502  0.16213052447E+03 -0.27793124435E+02  0.21129648111E+03  0.26781907636E+03  0.47000000000E+01 0.  1.
         13    1    6    6    0    0 -0.58180470531E+01 -0.10273605817E+02  0.18398255634E+02  0.21860751551E+02  0.00000000000E+00 0. -1.
        -14    1    6    6    0    0  0.21477543489E+03 -0.16031323868E+03  0.18912436352E+03  0.32801958296E+03  0.00000000000E+00 0.  1.
</event>
<event>
12    1  0.8052519E-002  0.2207069E+03  0.7818608E-02  0.1133776E+00
         21   -1    0    0  503  502  0.00000000000E+00  0.00000000000E+00  0.61872681390E+02  0.61872681390E+02  0.00000000000E+00 0. -1.
         21   -1    0    0  501  503 -0.00000000000E+00 -0.00000000000E+00 -0.78802937217E+03  0.78802937217E+03  0.00000000000E+00 0. -1.
          6    2    1    2  501    0 -0.12897024604E+03 -0.43094897091E+02 -0.32018347887E+03  0.38888170837E+03  0.17384196398E+03 0.  0.
         24    2    3    3    0    0  0.99490092145E+00 -0.24480985646E+02 -0.77163751184E+02  0.11262440951E+03  0.78292430257E+02 0.  0.
         -6    2    1    2    0  502  0.12897024604E+03  0.43094897091E+02 -0.40597321190E+03  0.46102034519E+03  0.17098250020E+03 0.  0.
        -24    2    5    5    0    0  0.68628528462E+02  0.32448374882E+02 -0.37844559081E+03  0.39368290212E+03  0.77475094482E+02 0.  0.
          5    1    3    3  501    0 -0.12996514696E+03 -0.18613911445E+02 -0.24301972769E+03  0.27625729885E+03  0.47000000000E+01 0. -1.
        -11    1    4    4    0    0  0.17662333976E+02  0.11207464004E+02 -0.69392021573E+02  0.72476326817E+02  0.00000000000E+00 0.  1.
         12    1    4    4    0    0 -0.16667433055E+02 -0.35688449651E+02 -0.77717296115E+01  0.40148082697E+02  0.00000000000E+00 0. -1.
         -5    1    5    5    0  502  0.60341717580E+02  0.10646522210E+02 -0.27527621089E+02  0.67337443065E+02  0.47000000000E+01 0.  1.
         13    1    6    6    0    0  0.48488397799E+02 -0.49749865127E+01 -0.92122507998E+02  0.10422299023E+03  0.00000000000E+00 0. -1.
        -14    1    6    6    0    0  0.20140130664E+02  0.37423361395E+02 -0.28632308281E+03  0.28945991189E+03  0.00000000000E+00 0.  1.
</event>
<event>
12    1  0.8052519E-002  0.1971302E+03  0.7818608E-02  0.1152387E+00
         21   -1    0    0  501  502  0.00000000000E+00  0.00000000000E+00  0.21800969222E+03  0.21800969222E+03  0.00000000000E+00 0.  1.
         21   -1    0    0  502  503 -0.00000000000E+00 -0.00000000000E+00 -0.38805762515E+03  0.38805762515E+03  0.00000000000E+00 0.  1.
         -6    2    1    2    0  503  0.60486779326E+02  0.78330354920E+02 -0.30838879400E+03  0.36601087804E+03  0.17048759368E+03 0.  0.
        -24    2    3    3    0    0  0.10681813833E+03  0.36618833276E+02 -0.19857816302E+03  0.23965063690E+03  0.72443683699E+02 0.  0.
          6    2    1    2  501    0 -0.60486779326E+02 -0.78330354920E+02  0.13834086107E+03  0.24005643933E+03  0.16939482060E+03 0.  0.
         24    2    5    5    0    0 -0.55231444698E+02 -0.52980197776E+02  0.16765261192E+03  0.20066712927E+03  0.79388189581E+02 0.  0.
          5    1    5    5  501    0 -0.52553346288E+01 -0.25350157143E+02 -0.29311750850E+02  0.39389310062E+02  0.47000000000E+01 0. -1.
        -11    1    6    6    0    0 -0.53284581739E+01  0.10701532536E+01  0.10176561102E+03  0.10191063379E+03  0.00000000000E+00 0.  1.
         12    1    6    6    0    0 -0.49902986524E+02 -0.54050351030E+02  0.65887000906E+02  0.98756495477E+02  0.00000000000E+00 0. -1.
         -5    1    3    3    0  503 -0.46331359006E+02  0.41711521643E+02 -0.10981063098E+03  0.12636024114E+03  0.47000000000E+01 0.  1.
         13    1    4    4    0    0  0.86530437499E+02  0.38390702394E+02 -0.95087300313E+02  0.13417509950E+03  0.00000000000E+00 0. -1.
        -14    1    4    4    0    0  0.20287700833E+02 -0.17718691179E+01 -0.10349086271E+03  0.10547553740E+03  0.00000000000E+00 0.  1.
</event>
<event>
12    1  0.8052519E-002  0.3400534E+03  0.7818608E-02  0.1067052E+00
         21   -1    0    0  503  502  0.00000000000E+00  0.00000000000E+00  0.11062265022E+04  0.11062265022E+04  0.00000000000E+00 0.  1.
         21   -1    0    0  501  503 -0.00000000000E+00 -0.00000000000E+00 -0.17971399906E+03  0.17971399906E+03  0.00000000000E+00 0. -1.
          6    2    1    2  501    0 -0.24362662103E+03 -0.16339833647E+03  0.46212688494E+02  0.34317916763E+03  0.17199820254E+03 0.  0.
         24    2    3    3    0    0 -0.75175908869E+02 -0.73191596514E+01  0.30611352048E+01  0.10946888027E+03  0.79177508338E+02 0.  0.
         -6    2    1    2    0  502  0.24362662103E+03  0.16339833647E+03  0.88029981468E+03  0.94276133366E+03  0.16678795425E+03 0.  0.
        -24    2    5    5    0    0  0.14009497297E+03  0.36149080685E+02  0.34524227188E+03  0.38310086574E+03  0.81490426128E+02 0.  0.
          5    1    3    3  501    0 -0.16845071217E+03 -0.15607917682E+03  0.43151553289E+02  0.23371028736E+03  0.47000000000E+01 0. -1.
        -11    1    4    4    0    0 -0.67490808933E+02  0.13151981462E+02  0.29789359908E+02  0.74935905083E+02  0.00000000000E+00 0.  1.
         12    1    4    4    0    0 -0.76850999355E+01 -0.20471141113E+02 -0.26728224703E+02  0.34532975187E+02  0.00000000000E+00 0. -1.
         -5    1    5    5    0  502  0.10353164806E+03  0.12724925579E+03  0.53505754280E+03  0.55966046792E+03  0.47000000000E+01 0.  1.
         11    1    6    6    0    0  0.44751492778E+02  0.18650667965E+02  0.40054009420E+02  0.62887734829E+02  0.00000000000E+00 0. -1.
        -12    1    6    6    0    0  0.95343480194E+02  0.17498412721E+02  0.30518826246E+03  0.32021313091E+03  0.00000000000E+00 0.  1.
</event>
<event>
12    1  0.8052519E-002  0.3745652E+03  0.7818608E-02  0.1053015E+00
         21   -1    0    0  501  502  0.00000000000E+00  0.00000000000E+00  0.65552149573E+03  0.65552149573E+03  0.00000000000E+00 0. -1.
         21   -1    0    0  502  503 -0.00000000000E+00 -0.00000000000E+00 -0.27953548037E+03  0.27953548037E+03  0.00000000000E+00 0.  1.
         -6    2    1    2    0  503 -0.29957960209E+03 -0.14362987187E+03 -0.39014086495E+02  0.37601833950E+03  0.17172715164E+03 0.  0.
        -24    2    3    3    0    0 -0.28284241172E+03 -0.76056347822E+02 -0.42051826286E+02  0.30617828969E+03  0.78691747173E+02 0.  0.
          6    2    1    2  501    0  0.29957960209E+03  0.14362987187E+03  0.41500010186E+03  0.55903863660E+03  0.17297871137E+03 0.  0.
         24    2    5    5    0    0  0.13088549634E+03  0.64895033561E+02  0.10388487107E+03  0.19644843691E+03  0.80358841435E+02 0.  0.
          5    1    5    5  501    0  0.16869410576E+03  0.78734838309E+02  0.31111523079E+03  0.36259019969E+03  0.47000000000E+01 0. -1.
        -11    1    6    6    0    0  0.13257473816E+03  0.59928124594E+02  0.68735940055E+02  0.16091013259E+03  0.00000000000E+00 0.  1.
         12    1    6    6    0    0 -0.16892418238E+01  0.49669089671E+01  0.35148931014E+02  0.35538304322E+02  0.00000000000E+00 0. -1.
         -5    1    3    3    0  503 -0.16737190370E+02 -0.67573524048E+02  0.30377397914E+01  0.69840049805E+02  0.47000000000E+01 0.  1.
         11    1    4    4    0    0 -0.17407115687E+03 -0.13080982150E+02 -0.30824590668E+01  0.17458917865E+03  0.00000000000E+00 0. -1.
        -12    1    4    4    0    0 -0.10877125485E+03 -0.62975365672E+02 -0.38969367220E+02  0.13158911104E+03  0.00000000000E+00 0.  1.
</event>
<event>
12    1  0.8052519E-002  0.1913560E+03  0.7818608E-02  0.1158012E+00
         21   -1    0    0  503  502  0.00000000000E+00  0.00000000000E+00  0.94987558736E+02  0.94987558736E+02  0.00000000000E+00 0.  1.
         21   -1    0    0  501  503 -0.00000000000E+00 -0.00000000000E+00 -0.37911456181E+03  0.37911456181E+03  0.00000000000E+00 0.  1.
          6    2    1    2  501    0  0.75419263772E+02 -0.11960083956E+02 -0.13517778806E+03  0.23428651583E+03  0.17545947726E+03 0.  0.
         24    2    3    3    0    0  0.11885896192E+03 -0.80240058874E+01 -0.92529499725E+02  0.17310264064E+03  0.84917479819E+02 0.  0.
         -6    2    1    2    0  502 -0.75419263772E+02  0.11960083956E+02 -0.14894921501E+03  0.23981560471E+03  0.17173976434E+03 0.  0.
        -24    2    5    5    0    0 -0.31658493629E+02 -0.19581722206E+01 -0.21591848555E+01  0.85938621992E+02  0.79841655878E+02 0.  0.
          5    1    3    3  501    0 -0.43439698144E+02 -0.39360780690E+01 -0.42648288333E+02  0.61183875189E+02  0.47000000000E+01 0. -1.
        -11    1    4    4    0    0  0.97790291668E+01 -0.28865796556E+02 -0.39903799005E+02  0.50211321405E+02  0.00000000000E+00 0.  1.
         12    1    4    4    0    0  0.10907993275E+03  0.20841790669E+02 -0.52625700720E+02  0.12289131923E+03  0.00000000000E+00 0. -1.
         -5    1    5    5    0  502 -0.43760770143E+02  0.13918256177E+02 -0.14679003016E+03  0.15387698272E+03  0.47000000000E+01 0.  1.
         11    1    6    6    0    0 -0.57215606739E+02 -0.11846161189E+02  0.25060163645E+00  0.58429615698E+02  0.00000000000E+00 0. -1.
        -12    1    6    6    0    0  0.25557113110E+02  0.98879889685E+01 -0.24097864919E+01  0.27509006294E+02  0.00000000000E+00 0.  1.
</event>
<event>
12    1  0.8052519E-002  0.1796329E+03  0.7818608E-02  0.1168381E+00
         21   -1    0    0  503  502  0.00000000000E+00  0.00000000000E+00  0.26857825069E+03  0.26857825069E+03  0.00000000000E+00 0. -1.
         21   -1    0    0  501  503 -0.00000000000E+00 -0.00000000000E+00 -0.15024711768E+03  0.15024711768E+03  0.00000000000E+00 0. -1.
          6    2    1    2  501    0 -0.11855510099E+02 -0.44353074705E+02 -0.35637772124E+02  0.18223625954E+03  0.17272016424E+03 0.  0.
         24    2    3    3    0    0  0.53426331412E+02  0.63051831040E+01 -0.14270959112E+02  0.96757556852E+02  0.79146928632E+02 0.  0.
         -6    2    1    2    0  502  0.11855510099E+02  0.44353074705E+02  0.15396890513E+03  0.23658910883E+03  0.17366702138E+03 0.  0.
        -24    2    5    5    0    0 -0.50239885631E+02 -0.62176192859E+01  0.95970172034E+02  0.13759831985E+03  0.84618667018E+02 0.  0.
          5    1    3    3  501    0 -0.65281841512E+02 -0.50658257809E+02 -0.21366813013E+02  0.85478702691E+02  0.47000000000E+01 0. -1.
        -11    1    4    4    0    0 -0.98417215824E+01  0.12996590202E+02  0.18940052542E+02  0.24989926588E+02  0.00000000000E+00 0.  1.
         12    1    4    4    0    0  0.63268052995E+02 -0.66914070975E+01 -0.33211011653E+02  0.71767630264E+02  0.00000000000E+00 0. -1.
         -5    1    5    5    0  502  0.62095395731E+02  0.50570693990E+02  0.57998733097E+02  0.98990788978E+02  0.47000000000E+01 0.  1.
         13    1    6    6    0    0 -0.29461510353E+01  0.35373944513E+02  0.37998143582E+02  0.51998602596E+02  0.00000000000E+00 0. -1.
        -14    1    6    6    0    0 -0.47293734596E+02 -0.41591563799E+02  0.57972028452E+02  0.85599717255E+02  0.00000000000E+00 0.  1.
</event>
<event>
12    1  0.8052519E-002  0.2003590E+03  0.7818608E-02  0.1149596E+00
         21   -1    0    0  501  502  0.00000000000E+00  0.00000000000E+00  0.19704689628E+03  0.19704689628E+03  0.00000000000E+00 0.  1.
         21   -1    0    0  502  503 -0.00000000000E+00 -0.00000000000E+00 -0.36309240903E+03  0.36309240903E+03  0.00000000000E+00 0. -1.
         -6    2    1    2    0  503 -0.76955766036E+01  0.10229141389E+03 -0.26892985224E+03  0.33490854066E+03  0.17122415112E+03 0.  0.
        -24    2    3    3    0    0 -0.70588795809E+02  0.73126602525E+02 -0.18281701841E+03  0.22425749731E+03  0.80864607762E+02 0.  0.
          6    2    1    2  501    0  0.76955766036E+01 -0.10229141389E+03  0.10288433950E+03  0.22523076465E+03  0.17210739315E+03 0.  0.
         24    2    5    5    0    0 -0.28847115905E+02 -0.95697799964E+02  0.19856399226E+02  0.13415621834E+03  0.87254738067E+02 0.  0.
          5    1    5    5  501    0  0.36542692509E+02 -0.65936139239E+01  0.83027940269E+02  0.91074546311E+02  0.47000000000E+01 0. -1.
        -11    1    6    6    0    0 -0.68066740477E+00 -0.24661006940E+02  0.46983756377E+02  0.53066957089E+02  0.00000000000E+00 0.  1.
         12    1    6    6    0    0 -0.28166448500E+02 -0.71036793024E+02 -0.27127357151E+02  0.81089261251E+02  0.00000000000E+00 0. -1.
         -5    1    3    3    0  503  0.62893219206E+02  0.29164811364E+02 -0.86112833836E+02  0.11065104335E+03  0.47000000000E+01 0.  1.
         13    1    4    4    0    0 -0.39823548978E+02  0.52214854305E+02 -0.17406810392E+03  0.18604303498E+03  0.00000000000E+00 0. -1.
        -14    1    4    4    0    0 -0.30765246831E+02  0.20911748220E+02 -0.87489144899E+01  0.38214462327E+02  0.00000000000E+00 0.  1.
</event>
<event>
12    1  0.8052519E-002  0.2105194E+03  0.7818608E-02  0.1142662E+00
         21   -1    0    0  503  502  0.00000000000E+00  0.00000000000E+00  0.12925315363E+04  0.12925315363E+04  0.00000000000E+00 0. -1.
         21   -1    0    0  501  503 -0.00000000000E+00 -0.00000000000E+00 -0.14142802242E+03  0.14142802242E+03  0.00000000000E+00 0. -1.
          6    2    1    2  501    0  0.10605815930E+03  0.24580174692E+02 -0.49540770854E+02  0.21626999768E+03  0.18018297860E+03 0.  0.
         24    2    3    3    0    0  0.10487466603E+03 -0.37275419533E+02 -0.12264268477E+02  0.14388807436E+03  0.90361569195E+02 0.  0.
         -6    2    1    2    0  502 -0.10605815930E+03 -0.24580174692E+02  0.12006442848E+04  0.12176895611E+04  0.17137284054E+03 0.  0.
        -24    2    5    5    0    0 -0.12430844665E+03  0.61481275582E+01  0.68315097885E+03  0.69894230738E+03  0.79590827148E+02 0.  0.
          5    1    3    3  501    0  0.11834932740E+01  0.61855594225E+02 -0.37276502376E+02  0.72381923314E+02  0.47000000000E+01 0. -1.
        -11    1    4    4    0    0 -0.29156939552E+00  0.22003249781E+02 -0.68405670701E+01  0.23043900961E+02  0.00000000000E+00 0.  1.
         12    1    4    4    0    0  0.10516623542E+03 -0.59278669314E+02 -0.54237014074E+01  0.12084417340E+03  0.00000000000E+00 0. -1.
         -5    1    5    5    0  502  0.18250287348E+02 -0.30728302250E+02  0.51749330592E+03  0.51874725370E+03  0.47000000000E+01 0.  1.
         13    1    6    6    0    0 -0.40727589687E+01  0.72881251427E+01  0.22873144360E+03  0.22888376400E+03  0.00000000000E+00 0. -1.
        -14    1    6    6    0    0 -0.12023568768E+03 -0.11399975845E+01  0.45441953525E+03  0.47005854338E+03  0.00000000000E+00 0.  1.
</event>
<event>
12    1  0.8052519E-002  0.1951747E+03  0.7818608E-02  0.1153987E+00
         21   -1    0    0  501  502  0.00000000000E+00  0.00000000000E+00  0.12133733322E+03  0.12133733322E+03  0.00000000000E+00 0.  1.
         21   -1    0    0  502  503 -0.00000000000E+00 -0.00000000000E+00 -0.31392721759E+03  0.31392721759E+03  0.00000000000E+00 0.  1.
         -6    2    1    2    0  503 -0.39708588332E+02 -0.83133831585E+02 -0.10719109738E+03  0.22222439097E+03  0.17148102706E+03 0.  0.
        -24    2    3    3    0    0 -0.44364544330E+02 -0.10765629258E+03 -0.12718629663E+03  0.18989906014E+03  0.79543754413E+02 0.  0.
          6    2    1    2  501    0  0.39708588332E+02  0.83133831585E+02 -0.85398786987E+02  0.21304015985E+03  0.17206147433E+03 0.  0.
         24    2    5    5    0    0 -0.23103217914E+02  0.96412329472E+02 -0.37416149237E+02  0.13275276959E+03  0.79963952235E+02 0.  0.
          5    1    5    5  501    0  0.62811806246E+02 -0.13278497888E+02 -0.47982637750E+02  0.80287390264E+02  0.47000000000E+01 0. -1.
        -11    1    6    6    0    0  0.19861600972E+02  0.53901914659E+02  0.68270609954E+01  0.57849013465E+02  0.00000000000E+00 0.  1.
         12    1    6    6    0    0 -0.42964818886E+02  0.42510414814E+02 -0.44243210232E+02  0.74903756122E+02  0.00000000000E+00 0. -1.
         -5    1    3    3    0  503  0.46559559981E+01  0.24522460999E+02  0.19995199250E+02  0.32325330823E+02  0.47000000000E+01 0.  1.
         11    1    4    4    0    0  0.20914545717E+02 -0.19012091229E+02 -0.42350738536E+02  0.50916234051E+02  0.00000000000E+00 0. -1.
        -12    1    4    4    0    0 -0.65279090047E+02 -0.88644201355E+02 -0.84835558095E+02  0.13898282609E+03  0.00000000000E+00 0.  1.
</event>
<event>
12    1  0.8052519E-002  0.2072572E+03  0.7818608E-02  0.1143885E+00
         21   -1    0    0  501  502  0.00000000000E+00  0.00000000000E+00  0.57516480277E+02  0.57516480277E+02  0.00000000000E+00 0.  1.
         21   -1    0    0  502  503 -0.00000000000E+00 -0.00000000000E+00 -0.86680977848E+03  0.86680977848E+03  0.00000000000E+00 0. -1.
         -6    2    1    2    0  503 -0.11498128497E+03 -0.12522278957E+02 -0.57768820670E+03  0.61352656896E+03  0.17121239237E+03 0.  0.
        -24    2    3    3    0    0 -0.13770041008E+03 -0.10549758159E+02 -0.56383610127E+03  0.58643375979E+03  0.83190775877E+02 0.  0.
          6    2    1    2  501    0  0.11498128497E+03  0.12522278957E+02 -0.23160509150E+03  0.31079968979E+03  0.17198263110E+03 0.  0.
         24    2    5    5    0    0  0.14651490732E+03  0.82651563475E+01 -0.22009567774E+03  0.27663759038E+03  0.80940213563E+02 0.  0.
          5    1    5    5  501    0 -0.31533622349E+02  0.42571226099E+01 -0.11509413759E+02  0.34162099415E+02  0.47000000000E+01 0. -1.
        -11    1    6    6    0    0  0.12976208874E+03 -0.17681093812E+02 -0.14471319146E+03  0.19517358565E+03  0.00000000000E+00 0.  1.
         12    1    6    6    0    0  0.16752818576E+02  0.25946250159E+02 -0.75382486285E+02  0.81464004726E+02  0.00000000000E+00 0. -1.
         -5    1    3    3    0  503  0.22719125113E+02 -0.19725207987E+01 -0.13852105434E+02  0.27092809178E+02  0.47000000000E+01 0.  1.
         11    1    4    4    0    0 -0.28511421411E+02 -0.39070006216E+02 -0.16696013318E+03  0.17382477559E+03  0.00000000000E+00 0. -1.
        -12    1    4    4    0    0 -0.10918898867E+03  0.28520248058E+02 -0.39687596808E+03  0.41260898420E+03  0.00000000000E+00 0.  1.
</event>
<event>
12    1  0.8052519E-002  0.1748253E+03  0.7818608E-02  0.1172941E+00
         21   -1    0    0  501  502  0.00000000000E+00  0.00000000000E+00  0.12159592479E+04  0.12159592479E+04  0.00000000000E+00 0. -1.
         21   -1    0    0  502  503 -0.00000000000E+00 -0.00000000000E+00 -0.41672670170E+02  0.41672670170E+02  0.00000000000E+00 0. -1.
         -6    2    1    2    0  503  0.24282758995E+02 -0.11006264893E+02  0.19092714533E+03  0.25887651392E+03  0.17278045139E+03 0.  0.
        -24    2    3    3    0    0  0.42841112129E+02 -0.21003538235E+02  0.31284322702E+02  0.97779404194E+02  0.79407767446E+02 0.  0.
          6    2    1    2  501    0 -0.24282758995E+02  0.11006264893E+02  0.98335943242E+03  0.99875540417E+03  0.17264354543E+03 0.  0.
         24    2    5    5    0    0 -0.17950863183E+02  0.11374932816E+02  0.21629179636E+03  0.23164714772E+03  0.80166310189E+02 0.  0.
          5    1    5    5  501    0 -0.63318958120E+01 -0.36866792337E+00  0.76706763606E+03  0.76710825645E+03  0.47000000000E+01 0. -1.
        -11    1    6    6    0    0 -0.45009353841E+02 -0.61447389665E+01  0.16437796739E+03  0.17053948491E+03  0.00000000000E+00 0.  1.
         12    1    6    6    0    0  0.27058490657E+02  0.17519671783E+02  0.51913828976E+02  0.61107662817E+02  0.00000000000E+00 0. -1.
         -5    1    3    3    0  503 -0.18558353134E+02  0.99972733422E+01  0.15964282263E+03  0.16109710972E+03  0.47000000000E+01 0.  1.
         13    1    4    4    0    0 -0.11269134459E+02 -0.32174260981E+02 -0.38998710482E+00  0.34092939901E+02  0.00000000000E+00 0. -1.
        -14    1    4    4    0    0  0.54110246588E+02  0.11170722746E+02  0.31674309807E+02  0.63686464294E+02  0.00000000000E+00 0.  1.
</event>
<event>
12    1  0.8052519E-002  0.1862326E+03  0.7818608E-02  0.1163440E+00
         21   -1    0    0  503  502  0.00000000000E+00  0.00000000000E+00  0.44745533612E+02  0.44745533612E+02  0.00000000000E+00 0. -1.
         21   -1    0    0  501  503 -0.00000000000E+00 -0.00000000000E+00 -0.13879127062E+04  0.13879127062E+04  0.00000000000E+00 0.  1.
          6    2    1    2  501    0 -0.37778280490E+01 -0.61125052908E+02 -0.11514057116E+04  0.11653474571E+04  0.16896460893E+03 0.  0.
         24    2    3    3    0    0 -0.35910251327E+01 -0.10421938003E+03 -0.74164107751E+03  0.75329612383E+03  0.80925816012E+02 0.  0.
         -6    2    1    2    0  502  0.37778280490E+01  0.61125052908E+02 -0.19176146096E+03  0.26731078265E+03  0.17587510493E+03 0.  0.
        -24    2    5    5    0    0  0.28292456012E+02  0.80066545846E+01 -0.21958273645E+02  0.87650704592E+02  0.79598433711E+02 0.  0.
          5    1    3    3  501    0 -0.18680291635E+00  0.43094327123E+02 -0.40976463409E+03  0.41205133331E+03  0.47000000000E+01 0. -1.
        -11    1    4    4    0    0 -0.27887693899E+02 -0.68846547481E+02 -0.28070711142E+03  0.29036882232E+03  0.00000000000E+00 0.  1.
         12    1    4    4    0    0  0.24296668766E+02 -0.35372832551E+02 -0.46093396609E+03  0.46292730152E+03  0.00000000000E+00 0. -1.
         -5    1    5    5    0  502 -0.24514627963E+02  0.53118398324E+02 -0.16980318732E+03  0.17966007806E+03  0.47000000000E+01 0.  1.
         13    1    6    6    0    0  0.35809498423E+02 -0.23135315018E+02  0.84708861112E+01  0.43466296021E+02  0.00000000000E+00 0. -1.
        -14    1    6    6    0    0 -0.75170424109E+01  0.31141969603E+02 -0.30429159756E+02  0.44184408571E+02  0.00000000000E+00 0.  1.
</event>
<event>
12    1  0.8052519E-002  0.1984405E+03  0.7818608E-02  0.1151504E+00
         21   -1    0    0  501  502  0.00000000000E+00  0.00000000000E+00  0.10010309709E+04  0.10010309709E+04  0.00000000000E+00 0.  1.
         21   -1    0    0  502  503 -0.00000000000E+00 -0.00000000000E+00 -0.45324258625E+02  0.45324258625E+02  0.00000000000E+00 0.  1.
         -6    2    1    2    0  503  0.81792642655E+02  0.54004297756E+02  0.28349312652E+03  0.34604478555E+03  0.17254605257E+03 0.  0.
        -24    2    3    3    0    0 -0.19943070174E+02  0.30465380023E+02  0.17504935354E+03  0.19542480743E+03  0.78884179370E+02 0.  0.
          6    2    1    2  501    0 -0.81792642655E+02 -0.54004297756E+02  0.67221358580E+03  0.70031044401E+03  0.17016789502E+03 0.  0.
         24    2    5    5    0    0 -0.66322375100E+02  0.24782612150E+02  0.46092988854E+03  0.47423612642E+03  0.86201543743E+02 0.  0.
          5    1    5    5  501    0 -0.15470267555E+02 -0.78786909906E+02  0.21128369725E+03  0.22607431760E+03  0.47000000000E+01 0. -1.
        -13    1    6    6    0    0 -0.84044719970E+02  0.58450109939E+01  0.31792128738E+03  0.32889454857E+03  0.00000000000E+00 0.  1.
         14    1    6    6    0    0  0.17722344871E+02  0.18937601156E+02  0.14300860117E+03  0.14534157785E+03  0.00000000000E+00 0. -1.
         -5    1    3    3    0  503  0.10173571283E+03  0.23538917732E+02  0.10844377297E+03  0.15061997812E+03  0.47000000000E+01 0.  1.
         11    1    4    4    0    0  0.79477696770E+01  0.16075330925E+02  0.35764144109E+00  0.17936309949E+02  0.00000000000E+00 0. -1.
        -12    1    4    4    0    0 -0.27890839851E+02  0.14390049099E+02  0.17469171210E+03  0.17748849748E+03  0.00000000000E+00 0.  1.
</event>
<event>
12    1  0.8052519E-002  0.1890115E+03  0.7818608E-02  0.1159431E+00
         21   -1    0    0  503  502  0.00000000000E+00  0.00000000000E+00  0.16784134647E+03  0.16784134647E+03  0.00000000000E+00 0. -1.
         21   -1    0    0  501  503 -0.00000000000E+00 -0.00000000000E+00 -0.21667632828E+03  0.21667632828E+03  0.00000000000E+00 0. -1.
          6    2    1    2  501    0 -0.69265529943E+02  0.35615004350E+02  0.23186866856E+01  0.18902574142E+03  0.17221850203E+03 0.  0.
         24    2    3    3    0    0 -0.33548581559E+02 -0.37378628444E+02  0.35664146278E+02  0.10106108656E+03  0.80117056222E+02 0.  0.
         -6    2    1    2    0  502  0.69265529943E+02 -0.35615004350E+02 -0.51153668492E+02  0.19549193333E+03  0.17185533458E+03 0.  0.
        -24    2    5    5    0    0  0.88526000804E+01 -0.77946164386E+02 -0.36086299377E+02  0.12005477527E+03  0.83408362839E+02 0.  0.
          5    1    3    3  501    0 -0.35716948384E+02  0.72993632793E+02 -0.33345459592E+02  0.87964654866E+02  0.47000000000E+01 0. -1.
        -11    1    4    4    0    0 -0.53314641562E+02 -0.73161638713E+01  0.36582077996E+02  0.65070928142E+02  0.00000000000E+00 0.  1.
         12    1    4    4    0    0  0.19766060004E+02 -0.30062464572E+02 -0.91793171779E+00  0.35990158417E+02  0.00000000000E+00 0. -1.
         -5    1    5    5    0  502  0.60412929862E+02  0.42331160036E+02 -0.15067369116E+02  0.75437158063E+02  0.47000000000E+01 0.  1.
         13    1    6    6    0    0 -0.32893901447E+02 -0.60854402334E+02 -0.25443559909E+02  0.73706456818E+02  0.00000000000E+00 0. -1.
        -14    1    6    6    0    0  0.41746501528E+02 -0.17091762052E+02 -0.10642739468E+02  0.46348318451E+02  0.00000000000E+00 0.  1.
</event>
<event>
12    1  0.8052519E-002  0.1757432E+03  0.7818608E-02  0.1172574E+00
         21   -1    0    0  503  502  0.00000000000E+00  0.00000000000E+00  0.11180873428E+03  0.11180873428E+03  0.00000000000E+00 0. -1.
         21   -1    0    0  501  503 -0.00000000000E+00 -0.00000000000E+00 -0.27309388682E+03  0.27309388682E+03  0.00000000000E+00 0.  1.
          6    2    1    2  501    0  0.20570062904E+02 -0.10945333206E+02 -0.88433100754E+02  0.19465777063E+03  0.17183802417E+03 0.  0.
         24    2    3    3    0    0 -0.39062629039E+01 -0.71396663993E+02 -0.44873928961E+02  0.11608967681E+03  0.79689403577E+02 0.  0.
         -6    2    1    2    0  502 -0.20570062904E+02  0.10945333206E+02 -0.72852051789E+02  0.19024485048E+03  0.17419171587E+03 0.  0.
        -24    2    5    5    0    0 -0.59886940018E+01  0.37483260856E+02  0.15334031111E+02  0.96886652442E+02  0.87812479814E+02 0.  0.
          5    1    3    3  501    0  0.24476325808E+02  0.60451330786E+02 -0.43559171793E+02  0.78568093818E+02  0.47000000000E+01 0. -1.
        -13    1    4    4    0    0 -0.13722351758E+02  0.13785582553E+02 -0.17265812427E+02  0.26008719747E+02  0.00000000000E+00 0.  1.
         14    1    4    4    0    0  0.98160888545E+01 -0.85182246546E+02 -0.27608116534E+02  0.90080957064E+02  0.00000000000E+00 0. -1.
         -5    1    5    5    0  502 -0.14581368903E+02 -0.26537927649E+02 -0.88186082900E+02  0.93358198035E+02  0.47000000000E+01 0.  1.
         13    1    6    6    0    0  0.29638557501E+02 -0.31810031731E+01  0.28502152258E+02  0.41242399970E+02  0.00000000000E+00 0. -1.
        -14    1    6    6    0    0 -0.35627251503E+02  0.40664264029E+02 -0.13168121148E+02  0.55644252472E+02  0.00000000000E+00 0.  1.
</event>
<event>
12    1  0.8052519E-002  0.3092729E+03  0.7818608E-02  0.1080723E+00
         21   -1    0    0  503  502  0.00000000000E+00  0.00000000000E+00  0.52895927451E+03  0.52895927451E+03  0.00000000000E+00 0. -1.
         21   -1    0    0  501  503 -0.00000000000E+00 -0.00000000000E+00 -0.22189440691E+03  0.22189440691E+03  0.00000000000E+00 0.  1.
          6    2    1    2  501    0 -0.12339147990E+03  0.22540369650E+03  0.31526807827E+03  0.44147196809E+03  0.17167193634E+03 0.  0.
         24    2    3    3    0    0 -0.87344571064E+02  0.23502330700E+03  0.30391125630E+03  0.40219113373E+03  0.80812297461E+02 0.  0.
         -6    2    1    2    0  502  0.12339147990E+03 -0.22540369650E+03 -0.82032106738E+01  0.30938171333E+03  0.17209726370E+03 0.  0.
        -24    2    5    5    0    0  0.95370421218E+02 -0.51471334196E+02 -0.32341333027E+02  0.13149864686E+03  0.67090363078E+02 0.  0.
          5    1    3    3  501    0 -0.36046908836E+02 -0.96196104999E+01  0.11356821974E+02  0.39280834361E+02  0.47000000000E+01 0. -1.
        -11    1    4    4    0    0  0.87702127435E+01  0.83533128703E+02  0.99752643154E+02  0.13040433290E+03  0.00000000000E+00 0.  1.
         12    1    4    4    0    0 -0.96114783808E+02  0.15149017830E+03  0.20415861315E+03  0.27178680084E+03  0.00000000000E+00 0. -1.
         -5    1    5    5    0  502  0.28021058682E+02 -0.17393236230E+03  0.24138122354E+02  0.17788306647E+03  0.47000000000E+01 0.  1.
         13    1    6    6    0    0  0.63694230110E+02 -0.66201018197E+02 -0.29331390485E+02  0.96435782920E+02  0.00000000000E+00 0. -1.
        -14    1    6    6    0    0  0.31676191109E+02  0.14729684001E+02 -0.30099425418E+01  0.35062863945E+02  0.00000000000E+00 0.  1.
</event>
<event>
12    1  0.8052519E-002  0.2462574E+03  0.7818608E-02  0.1115846E+00
         21   -1    0    0  501  502  0.00000000000E+00  0.00000000000E+00  0.30398477756E+03  0.30398477756E+03  0.00000000000E+00 0.  1.
         21   -1    0    0  502  503 -0.00000000000E+00 -0.00000000000E+00 -0.29352345823E+03  0.29352345823E+03  0.00000000000E+00 0. -1.
         -6    2    1    2    0  503  0.47141331396E+02 -0.16961865752E+03  0.17500537169E+03  0.30133692987E+03  0.17083404544E+03 0.  0.
        -24    2    3    3    0    0  0.37499364903E+02 -0.19679554251E+03  0.14712786268E+03  0.26095381330E+03  0.79470729079E+02 0.  0.
          6    2    1    2  501    0 -0.47141331396E+02  0.16961865752E+03 -0.16454405236E+03  0.29617130591E+03  0.17219147243E+03 0.  0.
         24    2    5    5    0    0 -0.41405551078E+02  0.33272425733E+02 -0.11838173763E+03  0.15203163962E+03  0.79233261115E+02 0.  0.
          5    1    5    5  501    0 -0.57357803183E+01  0.13634623179E+03 -0.46162314724E+02  0.14413966629E+03  0.47000000000E+01 0. -1.
        -11    1    6    6    0    0 -0.19098758873E+02 -0.22359585908E+02 -0.66680122747E+02  0.72876281752E+02  0.00000000000E+00 0.  1.
         12    1    6    6    0    0 -0.22306792205E+02  0.55632011641E+02 -0.51701614885E+02  0.79155357869E+02  0.00000000000E+00 0. -1.
         -5    1    3    3    0  503  0.96419664929E+01  0.27176884988E+02  0.27877509010E+02  0.40383116572E+02  0.47000000000E+01 0.  1.
         11    1    4    4    0    0  0.23167145475E+02 -0.55985916862E+02  0.56839061312E+01  0.60855947164E+02  0.00000000000E+00 0. -1.
        -12    1    4    4    0    0  0.14332219428E+02 -0.14080962565E+03  0.14144395655E+03  0.20009786614E+03  0.00000000000E+00 0.  1.
</event>
<event>
12    1  0.8052519E-002  0.1780292E+03  0.7818608E-02  0.1170134E+00
         21   -1    0    0  503  502  0.00000000000E+00  0.00000000000E+00  0.13499831908E+03  0.13499831908E+03  0.00000000000E+00 0. -1.
         21   -1    0    0  501  503 -0.00000000000E+00 -0.00000000000E+00 -0.32950754051E+03  0.32950754051E+03  0.00000000000E+00 0. -1.
          6    2    1    2  501    0  0.28554948152E+02 -0.34190211855E+02 -0.22353383520E+03  0.28576521237E+03  0.17236596378E+03 0.  0.
         24    2    3    3    0    0  0.12325001291E+02  0.20048001186E+02 -0.21178758928E+03  0.22775435802E+03  0.80400476459E+02 0.  0.
         -6    2    1    2    0  502 -0.28554948152E+02  0.34190211855E+02  0.29024613761E+02  0.17874064723E+03  0.17065003697E+03 0.  0.
        -24    2    5    5    0    0 -0.77431698164E+02  0.42160720688E+02  0.46607307770E+02  0.12597980160E+03  0.76977107138E+02 0.  0.
          5    1    3    3  501    0  0.16229946861E+02 -0.54238213041E+02 -0.11746245915E+02  0.58010854347E+02  0.47000000000E+01 0. -1.
        -13    1    4    4    0    0 -0.11713857241E+02  0.44793357019E+02 -0.90502313955E+02  0.10165789746E+03  0.00000000000E+00 0.  1.
         14    1    4    4    0    0  0.24038858532E+02 -0.24745355834E+02 -0.12128527533E+03  0.12609646056E+03  0.00000000000E+00 0. -1.
         -5    1    5    5    0  502  0.48876750012E+02 -0.79705088333E+01 -0.17582694010E+02  0.52760845629E+02  0.47000000000E+01 0.  1.
         13    1    6    6    0    0  0.15734748154E+02  0.91249658322E+01  0.69784819237E+01  0.19481953467E+02  0.00000000000E+00 0. -1.
        -14    1    6    6    0    0 -0.93166446318E+02  0.33035754856E+02  0.39628825847E+02  0.10649784813E+03  0.00000000000E+00 0.  1.
</event>
<event>
12    1  0.8052519E-002  0.1877011E+03  0.7818608E-02  0.1160648E+00
         21   -1    0    0  503  502  0.00000000000E+00  0.00000000000E+00  0.41741716114E+03  0.41741716114E+03  0.00000000000E+00 0.  1.
         21   -1    0    0  501  503 -0.00000000000E+00 -0.00000000000E+00 -0.84554950708E+02  0.84554950708E+02  0.00000000000E+00 0. -1.
          6    2    1    2  501    0  0.52688013230E+02 -0.53936260411E+02  0.15032979725E+03  0.24015200880E+03  0.17143159705E+03 0.  0.
         24    2    3    3    0    0 -0.45437746646E+01  0.65785148218E+01  0.13682073047E+03  0.15564106009E+03  0.73758420222E+02 0.  0.
         -6    2    1    2    0  502 -0.52688013230E+02  0.53936260411E+02  0.18253241319E+03  0.26182010305E+03  0.17189106309E+03 0.  0.
        -24    2    5    5    0    0  0.80170287737E+01 -0.21442847532E+02  0.54687437765E+02  0.10140333404E+03  0.82266954750E+02 0.  0.
          5    1    3    3  501    0  0.57231787895E+02 -0.60514775232E+02  0.13509066774E+02  0.84510948712E+02  0.47000000000E+01 0. -1.
        -11    1    4    4    0    0 -0.18425583236E+02 -0.25041438728E+02  0.10186681308E+03  0.10650550868E+03  0.00000000000E+00 0.  1.
         12    1    4    4    0    0  0.13881808572E+02  0.31619953549E+02  0.34953917388E+02  0.49135551411E+02  0.00000000000E+00 0. -1.
         -5    1    5    5    0  502 -0.60705042004E+02  0.75379107942E+02  0.12784497542E+03  0.16041676901E+03  0.47000000000E+01 0.  1.
         13    1    6    6    0    0 -0.33833988850E+02 -0.20796189924E+02  0.41683656765E+02  0.57573844393E+02  0.00000000000E+00 0. -1.
        -14    1    6    6    0    0  0.41851017623E+02 -0.64665760793E+00  0.13003781000E+02  0.43829489644E+02  0.00000000000E+00 0.  1.
</event>
<event>
12    1  0.8052519E-002  0.1888528E+03  0.7818608E-02  0.1160607E+00
         21   -1    0    0  503  502  0.00000000000E+00  0.00000000000E+00  0.66000353181E+03  0.66000353181E+03  0.00000000000E+00 0.  1.
         21   -1    0    0  501  503 -0.00000000000E+00 -0.00000000000E+00 -0.79851604827E+02  0.79851604827E+02  0.00000000000E+00 0.  1.
          6    2    1    2  501    0 -0.91134762211E+01 -0.66084887683E+02  0.71799826504E+02  0.19755701136E+03  0.17153218305E+03 0.  0.
         24    2    3    3    0    0 -0.50090108331E+02 -0.84049566130E+02  0.19641887461E+02  0.12867773540E+03  0.81233043314E+02 0.  0.
         -6    2    1    2    0  502  0.91134762211E+01  0.66084887683E+02  0.50835210048E+03  0.54229812528E+03  0.17667804276E+03 0.  0.
        -24    2    5    5    0    0 -0.56143164489E+02  0.64738606283E+01  0.27518688359E+03  0.29289882281E+03  0.82872997510E+02 0.  0.
          5    1    3    3  501    0  0.40976632110E+02  0.17964678447E+02  0.52157939043E+02  0.68879275954E+02  0.47000000000E+01 0. -1.
        -11    1    4    4    0    0 -0.80592426819E+01 -0.48115392615E+02 -0.27508798721E+02  0.56006931769E+02  0.00000000000E+00 0.  1.
         12    1    4    4    0    0 -0.42030865649E+02 -0.35934173515E+02  0.47150686182E+02  0.72670803634E+02  0.00000000000E+00 0. -1.
         -5    1    5    5    0  502  0.65256640710E+02  0.59611027054E+02  0.23316521690E+03  0.24939930247E+03  0.47000000000E+01 0.  1.
         13    1    6    6    0    0  0.21599093378E+02  0.68965281179E+00  0.75581480422E+02  0.78610156078E+02  0.00000000000E+00 0. -1.
        -14    1    6    6    0    0 -0.77742257867E+02  0.57842078165E+01  0.19960540316E+03  0.21428866673E+03  0.00000000000E+00 0.  1.
</event>
<event>
12    1  0.8052519E-002  0.1843945E+03  0.7818608E-02  0.1164604E+00
         21   -1    0    0  501  502  0.00000000000E+00  0.00000000000E+00  0.22817954024E+03  0.22817954024E+03  0.00000000000E+00 0. -1.
         21   -1    0    0  502  503 -0.00000000000E+00 -0.00000000000E+00 -0.37050338268E+03  0.37050338268E+03  0.00000000000E+00 0. -1.
         -6    2    1    2    0  503  0.58511351456E+02 -0.10452276909E+02 -0.30466198720E+03  0.35611831662E+03  0.17455228627E+03 0.  0.
        -24    2    3    3    0    0  0.61249700549E+02 -0.34541295219E+02 -0.86447449166E+02  0.13651081682E+03  0.78850584954E+02 0.  0.
          6    2    1    2  501    0 -0.58511351456E+02  0.10452276909E+02  0.16233814477E+03  0.24256460630E+03  0.17015018848E+03 0.  0.
         24    2    5    5    0    0 -0.11349592916E+02  0.68557188423E+02  0.10906914135E+03  0.15058586454E+03  0.77143526364E+02 0.  0.
          5    1    5    5  501    0 -0.47161758541E+02 -0.58104911514E+02  0.53269003426E+02  0.91978741765E+02  0.47000000000E+01 0. -1.
        -11    1    6    6    0    0  0.20250467376E+02 -0.27224061999E+01  0.58996631009E+01  0.21267321157E+02  0.00000000000E+00 0.  1.
         12    1    6    6    0    0 -0.31600060292E+02  0.71279594623E+02  0.10316947825E+03  0.12931854338E+03  0.00000000000E+00 0. -1.
         -5    1    3    3    0  503 -0.27383490928E+01  0.24089018310E+02 -0.21821453804E+03  0.21960749980E+03  0.47000000000E+01 0.  1.
         13    1    4    4    0    0  0.28141134606E+02  0.96596432568E+01 -0.74200318338E+02  0.79943226143E+02  0.00000000000E+00 0. -1.
        -14    1    4    4    0    0  0.33108565944E+02 -0.44200938476E+02 -0.12247130828E+02  0.56567590672E+02  0.00000000000E+00 0.  1.
</event>
<event>
12    1  0.8052519E-002  0.2009690E+03  0.7818608E-02  0.1149115E+00
         21   -1    0    0  503  502  0.00000000000E+00  0.00000000000E+00  0.19390242907E+03  0.19390242907E+03  0.00000000000E+00 0. -1.
         21   -1    0    0  501  503 -0.00000000000E+00 -0.00000000000E+00 -0.23297507039E+03  0.23297507039E+03  0.00000000000E+00 0. -1.
          6    2    1    2  501    0  0.34461237933E+02  0.96381680343E+02 -0.90283507225E+02  0.21948638789E+03  0.17188995773E+03 0.  0.
         24    2    3    3    0    0  0.13707243944E+02  0.56399317044E+02 -0.12621805883E+03  0.16167030327E+03  0.82689280350E+02 0.  0.
         -6    2    1    2    0  502 -0.34461237933E+02 -0.96381680343E+02  0.51210865912E+02  0.20739111157E+03  0.17294945835E+03 0.  0.
        -24    2    5    5    0    0 -0.44801009229E+02 -0.13065342044E+03  0.26215245534E+02  0.16347831073E+03  0.83429444929E+02 0.  0.
          5    1    3    3  501    0  0.20753993989E+02  0.39982363299E+02  0.35934551610E+02  0.57816084621E+02  0.47000000000E+01 0. -1.
        -13    1    4    4    0    0 -0.22524114998E+01  0.31118209354E+02  0.77118301329E+00  0.31209149848E+02  0.00000000000E+00 0.  1.
         14    1    4    4    0    0  0.15959655444E+02  0.25281107689E+02 -0.12698924185E+03  0.13046115342E+03  0.00000000000E+00 0. -1.
         -5    1    5    5    0  502  0.10339771296E+02  0.34271740092E+02  0.24995620378E+02  0.43912800839E+02  0.47000000000E+01 0.  1.
         11    1    6    6    0    0 -0.19784904721E+02 -0.98230367616E+02 -0.19521454295E+02  0.10208689806E+03  0.00000000000E+00 0. -1.
        -12    1    6    6    0    0 -0.25016104508E+02 -0.32423052819E+02  0.45736699829E+02  0.61391412674E+02  0.00000000000E+00 0.  1.
</event>
<event>
12    1  0.8052519E-002  0.2446655E+03  0.7818608E-02  0.1119099E+00
         21   -1    0    0  501  502  0.00000000000E+00  0.00000000000E+00  0.41994354323E+02  0.41994354323E+02  0.00000000000E+00 0. -1.
         21   -1    0    0  502  503 -0.00000000000E+00 -0.00000000000E+00 -0.16930279061E+04  0.16930279061E+04  0.00000000000E+00 0. -1.
         -6    2    1    2    0  503  0.15464942197E+03 -0.84191580925E+00 -0.11996608951E+04  0.12216038179E+04  0.17091656460E+03 0.  0.
        -24    2    3    3    0    0  0.84355319517E+02  0.62140845638E+02 -0.81919862707E+03  0.82958122097E+03  0.78366491384E+02 0.  0.
          6    2    1    2  501    0 -0.15464942197E+03  0.84191580925E+00 -0.45137265671E+03  0.51341844259E+03  0.18958921232E+03 0.  0.
         24    2    5    5    0    0  0.29293704497E+01  0.68874923574E+01 -0.10309033369E+03  0.13107005258E+03  0.80596048420E+02 0.  0.
          5    1    5    5  501    0 -0.15757879242E+03 -0.60455765482E+01 -0.34828232302E+03  0.38234839001E+03  0.47000000000E+01 0. -1.
        -13    1    6    6    0    0 -0.12698891582E+02  0.11614621152E+02  0.78638740627E+01  0.18920935157E+02  0.00000000000E+00 0.  1.
         14    1    6    6    0    0  0.15628262032E+02 -0.47271287950E+01 -0.11095420776E+03  0.11214911743E+03  0.00000000000E+00 0. -1.
         -5    1    3    3    0  503  0.70294102451E+02 -0.62982761447E+02 -0.38046226805E+03  0.39202259691E+03  0.47000000000E+01 0.  1.
         11    1    4    4    0    0  0.95877731634E+01  0.18925207670E+02 -0.44668463970E+03  0.44718816647E+03  0.00000000000E+00 0. -1.
        -12    1    4    4    0    0  0.74767546353E+02  0.43215637968E+02 -0.37251398737E+03  0.38239305451E+03  0.00000000000E+00 0.  1.
</event>
<event>
12    1  0.8052519E-002  0.1799219E+03  0.7818608E-02  0.1168904E+00
         21   -1    0    0  503  502  0.00000000000E+00  0.00000000000E+00  0.31168612464E+03  0.31168612464E+03  0.00000000000E+00 0. -1.
         21   -1    0    0  501  503 -0.00000000000E+00 -0.00000000000E+00 -0.10851430369E+03  0.10851430369E+03  0.00000000000E+00 0. -1.
          6    2    1    2  501    0  0.11924989702E+01  0.34116024726E+02  0.46910241395E+02  0.18189483462E+03  0.17239441672E+03 0.  0.
         24    2    3    3    0    0  0.11339355966E+02 -0.31622192061E+02 -0.16781227870E+02  0.89682226420E+02  0.81441685287E+02 0.  0.
         -6    2    1    2    0  502 -0.11924989702E+01 -0.34116024726E+02  0.15626157956E+03  0.23830559371E+03  0.17665375612E+03 0.  0.
        -24    2    5    5    0    0  0.64724621726E+01 -0.91441930044E+02  0.11275452157E+03  0.16577997655E+03  0.79786585055E+02 0.  0.
          5    1    3    3  501    0 -0.10146856995E+02  0.65738216787E+02  0.63691469266E+02  0.92212608197E+02  0.47000000000E+01 0. -1.
        -13    1    4    4    0    0 -0.34826882338E+02 -0.21005979589E+02 -0.61639970843E+01  0.41135845341E+02  0.00000000000E+00 0.  1.
         14    1    4    4    0    0  0.46166238303E+02 -0.10616212472E+02 -0.10617230786E+02  0.48546381079E+02  0.00000000000E+00 0. -1.
         -5    1    5    5    0  502 -0.76649611428E+01  0.57325905319E+02  0.43507057991E+02  0.72525617163E+02  0.47000000000E+01 0.  1.
         11    1    6    6    0    0  0.42614505259E+02 -0.54884088534E+02  0.73097262365E+02  0.10085370096E+03  0.00000000000E+00 0. -1.
        -12    1    6    6    0    0 -0.36142043086E+02 -0.36557841510E+02  0.39657259202E+02  0.64926275588E+02  0.00000000000E+00 0.  1.
</event>
<event>
12    1  0.8052519E-002  0.1939707E+03  0.7818608E-02  0.1154966E+00
         21   -1    0    0  501  502  0.00000000000E+00  0.00000000000E+00  0.14613200853E+03  0.14613200853E+03  0.00000000000E+00 0.  1.
         21   -1    0    0  502  503 -0.00000000000E+00 -0.00000000000E+00 -0.26640623097E+03  0.26640623097E+03  0.00000000000E+00 0.  1.
         -6    2    1    2    0  503  0.87951790435E+02  0.21748641733E+02 -0.21899935231E+02  0.19520306334E+03  0.17151124720E+03 0.  0.
        -24    2    3    3    0    0  0.39735383015E+02  0.77644573398E+02 -0.25381637953E+02  0.12115315196E+03  0.80164070773E+02 0.  0.
          6    2    1    2  501    0 -0.87951790435E+02 -0.21748641733E+02 -0.98374287204E+02  0.21733517616E+03  0.17131420710E+03 0.  0.
         24    2    5    5    0    0 -0.59840405975E+01 -0.52204117046E+02 -0.13144749831E+02  0.95136927275E+02  0.78212351357E+02 0.  0.
          5    1    5    5  501    0 -0.81967749838E+02  0.30455475312E+02 -0.85229537373E+02  0.12219824889E+03  0.47000000000E+01 0. -1.
        -11    1    6    6    0    0  0.12309707287E+02 -0.20912593020E+01 -0.35246124409E+02  0.37392399559E+02  0.00000000000E+00 0.  1.
         12    1    6    6    0    0 -0.18293747885E+02 -0.50112857744E+02  0.22101374577E+02  0.57744527716E+02  0.00000000000E+00 0. -1.
         -5    1    3    3    0  503  0.48216407420E+02 -0.55895931664E+02  0.34817027219E+01  0.74049911377E+02  0.47000000000E+01 0.  1.
         13    1    4    4    0    0  0.35141883557E+02  0.44261884384E+02 -0.53079211238E+02  0.77533664010E+02  0.00000000000E+00 0. -1.
        -14    1    4    4    0    0  0.45934994578E+01  0.33382689014E+02  0.27697573285E+02  0.43619487949E+02  0.00000000000E+00 0.  1.
</event>
<event>
12    1  0.8052519E-002  0.1740908E+03  0.7818608E-02  0.1173775E+00
         21   -1    0    0  501  502  0.00000000000E+00  0.00000000000E+00  0.11272249360E+03  0.11272249360E+03  0.00000000000E+00 0. -1.
         21   -1    0    0  502  503 -0.00000000000E+00 -0.00000000000E+00 -0.26858951285E+03  0.26858951285E+03  0.00000000000E+00 0. -1.
         -6    2    1    2    0  503  0.14277970233E+02 -0.22639894974E+02 -0.86254784611E+02  0.19428716945E+03  0.17202090299E+03 0.  0.
        -24    2    3    3    0    0  0.45994564011E+02 -0.24843074515E+02  0.76813779313E+01  0.95005303256E+02  0.78957746991E+02 0.  0.
          6    2    1    2  501    0 -0.14277970233E+02  0.22639894974E+02 -0.69612234642E+02  0.18702483701E+03  0.17151093600E+03 0.  0.
         24    2    5    5    0    0  0.18086702366E+02  0.55270537191E+02  0.53877726072E+01  0.98937823597E+02  0.79860526924E+02 0.  0.
          5    1    5    5  501    0 -0.32364672600E+02 -0.32630642217E+02 -0.75000007250E+02  0.88087013409E+02  0.47000000000E+01 0. -1.
        -11    1    6    6    0    0  0.24963962676E+02  0.16304039764E+01 -0.26267989986E+02  0.36274852825E+02  0.00000000000E+00 0.  1.
         12    1    6    6    0    0 -0.68772603094E+01  0.53640133215E+02  0.31655762593E+02  0.62662970772E+02  0.00000000000E+00 0. -1.
         -5    1    3    3    0  503 -0.31716593778E+02  0.22031795404E+01 -0.93936162542E+02  0.99281866190E+02  0.47000000000E+01 0.  1.
         11    1    4    4    0    0  0.54351304340E+02 -0.11527587716E+02 -0.23312115744E+02  0.60252836469E+02  0.00000000000E+00 0. -1.
        -12    1    4    4    0    0 -0.83567403290E+01 -0.13315486798E+02  0.30993493675E+02  0.34752466787E+02  0.00000000000E+00 0.  1.
</event>
<event>
12    1  0.8052519E-002  0.2554632E+03  0.7818608E-02  0.1109932E+00
         21   -1    0    0  501  502  0.00000000000E+00  0.00000000000E+00  0.23869710365E+04  0.23869710365E+04  0.00000000000E+00 0.  1.
         21   -1    0    0  502  503 -0.00000000000E+00 -0.00000000000E+00 -0.29532835484E+02  0.29532835484E+02  0.00000000000E+00 0.  1.
         -6    2    1    2    0  503  0.13234649988E+03 -0.13480269999E+03  0.84832557515E+03  0.88595582825E+03  0.17197117261E+03 0.  0.
        -24    2    3    3    0    0 -0.10033415445E+01 -0.33167124013E+02  0.35397839415E+03  0.36392786360E+03  0.77728511981E+02 0.  0.
          6    2    1    2  501    0 -0.13234649988E+03  0.13480269999E+03  0.15091126259E+04  0.15305480437E+04  0.17166546728E+03 0.  0.
         24    2    5    5    0    0 -0.15496982191E+03  0.11351781308E+03  0.14358802044E+04  0.14508615414E+04  0.79657461209E+02 0.  0.
          5    1    5    5  501    0  0.22623322032E+02  0.21284886914E+02  0.73232421428E+02  0.79686502363E+02  0.47000000000E+01 0. -1.
        -11    1    6    6    0    0 -0.81156389133E+02  0.99630213185E+02  0.75575903511E+03  0.76660567309E+03  0.00000000000E+00 0.  1.
         12    1    6    6    0    0 -0.73813432777E+02  0.13887599894E+02  0.68012116933E+03  0.68425586827E+03  0.00000000000E+00 0. -1.
         -5    1    3    3    0  503  0.13334984142E+03 -0.10163557598E+03  0.49434718100E+03  0.52202796465E+03  0.47000000000E+01 0.  1.
         11    1    4    4    0    0 -0.11530893969E+02 -0.37634416802E+02  0.74878242070E+02  0.84593510267E+02  0.00000000000E+00 0. -1.
        -12    1    4    4    0    0  0.10527552425E+02  0.44672927885E+01  0.27910015208E+03  0.27933435334E+03  0.00000000000E+00 0.  1.
</event>
<event>
12    1  0.8052519E-002  0.2319400E+03  0.7818608E-02  0.1125501E+00
         21   -1    0    0  503  502  0.00000000000E+00  0.00000000000E+00  0.12636903996E+03  0.12636903996E+03  0.00000000000E+00 0. -1.
         21   -1    0    0  501  503 -0.00000000000E+00 -0.00000000000E+00 -0.48949524063E+03  0.48949524063E+03  0.00000000000E+00 0. -1.
          6    2    1    2  501    0  0.13592165904E+03  0.67030141934E+02 -0.29428560201E+03  0.37392379304E+03  0.17391736580E+03 0.  0.
         24    2    3    3    0    0  0.11837823594E+03  0.18334886163E+01 -0.26351761777E+03  0.29957909483E+03  0.79305300951E+02 0.  0.
         -6    2    1    2    0  502 -0.13592165904E+03 -0.67030141934E+02 -0.68840598663E+02  0.24194048756E+03  0.17558027842E+03 0.  0.
        -24    2    5    5    0    0 -0.10826613340E+03 -0.41148492659E+02 -0.11672369602E+03  0.18070676416E+03  0.74938370087E+02 0.  0.
          5    1    3    3  501    0  0.17543423099E+02  0.65196653318E+02 -0.30767984239E+02  0.74344698211E+02  0.47000000000E+01 0. -1.
        -13    1    4    4    0    0  0.50382581724E+02 -0.18764293207E+02 -0.46013671032E+02  0.70765536545E+02  0.00000000000E+00 0.  1.
         14    1    4    4    0    0  0.67995654219E+02  0.20597781823E+02 -0.21750394673E+03  0.22881355828E+03  0.00000000000E+00 0. -1.
         -5    1    5    5    0  502 -0.27655525646E+02 -0.25881649275E+02  0.47883097361E+02  0.61233723395E+02  0.47000000000E+01 0.  1.
         11    1    6    6    0    0 -0.84280728328E+02  0.62466313470E+01 -0.77606307275E+02  0.11473883606E+03  0.00000000000E+00 0. -1.
        -12    1    6    6    0    0 -0.23985405068E+02 -0.47395124006E+02 -0.39117388748E+02  0.65967928104E+02  0.00000000000E+00 0.  1.
</event>
<event>
12    1  0.8052519E-002  0.1811847E+03  0.7818608E-02  0.1169068E+00
         21   -1    0    0  501  502  0.00000000000E+00  0.00000000000E+00  0.22264957109E+03  0.22264957109E+03  0.00000000000E+00 0.  1.
         21   -1    0    0  502  503 -0.00000000000E+00 -0.00000000000E+00 -0.14201821879E+03  0.14201821879E+03  0.00000000000E+00 0.  1.
         -6    2    1    2    0  503 -0.32939082427E+02  0.99653587669E+01  0.65079388330E+02  0.19251811257E+03  0.17788649571E+03 0.  0.
        -24    2    3    3    0    0 -0.28610848002E+02 -0.12816127773E+02  0.10995051577E+03  0.14179102099E+03  0.83861456940E+02 0.  0.
          6    2    1    2  501    0  0.32939082427E+02 -0.99653587669E+01  0.15551963974E+02  0.17214967731E+03  0.16795641187E+03 0.  0.
         24    2    5    5    0    0 -0.20633410027E+02 -0.56279751687E+02 -0.19577468149E+00  0.99450872565E+02  0.79355464002E+02 0.  0.
          5    1    5    5  501    0  0.53572492454E+02  0.46314392920E+02  0.15747738655E+02  0.72698804750E+02  0.47000000000E+01 0. -1.
        -11    1    6    6    0    0  0.12383520170E+02 -0.17774355258E+02 -0.32687280254E+02  0.39213997080E+02  0.00000000000E+00 0.  1.
         12    1    6    6    0    0 -0.33016930197E+02 -0.38505396429E+02  0.32491505572E+02  0.60236875485E+02  0.00000000000E+00 0. -1.
         -5    1    3    3    0  503 -0.43282344249E+01  0.22781486540E+02 -0.44871127443E+02  0.50727091580E+02  0.47000000000E+01 0.  1.
         13    1    4    4    0    0 -0.40998389390E+02 -0.12713281940E+02  0.14155240445E+02  0.45198078524E+02  0.00000000000E+00 0. -1.
        -14    1    4    4    0    0  0.12387541388E+02 -0.10284583243E+00  0.95795275328E+02  0.96592942465E+02  0.00000000000E+00 0.  1.
</event>
<event>
12    1  0.8052519E-002  0.2512011E+03  0.7818608E-02  0.1112682E+00
         21   -1    0    0  503  502  0.00000000000E+00  0.00000000000E+00  0.64503008429E+03  0.64503008429E+03  0.00000000000E+00 0.  1.
         21   -1    0    0  501  503 -0.00000000000E+00 -0.00000000000E+00 -0.15537743296E+03  0.15537743296E+03  0.00000000000E+00 0. -1.
          6    2    1    2  501    0  0.12888311885E+03  0.12834904895E+03  0.30748596063E+00  0.25035233252E+03  0.17202284488E+03 0.  0.
         24    2    3    3    0    0  0.13430690969E+03  0.15362156034E+03  0.16800438941E+02  0.21933258338E+03  0.78654927312E+02 0.  0.
         -6    2    1    2    0  502 -0.12888311885E+03 -0.12834904895E+03  0.48934516537E+03  0.55005518473E+03  0.17325610720E+03 0.  0.
        -24    2    5    5    0    0 -0.15876079505E+03 -0.98360433276E+02  0.44372752926E+03  0.48764483839E+03  0.77611876050E+02 0.  0.
          5    1    3    3  501    0 -0.54237908399E+01 -0.25272511388E+02 -0.16492952981E+02  0.31019749144E+02  0.47000000000E+01 0. -1.
        -13    1    4    4    0    0  0.70714306303E+02  0.13025445287E+03  0.27504773910E+02  0.15074232383E+03  0.00000000000E+00 0.  1.
         14    1    4    4    0    0  0.63592603382E+02  0.23367107476E+02 -0.10704334968E+02  0.68590259541E+02  0.00000000000E+00 0. -1.
         -5    1    5    5    0  502  0.29877676205E+02 -0.29988615678E+02  0.45617636111E+02  0.62410346338E+02  0.47000000000E+01 0.  1.
         11    1    6    6    0    0 -0.71380272303E+02 -0.84038351500E+02  0.20077369262E+03  0.22905820973E+03  0.00000000000E+00 0. -1.
        -12    1    6    6    0    0 -0.87380522748E+02 -0.14322081776E+02  0.24295383664E+03  0.25858662866E+03  0.00000000000E+00 0.  1.
</event>
<event>
12    1  0.8052519E-002  0.1866359E+03  0.7818608E-02  0.1161772E+00
         21   -1    0    0  503  502  0.00000000000E+00  0.00000000000E+00  0.23749554417E+04  0.23749554417E+04  0.00000000000E+00 0.  1.
         21   -1    0    0  501  503 -0.00000000000E+00 -0.00000000000E+00 -0.31590510763E+02  0.31590510763E+02  0.00000000000E+00 0. -1.
          6    2    1    2  501    0 -0.70857666879E+02 -0.29842760174E+01  0.28733616425E+03  0.34206363190E+03  0.17151018082E+03 0.  0.
         24    2    3    3    0    0 -0.63367851803E+02 -0.67374891947E+02  0.19093693069E+03  0.22580034887E+03  0.77291819377E+02 0.  0.
         -6    2    1    2    0  502  0.70857666879E+02  0.29842760174E+01  0.20560287667E+04  0.20644823205E+04  0.17263617121E+03 0.  0.
        -24    2    5    5    0    0  0.94867119524E+02 -0.30951080337E+02  0.18414090444E+04  0.18458232768E+04  0.79489374217E+02 0.  0.
          5    1    3    3  501    0 -0.74898150755E+01  0.64390615930E+02  0.96399233561E+02  0.11626328303E+03  0.47000000000E+01 0. -1.
        -13    1    4    4    0    0 -0.76318321464E+01 -0.58935954101E+01  0.10816048286E+03  0.10858945336E+03  0.00000000000E+00 0.  1.
         14    1    4    4    0    0 -0.55736019657E+02 -0.61481296537E+02  0.82776447827E+02  0.11721089551E+03  0.00000000000E+00 0. -1.
         -5    1    5    5    0  502 -0.24009452645E+02  0.33935356354E+02  0.21461972226E+03  0.21865904375E+03  0.47000000000E+01 0.  1.
         13    1    6    6    0    0  0.76233851163E+02  0.13942233193E+02  0.99056412319E+03  0.99359109702E+03  0.00000000000E+00 0. -1.
        -14    1    6    6    0    0  0.18633268360E+02 -0.44893313530E+02  0.85084492121E+03  0.85223217978E+03  0.00000000000E+00 0.  1.
</event>
<event>
12    1  0.8052519E-002  0.1850924E+03  0.7818608E-02  0.1163033E+00
         21   -1    0    0  503  502  0.00000000000E+00  0.00000000000E+00  0.14605389306E+04  0.14605389306E+04  0.00000000000E+00 0.  1.
         21   -1    0    0  501  503 -0.00000000000E+00 -0.00000000000E+00 -0.23419810577E+02  0.23419810577E+02  0.00000000000E+00 0.  1.
          6    2    1    2  501    0 -0.42964367040E+02 -0.53237942277E+02  0.71369594602E+03  0.73723235541E+03  0.17166661633E+03 0.  0.
         24    2    3    3    0    0  0.20171008866E+01  0.23806618922E+02  0.43998966814E+03  0.44931498285E+03  0.87876173942E+02 0.  0.
         -6    2    1    2    0  502  0.42964367040E+02  0.53237942277E+02  0.72342317403E+03  0.74672638579E+03  0.17198543888E+03 0.  0.
        -24    2    5    5    0    0  0.15167474216E+00  0.15070306508E+02  0.64105151418E+03  0.64624317631E+03  0.80349623226E+02 0.  0.
          5    1    3    3  501    0 -0.44981467927E+02 -0.77044561200E+02  0.27370627788E+03  0.28791737255E+03  0.47000000000E+01 0. -1.
        -13    1    4    4    0    0 -0.26421613011E+02 -0.22477558700E+02  0.21996324365E+03  0.22268177033E+03  0.00000000000E+00 0.  1.
         14    1    4    4    0    0  0.28438713897E+02  0.46284177622E+02  0.22002642449E+03  0.22663321253E+03  0.00000000000E+00 0. -1.
         -5    1    5    5    0  502  0.42812692298E+02  0.38167635770E+02  0.82371659852E+02  0.10048320949E+03  0.47000000000E+01 0.  1.
         13    1    6    6    0    0 -0.39295135919E+02  0.36262457381E+01  0.36980248497E+03  0.37190205062E+03  0.00000000000E+00 0. -1.
        -14    1    6    6    0    0  0.39446810661E+02  0.11444060770E+02  0.27124902920E+03  0.27434112568E+03  0.00000000000E+00 0.  1.
</event>
<event>
12    1  0.8052519E-002  0.2096091E+03  0.7818608E-02  0.1141992E+00
         21   -1    0    0  501  502  0.00000000000E+00  0.00000000000E+00  0.38107320079E+03  0.38107320079E+03  0.00000000000E+00 0.  1.
         21   -1    0    0  502  503 -0.00000000000E+00 -0.00000000000E+00 -0.14427044475E+03  0.14427044475E+03  0.00000000000E+00 0.  1.
         -6    2    1    2    0  503  0.23010674111E+01 -0.11911248298E+03  0.23663810960E+03  0.31573445671E+03  0.17174857707E+03 0.  0.
        -24    2    3    3    0    0  0.29662114249E+02 -0.25451476504E+01  0.71118052993E+02  0.11139270941E+03  0.80400494089E+02 0.  0.
          6    2    1    2  501    0 -0.23010674111E+01  0.11911248298E+03  0.16464644135E+00  0.20960918883E+03  0.17246131863E+03 0.  0.
         24    2    5    5    0    0  0.60254969446E+02  0.92217332520E+02 -0.22253685437E+02  0.13776715052E+03  0.79686030680E+02 0.  0.
          5    1    5    5  501    0 -0.62556036857E+02  0.26895150459E+02  0.22418331879E+02  0.71842038318E+02  0.47000000000E+01 0. -1.
        -13    1    6    6    0    0  0.29933069271E+02  0.99466186545E+02 -0.23756589528E+02  0.10655461721E+03  0.00000000000E+00 0.  1.
         14    1    6    6    0    0  0.30321900175E+02 -0.72488540253E+01  0.15029040903E+01  0.31212533310E+02  0.00000000000E+00 0. -1.
         -5    1    3    3    0  503 -0.27361046838E+02 -0.11656733533E+03  0.16552005661E+03  0.20434174730E+03  0.47000000000E+01 0.  1.
         13    1    4    4    0    0  0.35045722254E+02 -0.36901650422E+02  0.40055386966E+02  0.64763944268E+02  0.00000000000E+00 0. -1.
        -14    1    4    4    0    0 -0.53836080048E+01  0.34356502772E+02  0.31062666027E+02  0.46628765141E+02  0.00000000000E+00 0.  1.
</event>
<event>
12    1  0.8052519E-002  0.1732389E+03  0.7818608E-02  0.1174593E+00
         21   -1    0    0  501  502  0.00000000000E+00  0.00000000000E+00  0.75982793265E+03  0.75982793265E+03  0.00000000000E+00 0.  1.
         21   -1    0    0  502  503 -0.00000000000E+00 -0.00000000000E+00 -0.63224946473E+02  0.63224946473E+02  0.00000000000E+00 0.  1.
         -6    2    1    2    0  503  0.20087914888E+02  0.15667073918E+01  0.95612437977E+02  0.19759195101E+03  0.17174068216E+03 0.  0.
        -24    2    3    3    0    0  0.54662100714E+02  0.35451143345E+01  0.28454693567E+01  0.98460276520E+02  0.81766840873E+02 0.  0.
          6    2    1    2  501    0 -0.20087914888E+02 -0.15667073918E+01  0.60099054820E+03  0.62546092812E+03  0.17206322872E+03 0.  0.
         24    2    5    5    0    0 -0.32288553132E+02  0.33933389003E+02  0.56651523120E+03  0.57427743567E+03  0.81615196974E+02 0.  0.
          5    1    5    5  501    0  0.12200638244E+02 -0.35500096395E+02  0.34475317001E+02  0.51183492455E+02  0.47000000000E+01 0. -1.
        -13    1    6    6    0    0  0.18011799792E+02  0.33243928922E+02  0.14815057212E+03  0.15289923402E+03  0.00000000000E+00 0.  1.
         14    1    6    6    0    0 -0.50300352924E+02  0.68946008096E+00  0.41836465908E+03  0.42137820165E+03  0.00000000000E+00 0. -1.
         -5    1    3    3    0  503 -0.34574185827E+02 -0.19784069427E+01  0.92766968620E+02  0.99131674487E+02  0.47000000000E+01 0.  1.
         11    1    4    4    0    0  0.44124362246E+02  0.37274261632E+02 -0.13819039161E+02  0.59391041135E+02  0.00000000000E+00 0. -1.
        -12    1    4    4    0    0  0.10537738468E+02 -0.33729147297E+02  0.16664508517E+02  0.39069235385E+02  0.00000000000E+00 0.  1.
</event>
<event>
12    1  0.8052519E-002  0.2326272E+03  0.7818608E-02  0.1124976E+00
         21   -1    0    0  503  502  0.00000000000E+00  0.00000000000E+00  0.10067082377E+04  0.10067082377E+04  0.00000000000E+00 0.  1.
         21   -1    0    0  501  503 -0.00000000000E+00 -0.00000000000E+00 -0.80457298445E+02  0.80457298445E+02  0.00000000000E+00 0.  1.
          6    2    1    2  501    0 -0.33078811418E+02 -0.15306295093E+03  0.14797572255E+03  0.27486772810E+03  0.17068385622E+03 0.  0.
         24    2    3    3    0    0 -0.36461491834E+02 -0.17980891892E+03  0.10985477091E+03  0.22794133591E+03  0.78920809759E+02 0.  0.
         -6    2    1    2    0  502  0.33078811418E+02  0.15306295093E+03  0.77827521667E+03  0.81229780801E+03  0.17202599019E+03 0.  0.
        -24    2    5    5    0    0  0.78343873585E+02  0.90948056661E+02  0.43116869655E+03  0.45675285691E+03  0.91145026583E+02 0.  0.
          5    1    3    3  501    0  0.33826804163E+01  0.26745967991E+02  0.38120951634E+02  0.46926392191E+02  0.47000000000E+01 0. -1.
        -13    1    4    4    0    0 -0.46509931101E+02 -0.73081348000E+02  0.76780999609E+02  0.11575568676E+03  0.00000000000E+00 0.  1.
         14    1    4    4    0    0  0.10048439267E+02 -0.10672757092E+03  0.33073771304E+02  0.11218564915E+03  0.00000000000E+00 0. -1.
         -5    1    5    5    0  502 -0.45265062167E+02  0.62114894268E+02  0.34710652012E+03  0.35554495110E+03  0.47000000000E+01 0.  1.
         13    1    6    6    0    0 -0.17841233292E+02  0.35149608767E+02  0.10552012424E+03  0.11264235980E+03  0.00000000000E+00 0. -1.
        -14    1    6    6    0    0  0.96185106876E+02  0.55798447893E+02  0.32564857231E+03  0.34411049711E+03  0.00000000000E+00 0.  1.
</event>
<event>
12    1  0.8052519E-002  0.2339502E+03  0.7818608E-02  0.1124339E+00
         21   -1    0    0  501  502  0.00000000000E+00  0.00000000000E+00  0.83290485801E+03  0.83290485801E+03  0.00000000000E+00 0. -1.
         21   -1    0    0  502  503 -0.00000000000E+00 -0.00000000000E+00 -0.11713491510E+03  0.11713491510E+03  0.00000000000E+00 0. -1.
         -6    2    1    2    0  503 -0.15274625749E+03  0.34140015166E+02  0.39834982200E+02  0.23476305821E+03  0.17038165359E+03 0.  0.
        -24    2    3    3    0    0 -0.22272912199E+02 -0.19288329301E+02  0.38630536208E+02  0.93690656534E+02  0.80109291152E+02 0.  0.
          6    2    1    2  501    0  0.15274625749E+03 -0.34140015166E+02  0.67593496071E+03  0.71527671490E+03  0.17388429473E+03 0.  0.
         24    2    5    5    0    0  0.51599874670E+02  0.46796139507E+02  0.30619599710E+03  0.32347288247E+03  0.77629191145E+02 0.  0.
          5    1    5    5  501    0  0.10114638282E+03 -0.80936154673E+02  0.36973896361E+03  0.39180383242E+03  0.47000000000E+01 0. -1.
        -13    1    6    6    0    0 -0.16525682082E+02  0.17777799585E+02  0.36788159301E+02  0.44073994499E+02  0.00000000000E+00 0.  1.
         14    1    6    6    0    0  0.68125556752E+02  0.29018339922E+02  0.26940783780E+03  0.27939888798E+03  0.00000000000E+00 0. -1.
         -5    1    3    3    0  503 -0.13047334529E+03  0.53428344468E+02  0.12044459914E+01  0.14107240167E+03  0.47000000000E+01 0.  1.
         11    1    4    4    0    0 -0.48500248750E+02  0.59971314083E+01  0.23793029969E+02  0.54353914202E+02  0.00000000000E+00 0. -1.
        -12    1    4    4    0    0  0.26227336551E+02 -0.25285460710E+02  0.14837506240E+02  0.39336742332E+02  0.00000000000E+00 0.  1.
</event>
<event>
12    1  0.8052519E-002  0.2839297E+03  0.7818608E-02  0.1093621E+00
         21   -1    0    0  503  502  0.00000000000E+00  0.00000000000E+00  0.42611891733E+02  0.42611891733E+02  0.00000000000E+00 0.  1.
         21   -1    0    0  501  503 -0.00000000000E+00 -0.00000000000E+00 -0.18966896789E+04  0.18966896789E+04  0.00000000000E+00 0.  1.
          6    2    1    2  501    0 -0.62146997101E+02  0.21663025299E+03 -0.98984672432E+03  0.10297633716E+04  0.17269958903E+03 0.  0.
         24    2    3    3    0    0 -0.61900967452E+02  0.23766793747E+03 -0.86248905293E+03  0.90059405959E+03  0.82852371574E+02 0.  0.
         -6    2    1    2    0  502  0.62146997101E+02 -0.21663025299E+03 -0.86423106284E+03  0.90953819904E+03  0.17196944432E+03 0.  0.
        -24    2    5    5    0    0 -0.79679428388E+01 -0.11377562035E+03 -0.46350578478E+03  0.48989785454E+03  0.11024479788E+03 0.  0.
          5    1    3    3  501    0 -0.24602964893E+00 -0.21037684479E+02 -0.12735767139E+03  0.12916931199E+03  0.47000000000E+01 0. -1.
        -11    1    4    4    0    0 -0.73291901899E+02  0.20214790553E+03 -0.79406098262E+03  0.82265929929E+03  0.00000000000E+00 0.  1.
         12    1    4    4    0    0  0.11390934447E+02  0.35520031937E+02 -0.68428070310E+02  0.77934760298E+02  0.00000000000E+00 0. -1.
         -5    1    5    5    0  502  0.70114939940E+02 -0.10285463264E+03 -0.40072527806E+03  0.41964034450E+03  0.47000000000E+01 0.  1.
         11    1    6    6    0    0  0.11594259559E+02  0.85061878717E+01 -0.54182815936E+01  0.15366842950E+02  0.00000000000E+00 0. -1.
        -12    1    6    6    0    0 -0.19562202397E+02 -0.12228180823E+03 -0.45808750319E+03  0.47453101159E+03  0.00000000000E+00 0.  1.
</event>
<event>
12    1  0.8052519E-002  0.2271825E+03  0.7818608E-02  0.1128967E+00
         21   -1    0    0  503  502  0.00000000000E+00  0.00000000000E+00  0.50039664591E+03  0.50039664591E+03  0.00000000000E+00 0. -1.
         21   -1    0    0  501  503 -0.00000000000E+00 -0.00000000000E+00 -0.13564430129E+03  0.13564430129E+03  0.00000000000E+00 0.  1.
          6    2    1    2  501    0  0.86196028493E+02  0.11958458973E+03  0.25288302029E+02  0.22858559061E+03  0.17286308046E+03 0.  0.
         24    2    3    3    0    0  0.32246437629E+02 -0.13117835665E+01 -0.19148618974E+02  0.88860069040E+02  0.80547431649E+02 0.  0.
         -6    2    1    2    0  502 -0.86196028493E+02 -0.11958458973E+03  0.33946404260E+03  0.40745535659E+03  0.17045175848E+03 0.  0.
        -24    2    5    5    0    0 -0.20619651160E+02 -0.24696151120E+01  0.18440781407E+03  0.20231954170E+03  0.80595819085E+02 0.  0.
          5    1    3    3  501    0  0.53949590864E+02  0.12089637329E+03  0.44436921004E+02  0.13972552157E+03  0.47000000000E+01 0. -1.
        -11    1    4    4    0    0  0.29386411304E+02  0.13059231781E+02 -0.47257666816E+02  0.57161103706E+02  0.00000000000E+00 0.  1.
         12    1    4    4    0    0  0.28600263252E+01 -0.14371015348E+02  0.28109047841E+02  0.31698965334E+02  0.00000000000E+00 0. -1.
         -5    1    5    5    0  502 -0.65576377333E+02 -0.11711497461E+03  0.15505622853E+03  0.20513581489E+03  0.47000000000E+01 0.  1.
         11    1    6    6    0    0  0.28442702177E+02 -0.12712693744E+01  0.35346478556E+02  0.45386969268E+02  0.00000000000E+00 0. -1.
        -12    1    6    6    0    0 -0.49062353337E+02 -0.11983457376E+01  0.14906133551E+03  0.15693257244E+03  0.00000000000E+00 0.  1.
</event>
<event>
12    1  0.8052519E-002  0.2184167E+03  0.7818608E-02  0.1135097E+00
         21   -1    0    0  501  502  0.00000000000E+00  0.00000000000E+00  0.26069208390E+03  0.26069208390E+03  0.00000000000E+00 0. -1.
         21   -1    0    0  502  503 -0.00000000000E+00 -0.00000000000E+00 -0.34478071665E+03  0.34478071665E+03  0.00000000000E+00 0.  1.
         -6    2    1    2    0  503 -0.94276317081E+02 -0.94466678191E+02 -0.24950738688E+03  0.33160183961E+03  0.17289842878E+03 0.  0.
        -24    2    3    3    0    0 -0.88602453124E+02 -0.42187767841E-01 -0.16499770358E+03  0.20466818097E+03  0.82549534440E+02 0.  0.
          6    2    1    2  501    0  0.94276317081E+02  0.94466678191E+02  0.16541875413E+03  0.27387096094E+03  0.17271352517E+03 0.  0.
         24    2    5    5    0    0  0.90909381427E+02  0.38303802533E+02  0.34203678843E+02  0.13102457197E+03  0.79157121566E+02 0.  0.
          5    1    5    5  501    0  0.33669356541E+01  0.56162875658E+02  0.13121507529E+03  0.14284638897E+03  0.47000000000E+01 0. -1.
        -13    1    6    6    0    0  0.73154097297E+02 -0.10382057760E+02  0.27182742646E+02  0.78728715043E+02  0.00000000000E+00 0.  1.
         14    1    6    6    0    0  0.17755284130E+02  0.48685860293E+02  0.70209361976E+01  0.52295856931E+02  0.00000000000E+00 0. -1.
         -5    1    3    3    0  503 -0.56738639572E+01 -0.94424490423E+02 -0.84509683296E+02  0.12693365864E+03  0.47000000000E+01 0.  1.
         11    1    4    4    0    0  0.13601829367E+02  0.10540124508E+02 -0.34686702394E+02  0.38720424968E+02  0.00000000000E+00 0. -1.
        -12    1    4    4    0    0 -0.10220428249E+03 -0.10582312276E+02 -0.13031100119E+03  0.16594775601E+03  0.00000000000E+00 0.  1.
</event>
<event>
12    1  0.8052519E-002  0.1797535E+03  0.7818608E-02  0.1168391E+00
         21   -1    0    0  501  502  0.00000000000E+00  0.00000000000E+00  0.60119643784E+02  0.60119643784E+02  0.00000000000E+00 0.  1.
         21   -1    0    0  502  503 -0.00000000000E+00 -0.00000000000E+00 -0.18837815766E+04  0.18837815766E+04  0.00000000000E+00 0.  1.
         -6    2    1    2    0  503  0.49621746691E+02  0.85213234401E+01 -0.17358545956E+04  0.17451368112E+04  0.17255834371E+03 0.  0.
        -24    2    3    3    0    0 -0.19586904750E+02  0.50039160713E+02 -0.81270423267E+03  0.81845334267E+03  0.80561404395E+02 0.  0.
          6    2    1    2  501    0 -0.49621746691E+02 -0.85213234401E+01 -0.87807337171E+02  0.19876440916E+03  0.17106206823E+03 0.  0.
         24    2    5    5    0    0 -0.87001160457E+02  0.33275964762E+02 -0.63096936896E+02  0.13730769466E+03  0.78712691583E+02 0.  0.
          5    1    5    5  501    0  0.37379413766E+02 -0.41797288202E+02 -0.24710400275E+02  0.61456714493E+02  0.47000000000E+01 0. -1.
        -13    1    6    6    0    0 -0.66413739319E+02  0.95716321632E+00 -0.35736873394E+01  0.66516705969E+02  0.00000000000E+00 0.  1.
         14    1    6    6    0    0 -0.20587421138E+02  0.32318801545E+02 -0.59523249557E+02  0.70790988693E+02  0.00000000000E+00 0. -1.
         -5    1    3    3    0  503  0.69208651441E+02 -0.41517837273E+02 -0.92315036294E+03  0.92668346852E+03  0.47000000000E+01 0.  1.
         11    1    4    4    0    0  0.16252745325E+02  0.56240672168E+02 -0.41851214874E+03  0.42258677639E+03  0.00000000000E+00 0. -1.
        -12    1    4    4    0    0 -0.35839650075E+02 -0.62015114553E+01 -0.39419208393E+03  0.39586656628E+03  0.00000000000E+00 0.  1.
</event>
<event>
12    1  0.8052519E-002  0.1898256E+03  0.7818608E-02  0.1158745E+00
         21   -1    0    0  503  502  0.00000000000E+00  0.00000000000E+00  0.69821506468E+03  0.69821506468E+03  0.00000000000E+00 0. -1.
         21   -1    0    0  501  503 -0.00000000000E+00 -0.00000000000E+00 -0.62674003785E+02  0.62674003785E+02  0.00000000000E+00 0. -1.
          6    2    1    2  501    0  0.74472310096E+02  0.48809406862E+02  0.47833744791E+03  0.51442053304E+03  0.16701283656E+03 0.  0.
         24    2    3    3    0    0 -0.97910199879E+01 -0.16581952902E+02  0.22415550732E+03  0.23872706622E+03  0.79837932395E+02 0.  0.
         -6    2    1    2    0  502 -0.74472310096E+02 -0.48809406862E+02  0.15720361299E+03  0.24646853542E+03  0.16764629387E+03 0.  0.
        -24    2    5    5    0    0  0.19734245197E+02  0.95201948080E+00  0.93597823398E+02  0.12229582876E+03  0.76192981380E+02 0.  0.
          5    1    3    3  501    0  0.84263330084E+02  0.65391359764E+02  0.25418194058E+03  0.27569346682E+03  0.47000000000E+01 0. -1.
        -11    1    4    4    0    0  0.21483569900E+02 -0.33012819306E+02  0.16661084271E+03  0.17120327953E+03  0.00000000000E+00 0.  1.
         12    1    4    4    0    0 -0.31274589888E+02  0.16430866404E+02  0.57544664615E+02  0.67523786691E+02  0.00000000000E+00 0. -1.
         -5    1    5    5    0  502 -0.94206555293E+02 -0.49761426343E+02  0.63605789590E+02  0.12417270667E+03  0.47000000000E+01 0.  1.
         13    1    6    6    0    0 -0.25040051039E+02  0.10074096151E+02  0.59326884580E+02  0.65177993243E+02  0.00000000000E+00 0. -1.
        -14    1    6    6    0    0  0.44774296235E+02 -0.91220766703E+01  0.34270938819E+02  0.57117835513E+02  0.00000000000E+00 0.  1.
</event>
<event>
12    1  0.8052519E-002  0.1739412E+03  0.7818608E-02  0.1174049E+00
         21   -1    0    0  501  502  0.00000000000E+00  0.00000000000E+00  0.33494322035E+03  0.33494322035E+03  0.00000000000E+00 0.  1.
         21   -1    0    0  502  503 -0.00000000000E+00 -0.00000000000E+00 -0.14139959825E+03  0.14139959825E+03  0.00000000000E+00 0.  1.
         -6    2    1    2    0  503  0.90663381497E+00  0.16837457089E+02  0.24079534543E+03  0.29704869645E+03  0.17312194470E+03 0.  0.
        -24    2    3    3    0    0  0.58853440643E+02 -0.26939661416E+02  0.15482366937E+03  0.18440994819E+03  0.76466905003E+02 0.  0.
          6    2    1    2  501    0 -0.90663381497E+00 -0.16837457089E+02 -0.47251723331E+02  0.17929412214E+03  0.17213173714E+03 0.  0.
         24    2    5    5    0    0 -0.11212610084E+02 -0.18710703216E+02 -0.97924246817E+02  0.12733724739E+03  0.78420682337E+02 0.  0.
          5    1    5    5  501    0  0.10305976269E+02  0.18732461268E+01  0.50672523486E+02  0.51956874756E+02  0.47000000000E+01 0. -1.
        -13    1    6    6    0    0 -0.16596804585E+02 -0.16300842198E+02  0.53698817351E+01  0.23874819552E+02  0.00000000000E+00 0.  1.
         14    1    6    6    0    0  0.53841945008E+01 -0.24098610175E+01 -0.10329412855E+03  0.10346242784E+03  0.00000000000E+00 0. -1.
         -5    1    3    3    0  503 -0.57946806828E+02  0.43777118505E+02  0.85971676058E+02  0.11263874826E+03  0.47000000000E+01 0.  1.
         11    1    4    4    0    0 -0.42318801140E+01 -0.25966755741E+02  0.13344526303E+02  0.29500128733E+02  0.00000000000E+00 0. -1.
        -12    1    4    4    0    0  0.63085320757E+02 -0.97290567513E+00  0.14147914307E+03  0.15490981946E+03  0.00000000000E+00 0.  1.
</event>
<event>
12    1  0.8052519E-002  0.2128701E+03  0.7818608E-02  0.1139382E+00
         21   -1    0    0  503  502  0.00000000000E+00  0.00000000000E+00  0.64872189992E+02  0.64872189992E+02  0.00000000000E+00 0.  1.
         21   -1    0    0  501  503 -0.00000000000E+00 -0.00000000000E+00 -0.71953115001E+03  0.71953115001E+03  0.00000000000E+00 0. -1.
          6    2    1    2  501    0  0.73341928385E+02  0.10083259773E+03 -0.39646726189E+03  0.44999995404E+03  0.17253236699E+03 0.  0.
         24    2    3    3    0    0  0.17463254615E+02 -0.28047348573E+02 -0.12016686364E+03  0.14000565277E+03  0.63795679076E+02 0.  0.
         -6    2    1    2    0  502 -0.73341928385E+02 -0.10083259773E+03 -0.25819169813E+03  0.33440338597E+03  0.17209421937E+03 0.  0.
        -24    2    5    5    0    0 -0.93632585209E+02 -0.82131180572E+02 -0.11748810590E+03  0.19094243440E+03  0.84516071798E+02 0.  0.
          5    1    3    3  501    0  0.55878673770E+02  0.12887994630E+03 -0.27630039825E+03  0.30999430126E+03  0.47000000000E+01 0. -1.
        -13    1    4    4    0    0  0.40173640822E+02 -0.28059353390E+02 -0.85959701275E+02  0.98946040713E+02  0.00000000000E+00 0.  1.
         14    1    4    4    0    0 -0.22710386207E+02  0.12004816992E-01 -0.34207162361E+02  0.41059612061E+02  0.00000000000E+00 0. -1.
         -5    1    5    5    0  502  0.20290656824E+02 -0.18701417153E+02 -0.14070359223E+03  0.14346095156E+03  0.47000000000E+01 0.  1.
         13    1    6    6    0    0 -0.79176413346E+01  0.12765894346E+02 -0.36772205389E+02  0.39722187653E+02  0.00000000000E+00 0. -1.
        -14    1    6    6    0    0 -0.85714943874E+02 -0.94897074918E+02 -0.80715900512E+02  0.15122024675E+03  0.00000000000E+00 0.  1.
</event>
<event>
12    1  0.8052519E-002  0.1753250E+03  0.7818608E-02  0.1172428E+00
         21   -1    0    0  503  502  0.00000000000E+00  0.00000000000E+00  0.43594157102E+03  0.43594157102E+03  0.00000000000E+00 0. -1.
         21   -1    0    0  501  503 -0.00000000000E+00 -0.00000000000E+00 -0.16056475332E+03  0.16056475332E+03  0.00000000000E+00 0. -1.
          6    2    1    2  501    0 -0.33285347008E+02 -0.27959586446E+01 -0.85703019474E+02  0.19515087065E+03  0.17211369224E+03 0.  0.
         24    2    3    3    0    0 -0.67500722348E+00  0.45353593754E+02  0.16175050473E+01  0.90132883330E+02  0.77871151485E+02 0.  0.
         -6    2    1    2    0  502  0.33285347008E+02  0.27959586446E+01  0.36107983717E+03  0.40135545370E+03  0.17202273016E+03 0.  0.
        -24    2    5    5    0    0  0.10407044773E+02  0.33377085341E+02  0.69528550834E+02  0.10727576282E+03  0.73834500743E+02 0.  0.
          5    1    3    3  501    0 -0.32610339785E+02 -0.48149552399E+02 -0.87320524522E+02  0.10501798732E+03  0.47000000000E+01 0. -1.
        -11    1    4    4    0    0 -0.27981177394E+02 -0.52132350403E+01 -0.12294380539E+02  0.31004449693E+02  0.00000000000E+00 0.  1.
         12    1    4    4    0    0  0.27306170171E+02  0.50566828794E+02  0.13911885586E+02  0.59128433636E+02  0.00000000000E+00 0. -1.
         -5    1    5    5    0  502  0.22878302235E+02 -0.30581126696E+02  0.29155128634E+03  0.29407969088E+03  0.47000000000E+01 0.  1.
         11    1    6    6    0    0 -0.13137624768E+02  0.43845000260E+02  0.17106095470E+02  0.48863071277E+02  0.00000000000E+00 0. -1.
        -12    1    6    6    0    0  0.23544669541E+02 -0.10467914920E+02  0.52422455364E+02  0.58412691540E+02  0.00000000000E+00 0.  1.
</event>
<event>
12    1  0.8052519E-002  0.1983948E+03  0.7818608E-02  0.1151376E+00
         21   -1    0    0  501  502  0.00000000000E+00  0.00000000000E+00  0.46577526034E+02  0.46577526034E+02  0.00000000000E+00 0.  1.
         21   -1    0    0  502  503 -0.00000000000E+00 -0.00000000000E+00 -0.10988312187E+04  0.10988312187E+04  0.00000000000E+00 0.  1.
         -6    2    1    2    0  503 -0.89210117048E+02  0.35396850373E+02 -0.80299826357E+03  0.82683575738E+03  0.17216206431E+03 0.  0.
        -24    2    3    3    0    0 -0.10807450748E+03  0.28431294230E+02 -0.79112884132E+03  0.80301649242E+03  0.80387846523E+02 0.  0.
          6    2    1    2  501    0  0.89210117048E+02 -0.35396850373E+02 -0.24925542912E+03  0.31857298737E+03  0.17363495426E+03 0.  0.
         24    2    5    5    0    0  0.11660601335E+03  0.15154806093E+02 -0.18144662071E+03  0.22954417404E+03  0.77078020024E+02 0.  0.
          5    1    5    5  501    0 -0.27395896307E+02 -0.50551656466E+02 -0.67808808413E+02  0.89028813337E+02  0.47000000000E+01 0. -1.
        -13    1    6    6    0    0  0.23382248427E+02  0.22276090472E+02 -0.92345792839E+01  0.33589153053E+02  0.00000000000E+00 0.  1.
         14    1    6    6    0    0  0.93223764928E+02 -0.71212843794E+01 -0.17221204142E+03  0.19595502098E+03  0.00000000000E+00 0. -1.
         -5    1    3    3    0  503  0.18864390435E+02  0.69655561423E+01 -0.11869422250E+02  0.23819264963E+02  0.47000000000E+01 0.  1.
         13    1    4    4    0    0 -0.11896227294E+00  0.26335426981E+02 -0.23756498167E+03  0.23902026982E+03  0.00000000000E+00 0. -1.
        -14    1    4    4    0    0 -0.10795554521E+03  0.20958672490E+01 -0.55356385965E+03  0.56399622260E+03  0.00000000000E+00 0.  1.
</event>
<event>
12    1  0.8052519E-002  0.1786548E+03  0.7818608E-02  0.1169764E+00
         21   -1    0    0  503  502  0.00000000000E+00  0.00000000000E+00  0.32826251055E+03  0.32826251055E+03  0.00000000000E+00 0. -1.
         21   -1    0    0  501  503 -0.00000000000E+00 -0.00000000000E+00 -0.99628495720E+02  0.99628495720E+02  0.00000000000E+00 0. -1.
          6    2    1    2  501    0  0.27066780292E+02  0.44503963996E-01  0.71523027695E+02  0.18998053777E+03  0.17390931161E+03 0.  0.
         24    2    3    3    0    0  0.70831006466E+02 -0.20763079704E+02  0.86935563022E+02  0.13891294261E+03  0.79315046174E+02 0.  0.
         -6    2    1    2    0  502 -0.27066780292E+02 -0.44503963996E-01  0.15711098713E+03  0.23791046850E+03  0.17659251447E+03 0.  0.
        -24    2    5    5    0    0 -0.22462630470E+02  0.30129349955E+02  0.12387332350E+02  0.89928422593E+02  0.80754737886E+02 0.  0.
          5    1    3    3  501    0 -0.43764226175E+02  0.20807583668E+02 -0.15412535328E+02  0.51067595165E+02  0.47000000000E+01 0. -1.
        -13    1    4    4    0    0  0.43824077517E+02 -0.33799613463E+02  0.98688075398E+01  0.56217052597E+02  0.00000000000E+00 0.  1.
         14    1    4    4    0    0  0.27006928950E+02  0.13036533759E+02  0.77066755483E+02  0.82695890009E+02  0.00000000000E+00 0. -1.
         -5    1    5    5    0  502 -0.46041498217E+01 -0.30173853919E+02  0.14472365478E+03  0.14798204590E+03  0.47000000000E+01 0.  1.
         11    1    6    6    0    0 -0.29469268242E+02  0.27176350972E+02 -0.27957441324E+02  0.48873411466E+02  0.00000000000E+00 0. -1.
        -12    1    6    6    0    0  0.70066377726E+01  0.29529989834E+01  0.40344773674E+02  0.41055011128E+02  0.00000000000E+00 0.  1.
</event>
<event>
12    1  0.8052519E-002  0.2557439E+03  0.7818608E-02  0.1110340E+00
         21   -1    0    0  501  502  0.00000000000E+00  0.00000000000E+00  0.47382994238E+03  0.47382994238E+03  0.00000000000E+00 0. -1.
         21   -1    0    0  502  503 -0.00000000000E+00 -0.00000000000E+00 -0.29335951609E+03  0.29335951609E+03  0.00000000000E+00 0. -1.
         -6    2    1    2    0  503 -0.13760940423E+03 -0.12251307409E+03 -0.19111197111E+03  0.31610365281E+03  0.17161565303E+03 0.  0.
        -24    2    3    3    0    0 -0.13553115449E+03 -0.88772225877E+02 -0.21036946708E+03  0.27691557923E+03  0.78598495014E+02 0.  0.
          6    2    1    2  501    0  0.13760940423E+03  0.12251307409E+03  0.37158239741E+03  0.45108580566E+03  0.17736720258E+03 0.  0.
         24    2    5    5    0    0  0.10198419758E+03  0.36621391377E+02  0.31523763724E+03  0.34225861004E+03  0.77616269891E+02 0.  0.
          5    1    5    5  501    0  0.35625206652E+02  0.85891682711E+02  0.56344760163E+02  0.10882719562E+03  0.47000000000E+01 0. -1.
        -11    1    6    6    0    0 -0.12174093175E+02  0.62335078552E+00  0.17197017915E+02  0.21079244199E+02  0.00000000000E+00 0.  1.
         12    1    6    6    0    0  0.11415829076E+03  0.35998040592E+02  0.29804061933E+03  0.32117936584E+03  0.00000000000E+00 0. -1.
         -5    1    3    3    0  503 -0.20782497439E+01 -0.33740848211E+02  0.19257495968E+02  0.39188073581E+02  0.47000000000E+01 0.  1.
         13    1    4    4    0    0 -0.88518119457E+02 -0.15027810129E+02 -0.13099181212E+03  0.15880852430E+03  0.00000000000E+00 0. -1.
        -14    1    4    4    0    0 -0.47013035032E+02 -0.73744415748E+02 -0.79377654959E+02  0.11810705493E+03  0.00000000000E+00 0.  1.
</event>
<event>
12    1  0.8052519E-002  0.1871932E+03  0.7818608E-02  0.1161343E+00
         21   -1    0    0  503  502  0.00000000000E+00  0.00000000000E+00  0.18730249490E+03  0.18730249490E+03  0.00000000000E+00 0. -1.
         21   -1    0    0  501  503 -0.00000000000E+00 -0.00000000000E+00 -0.18605283246E+03  0.18605283246E+03  0.00000000000E+00 0. -1.
          6    2    1    2  501    0  0.29623853187E+02  0.63917849822E+02 -0.77642092099E+01  0.18594524720E+03  0.17190778868E+03 0.  0.
         24    2    3    3    0    0 -0.35704395930E+02  0.83257661171E+01 -0.30361542379E+02  0.97114006243E+02  0.84647413917E+02 0.  0.
         -6    2    1    2    0  502 -0.29623853187E+02 -0.63917849822E+02  0.90138716510E+01  0.18741008017E+03  0.17343074717E+03 0.  0.
        -24    2    5    5    0    0  0.27090900096E+02 -0.88463695482E+02  0.43057735291E+01  0.12525448535E+03  0.84323212277E+02 0.  0.
          5    1    3    3  501    0  0.65328249116E+02  0.55592083705E+02  0.22597333169E+02  0.88831240955E+02  0.47000000000E+01 0. -1.
        -13    1    4    4    0    0 -0.18711288272E+02 -0.99733920502E+01 -0.56870692336E+02  0.60694781527E+02  0.00000000000E+00 0.  1.
         14    1    4    4    0    0 -0.16993107657E+02  0.18299158167E+02  0.26509149957E+02  0.36419224716E+02  0.00000000000E+00 0. -1.
         -5    1    5    5    0  502 -0.56714753282E+02  0.24545845661E+02  0.47080981219E+01  0.62155594817E+02  0.47000000000E+01 0.  1.
         13    1    6    6    0    0 -0.59749105469E+01 -0.82621267576E+02 -0.18224632549E+02  0.84818103277E+02  0.00000000000E+00 0. -1.
        -14    1    6    6    0    0  0.33065810642E+02 -0.58424279062E+01  0.22530406078E+02  0.40436382075E+02  0.00000000000E+00 0.  1.
</event>
<event>
12    1  0.8052519E-002  0.2251878E+03  0.7818608E-02  0.1130468E+00
         21   -1    0    0  501  502  0.00000000000E+00  0.00000000000E+00  0.26630307232E+03  0.26630307232E+03  0.00000000000E+00 0.  1.
         21   -1    0    0  502  503 -0.00000000000E+00 -0.00000000000E+00 -0.20113629103E+03  0.20113629103E+03  0.00000000000E+00 0.  1.
         -6    2    1    2    0  503 -0.13703583564E+03 -0.45482448621E+02 -0.25935719490E+02  0.22452121864E+03  0.16996953460E+03 0.  0.
        -24    2    3    3    0    0 -0.19731702310E+02 -0.65284683486E+01 -0.50592589965E+02  0.98395394412E+02  0.81792924554E+02 0.  0.
          6    2    1    2  501    0  0.13703583564E+03  0.45482448621E+02  0.91102500784E+02  0.24291814471E+03  0.17280649871E+03 0.  0.
         24    2    5    5    0    0  0.13814198810E+03  0.87582235029E+02  0.71759863634E+02  0.19633656894E+03  0.81515112138E+02 0.  0.
          5    1    5    5  501    0 -0.11061524584E+01 -0.42099786407E+02  0.19342637150E+02  0.46581575765E+02  0.47000000000E+01 0. -1.
        -11    1    6    6    0    0  0.54348094776E+02  0.44031182355E+02 -0.10954352927E+02  0.70798716609E+02  0.00000000000E+00 0.  1.
         12    1    6    6    0    0  0.83793893322E+02  0.43551052673E+02  0.82714216562E+02  0.12553785233E+03  0.00000000000E+00 0. -1.
         -5    1    3    3    0  503 -0.11730413333E+03 -0.38953980273E+02  0.24656870475E+02  0.12612582423E+03  0.47000000000E+01 0.  1.
         11    1    4    4    0    0 -0.42050386492E+02 -0.21105677841E+02 -0.53885297508E+02  0.71535375366E+02  0.00000000000E+00 0. -1.
        -12    1    4    4    0    0  0.22318684182E+02  0.14577209492E+02  0.32927075424E+01  0.26860019046E+02  0.00000000000E+00 0.  1.
</event>
<event>
12    1  0.8052519E-002  0.1744972E+03  0.7818608E-02  0.1174908E+00
         21   -1    0    0  501  502  0.00000000000E+00  0.00000000000E+00  0.39676824647E+03  0.39676824647E+03  0.00000000000E+00 0.  1.
         21   -1    0    0  502  503 -0.00000000000E+00 -0.00000000000E+00 -0.74536957634E+02  0.74536957634E+02  0.00000000000E+00 0.  1.
         -6    2    1    2    0  503 -0.21205124783E+02  0.12367433119E+02  0.14259723944E+03  0.22535135350E+03  0.17276182770E+03 0.  0.
        -24    2    3    3    0    0 -0.78591348962E+02  0.87615959626E+01  0.70293635019E+02  0.13285226161E+03  0.80344026514E+02 0.  0.
          6    2    1    2  501    0  0.21205124783E+02 -0.12367433119E+02  0.17963404940E+03  0.24595385060E+03  0.16619956139E+03 0.  0.
         24    2    5    5    0    0 -0.28997491405E+02  0.39199832059E+02  0.10955941379E+03  0.14539526039E+03  0.82213352040E+02 0.  0.
          5    1    5    5  501    0  0.50202616187E+02 -0.51567265177E+02  0.70074635605E+02  0.10055859021E+03  0.47000000000E+01 0. -1.
        -13    1    6    6    0    0 -0.15964127330E+02  0.25043011804E+02  0.11991851335E+03  0.12354131149E+03  0.00000000000E+00 0.  1.
         14    1    6    6    0    0 -0.13033364074E+02  0.14156820254E+02 -0.10359099559E+02  0.21853948899E+02  0.00000000000E+00 0. -1.
         -5    1    3    3    0  503  0.57386224179E+02  0.36058371562E+01  0.72303604418E+02  0.92499091882E+02  0.47000000000E+01 0.  1.
         13    1    4    4    0    0 -0.68715109957E+02  0.77648733646E+01  0.88381237810E+02  0.11221988590E+03  0.00000000000E+00 0. -1.
        -14    1    4    4    0    0 -0.98762390047E+01  0.99672259806E+00 -0.18087602792E+02  0.20632375713E+02  0.00000000000E+00 0.  1.
</event>
<event>
12    1  0.8052519E-002  0.2801229E+03  0.7818608E-02  0.1095690E+00
         21   -1    0    0  501  502  0.00000000000E+00  0.00000000000E+00  0.51776538996E+03  0.51776538996E+03  0.00000000000E+00 0. -1.
         21   -1    0    0  502  503 -0.00000000000E+00 -0.00000000000E+00 -0.15184048195E+04  0.15184048195E+04  0.00000000000E+00 0.  1.
         -6    2    1    2    0  503  0.16119813513E+03  0.15098932339E+03 -0.14663129182E+04  0.14927361067E+04  0.17147855750E+03 0.  0.
        -24    2    3    3    0    0  0.91688207600E+02  0.38803345568E+02 -0.97909464749E+03  0.98793807091E+03  0.86503619397E+02 0.  0.
          6    2    1    2  501    0 -0.16119813513E+03 -0.15098932339E+03  0.46567348864E+03  0.54343410275E+03  0.17229687013E+03 0.  0.
         24    2    5    5    0    0 -0.12772330067E+03 -0.26777220749E+02  0.30503491562E+03  0.33757965871E+03  0.62317454589E+02 0.  0.
          5    1    5    5  501    0 -0.33474834463E+02 -0.12421210265E+03  0.16063857303E+03  0.20585444404E+03  0.47000000000E+01 0. -1.
        -11    1    6    6    0    0 -0.21471080225E+02  0.45457131234E+01  0.13640871370E+02  0.25840746227E+02  0.00000000000E+00 0.  1.
         12    1    6    6    0    0 -0.10625222045E+03 -0.31322933872E+02  0.29139404425E+03  0.31173891249E+03  0.00000000000E+00 0. -1.
         -5    1    3    3    0  503  0.69509927534E+02  0.11218597783E+03 -0.48721827067E+03  0.50479803578E+03  0.47000000000E+01 0.  1.
         11    1    4    4    0    0 -0.14726325386E+02 -0.14245436630E+01 -0.58550982509E+02  0.60391320045E+02  0.00000000000E+00 0. -1.
        -12    1    4    4    0    0  0.10641453299E+03  0.40227889231E+02 -0.92054366498E+03  0.92754675086E+03  0.00000000000E+00 0.  1.
</event>
<event>
12    1  0.8052519E-002  0.2131972E+03  0.7818608E-02  0.1142631E+00
         21   -1    0    0  503  502  0.00000000000E+00  0.00000000000E+00  0.11125259565E+03  0.11125259565E+03  0.00000000000E+00 0.  1.
         21   -1    0    0  501  503 -0.00000000000E+00 -0.00000000000E+00 -0.39624083476E+03  0.39624083476E+03  0.00000000000E+00 0.  1.
          6    2    1    2  501    0  0.65385464178E+02 -0.69872348844E+02 -0.20620642535E+03  0.29660436571E+03  0.19051418804E+03 0.  0.
         24    2    3    3    0    0  0.10362325338E+03 -0.31132222340E+02 -0.72412715161E+02  0.15208525690E+03  0.78608715427E+02 0.  0.
         -6    2    1    2    0  502 -0.65385464178E+02  0.69872348844E+02 -0.78781813755E+02  0.21088906470E+03  0.17061717198E+03 0.  0.
        -24    2    5    5    0    0  0.26735410754E+02  0.17687634472E+02 -0.47747437473E+01  0.81627173864E+02  0.74917039008E+02 0.  0.
          5    1    3    3  501    0 -0.38237789202E+02 -0.38740126505E+02 -0.13379371019E+03  0.14451910881E+03  0.47000000000E+01 0. -1.
        -11    1    4    4    0    0  0.18765646261E+02  0.83773585801E+01 -0.52509906889E+02  0.56388118766E+02  0.00000000000E+00 0.  1.
         12    1    4    4    0    0  0.84857607119E+02 -0.39509580920E+02 -0.19902808272E+02  0.95697138136E+02  0.00000000000E+00 0. -1.
         -5    1    5    5    0  502 -0.92120874933E+02  0.52184714372E+02 -0.74007070008E+02  0.12926189084E+03  0.47000000000E+01 0.  1.
         11    1    6    6    0    0  0.27758399655E+02  0.10765662385E+02 -0.37659101780E+02  0.48006626469E+02  0.00000000000E+00 0. -1.
        -12    1    6    6    0    0 -0.10229889008E+01  0.69219720872E+01  0.32884358033E+02  0.33620547395E+02  0.00000000000E+00 0.  1.
</event>
<event>
12    1  0.8052519E-002  0.2101101E+03  0.7818608E-02  0.1141600E+00
         21   -1    0    0  503  502  0.00000000000E+00  0.00000000000E+00  0.54449829920E+03  0.54449829920E+03  0.00000000000E+00 0. -1.
         21   -1    0    0  501  503 -0.00000000000E+00 -0.00000000000E+00 -0.12556914351E+03  0.12556914351E+03  0.00000000000E+00 0. -1.
          6    2    1    2  501    0 -0.76789035295E+02 -0.89659718086E+02  0.97028472385E+01  0.21033402492E+03  0.17381264570E+03 0.  0.
         24    2    3    3    0    0  0.27898756980E+02 -0.25947896513E+02  0.32678914059E+02  0.85559349176E+02  0.69288215685E+02 0.  0.
         -6    2    1    2    0  502  0.76789035295E+02  0.89659718086E+02  0.40922630845E+03  0.45973341779E+03  0.17306999427E+03 0.  0.
        -24    2    5    5    0    0  0.35785970170E+02  0.53980813377E+02  0.38787166893E+03  0.40114718886E+03  0.79246903401E+02 0.  0.
          5    1    3    3  501    0 -0.10468779227E+03 -0.63711821573E+02 -0.22976066821E+02  0.12477467574E+03  0.47000000000E+01 0. -1.
        -13    1    4    4    0    0  0.19028074018E+02  0.17322980156E+02 -0.64735797886E+01  0.26534137966E+02  0.00000000000E+00 0.  1.
         14    1    4    4    0    0  0.88706829618E+01 -0.43270876668E+02  0.39152493848E+02  0.59025211210E+02  0.00000000000E+00 0. -1.
         -5    1    5    5    0  502  0.41003065125E+02  0.35678904708E+02  0.21354639518E+02  0.58586228926E+02  0.47000000000E+01 0.  1.
         11    1    6    6    0    0  0.57754422112E+02  0.20606469338E+02  0.26228017119E+03  0.26935309178E+03  0.00000000000E+00 0. -1.
        -12    1    6    6    0    0 -0.21968451942E+02  0.33374344039E+02  0.12559149774E+03  0.13179409708E+03  0.00000000000E+00 0.  1.
</event>
<event>
12    1  0.8052519E-002  0.2748546E+03  0.7818608E-02  0.1100624E+00
         21   -1    0    0  501  502  0.00000000000E+00  0.00000000000E+00  0.55640821024E+03  0.55640821024E+03  0.00000000000E+00 0. -1.
         21   -1    0    0  502  503 -0.00000000000E+00 -0.00000000000E+00 -0.31436612849E+03  0.31436612849E+03  0.00000000000E+00 0.  1.
         -6    2    1    2    0  503  0.12204220855E+03  0.15383332653E+03 -0.21219073261E+03  0.34723184666E+03  0.19231758970E+03 0.  0.
        -24    2    3    3    0    0  0.12026184702E+03  0.14469216332E+03 -0.87612761162E+02  0.22221788135E+03  0.79410685042E+02 0.  0.
          6    2    1    2  501    0 -0.12204220855E+03 -0.15383332653E+03  0.45423281436E+03  0.52354249207E+03  0.17091020550E+03 0.  0.
         24    2    5    5    0    0 -0.42027318973E+02 -0.13661186206E+02  0.22212910776E+03  0.24079732042E+03  0.81786829358E+02 0.  0.
          5    1    5    5  501    0 -0.80014889582E+02 -0.14017214032E+03  0.23210370659E+03  0.28274517165E+03  0.47000000000E+01 0. -1.
        -13    1    6    6    0    0 -0.59344874289E+02 -0.60635251996E+00  0.96343693260E+02  0.11315603828E+03  0.00000000000E+00 0.  1.
         14    1    6    6    0    0  0.17317555317E+02 -0.13054833686E+02  0.12578541450E+03  0.12764128214E+03  0.00000000000E+00 0. -1.
         -5    1    3    3    0  503  0.17803615313E+01  0.91411632137E+01 -0.12457797145E+03  0.12501396531E+03  0.47000000000E+01 0.  1.
         11    1    4    4    0    0  0.27306298023E+02  0.75109354421E+00  0.44943173939E+01  0.27683875128E+02  0.00000000000E+00 0. -1.
        -12    1    4    4    0    0  0.92955549000E+02  0.14394106977E+03 -0.92107078556E+02  0.19453400622E+03  0.00000000000E+00 0.  1.
</event>
<event>
12    1  0.8052519E-002  0.3583761E+03  0.7818608E-02  0.1059276E+00
         21   -1    0    0  501  502  0.00000000000E+00  0.00000000000E+00  0.66510537076E+02  0.66510537076E+02  0.00000000000E+00 0. -1.
         21   -1    0    0  502  503 -0.00000000000E+00 -0.00000000000E+00 -0.19807609496E+04  0.19807609496E+04  0.00000000000E+00 0. -1.
         -6    2    1    2    0  503  0.25915644575E+03 -0.17729493379E+03 -0.79143694217E+03  0.86879564796E+03  0.17273646852E+03 0.  0.
        -24    2    3    3    0    0  0.18446942038E+03 -0.13174163911E+03 -0.38632809834E+03  0.45432186138E+03  0.75987680750E+02 0.  0.
          6    2    1    2  501    0 -0.25915644575E+03  0.17729493379E+03 -0.11228134703E+04  0.11784758387E+04  0.17175463986E+03 0.  0.
         24    2    5    5    0    0 -0.12123770848E+03  0.10149529853E+03 -0.38523756255E+03  0.42428257929E+03  0.81288682538E+02 0.  0.
          5    1    5    5  501    0 -0.13791873727E+03  0.75799635252E+02 -0.73757590776E+03  0.75419325939E+03  0.47000000000E+01 0. -1.
        -13    1    6    6    0    0 -0.84554841668E+02  0.85669721676E+02 -0.35296478762E+03  0.37292487683E+03  0.00000000000E+00 0.  1.
         14    1    6    6    0    0 -0.36682866808E+02  0.15825576857E+02 -0.32272774936E+02  0.51357702462E+02  0.00000000000E+00 0. -1.
         -5    1    3    3    0  503  0.74687025370E+02 -0.45553294680E+02 -0.40510884383E+03  0.41447378658E+03  0.47000000000E+01 0.  1.
         13    1    4    4    0    0  0.95919601873E+02 -0.90120845834E+02 -0.28250615769E+03  0.31166017713E+03  0.00000000000E+00 0. -1.
        -14    1    4    4    0    0  0.88549818508E+02 -0.41620793271E+02 -0.10382194065E+03  0.14266168424E+03  0.00000000000E+00 0.  1.
</event>
<event>
12    1  0.8052519E-002  0.2581083E+03  0.7818608E-02  0.1108361E+00
         21   -1    0    0  501  502  0.00000000000E+00  0.00000000000E+00  0.69137710439E+02  0.69137710439E+02  0.00000000000E+00 0.  1.
         21   -1    0    0  502  503 -0.00000000000E+00 -0.00000000000E+00 -0.97876330977E+03  0.97876330977E+03  0.00000000000E+00 0. -1.
         -6    2    1    2    0  503  0.21550548845E+02  0.19047684478E+03 -0.52438709437E+03  0.58446704599E+03  0.17284110782E+03 0.  0.
        -24    2    3    3    0    0  0.40190400226E+02  0.44298879587E+02 -0.12872247170E+03  0.16222537917E+03  0.78548965127E+02 0.  0.
          6    2    1    2  501    0 -0.21550548845E+02 -0.19047684478E+03 -0.38523850496E+03  0.46343397422E+03  0.17209441654E+03 0.  0.
         24    2    5    5    0    0 -0.26227887370E+02 -0.11571265880E+03 -0.11465476808E+03  0.18263295986E+03  0.78305559845E+02 0.  0.
          5    1    5    5  501    0  0.46773385253E+01 -0.74764185983E+02 -0.27058373687E+03  0.28080101435E+03  0.47000000000E+01 0. -1.
        -13    1    6    6    0    0 -0.52337127415E+02 -0.94375439189E+02 -0.93816767749E+02  0.14299470039E+03  0.00000000000E+00 0.  1.
         14    1    6    6    0    0  0.26109240045E+02 -0.21337219606E+02 -0.20838000333E+02  0.39638259474E+02  0.00000000000E+00 0. -1.
         -5    1    3    3    0  503 -0.18639851381E+02  0.14617796519E+03 -0.39566462267E+03  0.42224166682E+03  0.47000000000E+01 0.  1.
         13    1    4    4    0    0  0.45238472168E+02  0.42458392574E+02 -0.13811194789E+03  0.15140721454E+03  0.00000000000E+00 0. -1.
        -14    1    4    4    0    0 -0.50480719418E+01  0.18404870131E+01  0.93894761916E+01  0.10818164628E+02  0.00000000000E+00 0.  1.
</event>
<event>
12    1  0.8052519E-002  0.3330503E+03  0.7818608E-02  0.1069841E+00
         21   -1    0    0  501  502  0.00000000000E+00  0.00000000000E+00  0.34130430697E+03  0.34130430697E+03  0.00000000000E+00 0.  1.
         21   -1    0    0  502  503 -0.00000000000E+00 -0.00000000000E+00 -0.35775489819E+03  0.35775489819E+03  0.00000000000E+00 0.  1.
         -6    2    1    2    0  503  0.18654903612E+03 -0.21646204650E+03  0.98204875294E+02  0.34682575118E+03  0.17025728677E+03 0.  0.
        -24    2    3    3    0    0  0.11939578154E+03 -0.49294743164E+02  0.60337923491E+02  0.16267781353E+03  0.78345910221E+02 0.  0.
          6    2    1    2  501    0 -0.18654903612E+03  0.21646204650E+03 -0.11465546652E+03  0.35223345397E+03  0.17107357961E+03 0.  0.
         24    2    5    5    0    0 -0.72825922509E+02  0.16401880991E+03 -0.26163167948E+02  0.19881827695E+03  0.81476443832E+02 0.  0.
          5    1    5    5  501    0 -0.11372311362E+03  0.52443236592E+02 -0.88492298569E+02  0.15341517702E+03  0.47000000000E+01 0. -1.
        -13    1    6    6    0    0 -0.66400688733E+02  0.51316530202E+02 -0.58776301907E+01  0.84124813657E+02  0.00000000000E+00 0.  1.
         14    1    6    6    0    0 -0.64252337758E+01  0.11270227971E+03 -0.20285537757E+02  0.11469346329E+03  0.00000000000E+00 0. -1.
         -5    1    3    3    0  503  0.67153254582E+02 -0.16716730334E+03  0.37866951802E+02  0.18414793766E+03  0.47000000000E+01 0.  1.
         11    1    4    4    0    0  0.13700479119E+02 -0.20571850224E+02 -0.15755407353E+02  0.29311039057E+02  0.00000000000E+00 0. -1.
        -12    1    4    4    0    0  0.10569530242E+03 -0.28722892940E+02  0.76093330844E+02  0.13336677447E+03  0.00000000000E+00 0.  1.
</event>
<event>
12    1  0.8052519E-002  0.2605955E+03  0.7818608E-02  0.1106970E+00
         21   -1    0    0  503  502  0.00000000000E+00  0.00000000000E+00  0.10719116917E+04  0.10719116917E+04  0.00000000000E+00 0. -1.
         21   -1    0    0  501  503 -0.00000000000E+00 -0.00000000000E+00 -0.63558970822E+02  0.63558970822E+02  0.00000000000E+00 0.  1.
          6    2    1    2  501    0  0.14674917264E+03  0.12688028714E+03  0.45487888196E+03  0.52423733764E+03  0.17400017813E+03 0.  0.
         24    2    3    3    0    0  0.15466858119E+03  0.15191230336E+03  0.37847122528E+03  0.44330811630E+03  0.79258436100E+02 0.  0.
         -6    2    1    2    0  502 -0.14674917264E+03 -0.12688028714E+03  0.55347383889E+03  0.61123332485E+03  0.17215969371E+03 0.  0.
        -24    2    5    5    0    0 -0.10305260914E+03 -0.58333307774E+02  0.48436471870E+03  0.50443333171E+03  0.76296725803E+02 0.  0.
          5    1    3    3  501    0 -0.79194085490E+01 -0.25032016219E+02  0.76407656679E+02  0.80929221341E+02  0.47000000000E+01 0. -1.
        -11    1    4    4    0    0  0.47903681784E+02  0.49064194309E+02  0.56506900911E+02  0.88854306267E+02  0.00000000000E+00 0.  1.
         12    1    4    4    0    0  0.10676489940E+03  0.10284810905E+03  0.32196432437E+03  0.35445381003E+03  0.00000000000E+00 0. -1.
         -5    1    5    5    0  502 -0.43696563503E+02 -0.68546979367E+02  0.69109120186E+02  0.10679999314E+03  0.47000000000E+01 0.  1.
         13    1    6    6    0    0 -0.43876025352E+02 -0.37400454661E+02  0.36543910872E+03  0.36995897312E+03  0.00000000000E+00 0. -1.
        -14    1    6    6    0    0 -0.59176583785E+02 -0.20932853113E+02  0.11892560998E+03  0.13447435859E+03  0.00000000000E+00 0.  1.
</event>
<event>
12    1  0.8052519E-002  0.2963938E+03  0.7818608E-02  0.1087857E+00
         21   -1    0    0  501  502  0.00000000000E+00  0.00000000000E+00  0.62538049625E+03  0.62538049625E+03  0.00000000000E+00 0.  1.
         21   -1    0    0  502  503 -0.00000000000E+00 -0.00000000000E+00 -0.16280893402E+03  0.16280893402E+03  0.00000000000E+00 0. -1.
         -6    2    1    2    0  503  0.49475093592E+02  0.22876174941E+03  0.73952636354E+02  0.29944209443E+03  0.17151341818E+03 0.  0.
        -24    2    3    3    0    0  0.85823556861E+02  0.15647892230E+03  0.80189796608E+01  0.19496551829E+03  0.78076329657E+02 0.  0.
          6    2    1    2  501    0 -0.49475093592E+02 -0.22876174941E+03  0.38861892587E+03  0.48874733584E+03  0.18185039419E+03 0.  0.
         24    2    5    5    0    0 -0.93566936765E+02 -0.11845187878E+03  0.27470439442E+03  0.32409324792E+03  0.82391199742E+02 0.  0.
          5    1    5    5  501    0  0.44091843173E+02 -0.11030987062E+03  0.11391453145E+03  0.16465408792E+03  0.47000000000E+01 0. -1.
        -11    1    6    6    0    0 -0.77327024959E+02 -0.13041127530E+03  0.23732161885E+03  0.28161697443E+03  0.00000000000E+00 0.  1.
         12    1    6    6    0    0 -0.16239911806E+02  0.11959396520E+02  0.37382775568E+02  0.42476273492E+02  0.00000000000E+00 0. -1.
         -5    1    3    3    0  503 -0.36348463269E+02  0.72282827110E+02  0.65933656693E+02  0.10447657614E+03  0.47000000000E+01 0.  1.
         13    1    4    4    0    0 -0.22132484183E+01  0.53829344846E+02 -0.18876233242E+02  0.57085979158E+02  0.00000000000E+00 0. -1.
        -14    1    4    4    0    0  0.88036805279E+02  0.10264957745E+03  0.26895212903E+02  0.13787953913E+03  0.00000000000E+00 0.  1.
</event>
<event>
12    1  0.8052519E-002  0.1881656E+03  0.7818608E-02  0.1160381E+00
         21   -1    0    0  503  502  0.00000000000E+00  0.00000000000E+00  0.48062593448E+03  0.48062593448E+03  0.00000000000E+00 0.  1.
         21   -1    0    0  501  503 -0.00000000000E+00 -0.00000000000E+00 -0.73234970538E+02  0.73234970538E+02  0.00000000000E+00 0.  1.
          6    2    1    2  501    0 -0.57490567237E+02  0.44215294749E+02  0.20177369100E+03  0.27514108650E+03  0.17242342501E+03 0.  0.
         24    2    3    3    0    0 -0.22959789035E+02 -0.10785156465E+02  0.19182639351E+03  0.20927407652E+03  0.79717014122E+02 0.  0.
         -6    2    1    2    0  502  0.57490567237E+02 -0.44215294749E+02  0.20561727294E+03  0.27871981851E+03  0.17362637095E+03 0.  0.
        -24    2    5    5    0    0  0.59382158543E+02  0.37561181584E+02  0.15820645713E+03  0.18405807516E+03  0.62538059122E+02 0.  0.
          5    1    3    3  501    0 -0.34530778202E+02  0.55000451214E+02  0.99472974813E+01  0.65867009983E+02  0.47000000000E+01 0. -1.
        -13    1    4    4    0    0 -0.10717952363E+02  0.34062871136E+02  0.64483879897E+02  0.73711087765E+02  0.00000000000E+00 0.  1.
         14    1    4    4    0    0 -0.12241836673E+02 -0.44848027602E+02  0.12734251362E+03  0.13556298875E+03  0.00000000000E+00 0. -1.
         -5    1    5    5    0  502 -0.18915913059E+01 -0.81776476333E+02  0.47410815813E+02  0.94661743355E+02  0.47000000000E+01 0.  1.
         11    1    6    6    0    0  0.54427829645E+02 -0.16032689519E+01  0.86789005594E+02  0.10245628630E+03  0.00000000000E+00 0. -1.
        -12    1    6    6    0    0  0.49543288981E+01  0.39164450536E+02  0.71417451535E+02  0.81601788855E+02  0.00000000000E+00 0.  1.
</event>
<event>
12    1  0.8052519E-002  0.1812294E+03  0.7818608E-02  0.1167007E+00
         21   -1    0    0  501  502  0.00000000000E+00  0.00000000000E+00  0.11562708566E+03  0.11562708566E+03  0.00000000000E+00 0. -1.
         21   -1    0    0  502  503 -0.00000000000E+00 -0.00000000000E+00 -0.33193938929E+03  0.33193938929E+03  0.00000000000E+00 0. -1.
         -6    2    1    2    0  503 -0.59818464189E+02 -0.74599993741E+00 -0.21359789713E+02  0.18248383113E+03  0.17107104616E+03 0.  0.
        -24    2    3    3    0    0 -0.52274859694E+01  0.49316953865E+02 -0.46120108144E+02  0.10424293636E+03  0.79246683575E+02 0.  0.
          6    2    1    2  501    0  0.59818464189E+02  0.74599993741E+00 -0.19495251392E+03  0.26508264382E+03  0.16936209787E+03 0.  0.
         24    2    5    5    0    0  0.72394530974E+02 -0.34656463360E+02 -0.66093173079E+02  0.13077586221E+03  0.79322002254E+02 0.  0.
          5    1    5    5  501    0 -0.12576066786E+02  0.35402463298E+02 -0.12885934084E+03  0.13430678160E+03  0.47000000000E+01 0. -1.
        -13    1    6    6    0    0  0.31121606003E+02 -0.38573610198E+02  0.35895623152E+01  0.49692682777E+02  0.00000000000E+00 0.  1.
         14    1    6    6    0    0  0.41272924972E+02  0.39171468382E+01 -0.69682735394E+02  0.81083179434E+02  0.00000000000E+00 0. -1.
         -5    1    3    3    0  503 -0.54590978219E+02 -0.50062953803E+02  0.24760318431E+02  0.78240894775E+02  0.47000000000E+01 0.  1.
         13    1    4    4    0    0 -0.12043870018E+02  0.68772123190E+02 -0.23569507265E+02  0.73689764593E+02  0.00000000000E+00 0. -1.
        -14    1    4    4    0    0  0.68163840484E+01 -0.19455169325E+02 -0.22550600879E+02  0.30553171766E+02  0.00000000000E+00 0.  1.
</event>
<event>
12    1  0.8052519E-002  0.3378282E+03  0.7818608E-02  0.1068839E+00
         21   -1    0    0  501  502  0.00000000000E+00  0.00000000000E+00  0.20141623615E+03  0.20141623615E+03  0.00000000000E+00 0.  1.
         21   -1    0    0  502  503 -0.00000000000E+00 -0.00000000000E+00 -0.68663142422E+03  0.68663142422E+03  0.00000000000E+00 0. -1.
         -6    2    1    2    0  503  0.20748289597E+03  0.18561824935E+03 -0.47269775264E+02  0.34111923281E+03  0.19137558028E+03 0.  0.
        -24    2    3    3    0    0  0.14473705895E+03  0.31422400930E+02 -0.46280952472E+02  0.17457654307E+03  0.79992870407E+02 0.  0.
          6    2    1    2  501    0 -0.20748289597E+03 -0.18561824935E+03 -0.43794541281E+03  0.54692842756E+03  0.17271720718E+03 0.  0.
         24    2    5    5    0    0 -0.54313437763E+02 -0.51091536481E+02 -0.23628409446E+03  0.26013983518E+03  0.79260746445E+02 0.  0.
          5    1    5    5  501    0 -0.15316945821E+03 -0.13452671287E+03 -0.20166131835E+03  0.28678859238E+03  0.47000000000E+01 0. -1.
        -13    1    6    6    0    0  0.71264806152E+01 -0.93290513069E+01  0.72359797381E+00  0.11761867125E+02  0.00000000000E+00 0.  1.
         14    1    6    6    0    0 -0.61439918378E+02 -0.41762485175E+02 -0.23700769244E+03  0.24837796805E+03  0.00000000000E+00 0. -1.
         -5    1    3    3    0  503  0.62745837019E+02  0.15419584842E+03 -0.98882279205E+00  0.16654268973E+03  0.47000000000E+01 0.  1.
         13    1    4    4    0    0  0.10205509402E+03 -0.98731299464E+01 -0.57847779406E+01  0.10269461800E+03  0.00000000000E+00 0. -1.
        -14    1    4    4    0    0  0.42681964932E+02  0.41295530876E+02 -0.40496174532E+02  0.71881925075E+02  0.00000000000E+00 0.  1.
</event>
<event>
12    1  0.8052519E-002  0.1872984E+03  0.7818608E-02  0.1160940E+00
         21   -1    0    0  503  502  0.00000000000E+00  0.00000000000E+00  0.13326646795E+03  0.13326646795E+03  0.00000000000E+00 0. -1.
         21   -1    0    0  501  503 -0.00000000000E+00 -0.00000000000E+00 -0.26545549420E+03  0.26545549420E+03  0.00000000000E+00 0. -1.
          6    2    1    2  501    0  0.74439748976E+02  0.40887844065E+01 -0.84790531655E+02  0.20551915107E+03  0.17172854397E+03 0.  0.
         24    2    3    3    0    0 -0.73647636104E+01 -0.38709307363E+02 -0.95192461867E+01  0.86307107405E+02  0.76194819516E+02 0.  0.
         -6    2    1    2    0  502 -0.74439748976E+02 -0.40887844065E+01 -0.47398494599E+02  0.19320281108E+03  0.17182175221E+03 0.  0.
        -24    2    5    5    0    0 -0.26343523643E+02 -0.66286407369E+02 -0.15138599613E+02  0.10808770068E+03  0.79786620441E+02 0.  0.
          5    1    3    3  501    0  0.81804512586E+02  0.42798091770E+02 -0.75271285468E+02  0.11921204366E+03  0.47000000000E+01 0. -1.
        -13    1    4    4    0    0 -0.37073129449E+02 -0.31114924395E+02 -0.22044701414E+02  0.53183872628E+02  0.00000000000E+00 0.  1.
         14    1    4    4    0    0  0.29708365839E+02 -0.75943829680E+01  0.12525455227E+02  0.33123234777E+02  0.00000000000E+00 0. -1.
         -5    1    5    5    0  502 -0.48096225332E+02  0.62197622962E+02 -0.32259894986E+02  0.85115110397E+02  0.47000000000E+01 0.  1.
         13    1    6    6    0    0 -0.52811776923E+02 -0.59174803235E+02 -0.76873476392E+01  0.79685860938E+02  0.00000000000E+00 0. -1.
        -14    1    6    6    0    0  0.26468253280E+02 -0.71116041334E+01 -0.74512519739E+01  0.28401839747E+02  0.00000000000E+00 0.  1.
</event>
<event>
12    1  0.8052519E-002  0.2931426E+03  0.7818608E-02  0.1088867E+00
         21   -1    0    0  501  502  0.00000000000E+00  0.00000000000E+00  0.17160918520E+04  0.17160918520E+04  0.00000000000E+00 0.  1.
         21   -1    0    0  502  503 -0.00000000000E+00 -0.00000000000E+00 -0.67873353653E+02  0.67873353653E+02  0.00000000000E+00 0.  1.
         -6    2    1    2    0  503  0.21672434972E+03  0.94483367720E+02  0.36602154287E+03  0.46893963179E+03  0.17330913962E+03 0.  0.
        -24    2    3    3    0    0  0.53086998818E+02  0.51980598864E+02  0.21050471032E+03  0.23917618130E+03  0.85865013448E+02 0.  0.
          6    2    1    2  501    0 -0.21672434972E+03 -0.94483367720E+02  0.12821969555E+04  0.13150255739E+04  0.17136708186E+03 0.  0.
         24    2    5    5    0    0 -0.20565364782E+03 -0.13089404599E+03  0.10276427645E+04  0.10575994212E+04  0.55138100721E+02 0.  0.
          5    1    5    5  501    0 -0.11070701898E+02  0.36410678269E+02  0.25455419101E+03  0.25742615270E+03  0.47000000000E+01 0. -1.
        -13    1    6    6    0    0 -0.14397827099E+03 -0.11458567478E+03  0.81923861367E+03  0.83964964450E+03  0.00000000000E+00 0.  1.
         14    1    6    6    0    0 -0.61675376834E+02 -0.16308371208E+02  0.20840415079E+03  0.21794977666E+03  0.00000000000E+00 0. -1.
         -5    1    3    3    0  503  0.16363735090E+03  0.42502768856E+02  0.15551683255E+03  0.22976345048E+03  0.47000000000E+01 0.  1.
         11    1    4    4    0    0 -0.17664113311E+02  0.35350490425E+02  0.57294531368E+02  0.69601303127E+02  0.00000000000E+00 0. -1.
        -12    1    4    4    0    0  0.70751112128E+02  0.16630108439E+02  0.15321017895E+03  0.16957487818E+03  0.00000000000E+00 0.  1.
</event>
<event>
12    1  0.8052519E-002  0.1770700E+03  0.7818608E-02  0.1170788E+00
         21   -1    0    0  503  502  0.00000000000E+00  0.00000000000E+00  0.30203343441E+02  0.30203343441E+02  0.00000000000E+00 0.  1.
         21   -1    0    0  501  503 -0.00000000000E+00 -0.00000000000E+00 -0.10359259379E+04  0.10359259379E+04  0.00000000000E+00 0.  1.
          6    2    1    2  501    0 -0.51622491485E+01  0.40306339144E+02 -0.48896018248E+03  0.51987185487E+03  0.17185294772E+03 0.  0.
         24    2    3    3    0    0  0.15674487432E+02 -0.14158130621E+02 -0.12115136723E+03  0.14743936080E+03  0.81330001315E+02 0.  0.
         -6    2    1    2    0  502  0.51622491485E+01 -0.40306339144E+02 -0.51676241196E+03  0.54625742645E+03  0.17234423619E+03 0.  0.
        -24    2    5    5    0    0 -0.14964799825E+02 -0.55059955763E+02 -0.15161488566E+03  0.18022795597E+03  0.78990496867E+02 0.  0.
          5    1    3    3  501    0 -0.20836736580E+02  0.54464469766E+02 -0.36780881525E+03  0.37243249407E+03  0.47000000000E+01 0. -1.
        -11    1    4    4    0    0  0.33402586002E+00 -0.25011497213E+02 -0.17716863896E+00  0.25014354975E+02  0.00000000000E+00 0.  1.
         12    1    4    4    0    0  0.15340461572E+02  0.10853366591E+02 -0.12097419859E+03  0.12242500583E+03  0.00000000000E+00 0. -1.
         -5    1    5    5    0  502  0.20127048974E+02  0.14753616619E+02 -0.36514752629E+03  0.36602947048E+03  0.47000000000E+01 0.  1.
         11    1    6    6    0    0  0.28915401999E+02 -0.11487939001E+02 -0.78666561965E+02  0.84596106215E+02  0.00000000000E+00 0. -1.
        -12    1    6    6    0    0 -0.43880201824E+02 -0.43572016763E+02 -0.72948323699E+02  0.95631849754E+02  0.00000000000E+00 0.  1.
</event>
<event>
12    1  0.8052519E-002  0.1809935E+03  0.7818608E-02  0.1166969E+00
         21   -1    0    0  503  502  0.00000000000E+00  0.00000000000E+00  0.65560769891E+03  0.65560769891E+03  0.00000000000E+00 0. -1.
         21   -1    0    0  501  503 -0.00000000000E+00 -0.00000000000E+00 -0.50499137556E+02  0.50499137556E+02  0.00000000000E+00 0. -1.
          6    2    1    2  501    0  0.29890887084E+02 -0.45905585095E+02  0.26218350145E+03  0.31858880662E+03  0.17250464168E+03 0.  0.
         24    2    3    3    0    0 -0.28117912422E+02 -0.11311083368E+02  0.22580063639E+03  0.24172787221E+03  0.80795291938E+02 0.  0.
         -6    2    1    2    0  502 -0.29890887084E+02  0.45905585095E+02  0.34292505991E+03  0.38751802984E+03  0.17196464424E+03 0.  0.
        -24    2    5    5    0    0 -0.93413976155E+01  0.18541118629E+02  0.34306979207E+03  0.35297520874E+03  0.80396398977E+02 0.  0.
          5    1    3    3  501    0  0.58008799505E+02 -0.34594501726E+02  0.36382865052E+02  0.76860934415E+02  0.47000000000E+01 0. -1.
        -11    1    4    4    0    0 -0.37180162545E+02  0.24349197839E+02  0.81722792278E+02  0.93026139875E+02  0.00000000000E+00 0.  1.
         12    1    4    4    0    0  0.90622501237E+01 -0.35660281208E+02  0.14407784412E+03  0.14870173233E+03  0.00000000000E+00 0. -1.
         -5    1    5    5    0  502 -0.20549489468E+02  0.27364466465E+02 -0.14473215870E+00  0.34542821103E+02  0.47000000000E+01 0.  1.
         13    1    6    6    0    0  0.22963601859E+02 -0.11053367076E+02  0.23477119580E+03  0.23615041459E+03  0.00000000000E+00 0. -1.
        -14    1    6    6    0    0 -0.32304999475E+02  0.29594485705E+02  0.10829859627E+03  0.11682479416E+03  0.00000000000E+00 0.  1.
</event>
<event>
12    1  0.8052519E-002  0.1995917E+03  0.7818608E-02  0.1150116E+00
         21   -1    0    0  503  502  0.00000000000E+00  0.00000000000E+00  0.62911105958E+03  0.62911105958E+03  0.00000000000E+00 0. -1.
         21   -1    0    0  501  503 -0.00000000000E+00 -0.00000000000E+00 -0.14164985688E+03  0.14164985688E+03  0.00000000000E+00 0. -1.
          6    2    1    2  501    0 -0.10142881080E+03  0.14755481744E+02 -0.42973397796E+02  0.20401784757E+03  0.17108781753E+03 0.  0.
         24    2    3    3    0    0 -0.35420520897E+02  0.45863345159E+02 -0.75191328854E+02  0.12411241231E+03  0.79950579887E+02 0.  0.
         -6    2    1    2    0  502  0.10142881080E+03 -0.14755481744E+02  0.53043460049E+03  0.56674306889E+03  0.17126386905E+03 0.  0.
        -24    2    5    5    0    0  0.99237225191E+02  0.47242059666E+02  0.39852444570E+03  0.42089768116E+03  0.79077715666E+02 0.  0.
          5    1    3    3  501    0 -0.66008289903E+02 -0.31107863415E+02  0.32217931058E+02  0.79905435258E+02  0.47000000000E+01 0. -1.
        -13    1    4    4    0    0 -0.12984476642E+01  0.54279217195E+01  0.16958697755E+02  0.17853451489E+02  0.00000000000E+00 0.  1.
         14    1    4    4    0    0 -0.34122073233E+02  0.40435423440E+02 -0.92150026609E+02  0.10625896082E+03  0.00000000000E+00 0. -1.
         -5    1    5    5    0  502  0.21915856092E+01 -0.61997541410E+02  0.13191015479E+03  0.14584538774E+03  0.47000000000E+01 0.  1.
         11    1    6    6    0    0  0.74279259037E+02 -0.54790156037E+01  0.26323831673E+03  0.27357236580E+03  0.00000000000E+00 0. -1.
        -12    1    6    6    0    0  0.24957966154E+02  0.52721075270E+02  0.13528612897E+03  0.14732531536E+03  0.00000000000E+00 0.  1.
</event>
<event>
12    1  0.8052519E-002  0.1894539E+03  0.7818608E-02  0.1159210E+00
         21   -1    0    0  501  502  0.00000000000E+00  0.00000000000E+00  0.79137441090E+03  0.79137441090E+03  0.00000000000E+00 0.  1.
         21   -1    0    0  502  503 -0.00000000000E+00 -0.00000000000E+00 -0.49125318156E+02  0.49125318156E+02  0.00000000000E+00 0.  1.
         -6    2    1    2    0  503  0.67078650784E+02 -0.34246008249E+02  0.25164296519E+03  0.31498722521E+03  0.17384025898E+03 0.  0.
        -24    2    3    3    0    0 -0.72253862231E+01  0.26313735112E+02  0.70707226618E+02  0.11017413011E+03  0.79963792979E+02 0.  0.
          6    2    1    2  501    0 -0.67078650784E+02  0.34246008249E+02  0.49060612756E+03  0.52551250385E+03  0.17261716263E+03 0.  0.
         24    2    5    5    0    0 -0.89523626282E+02 -0.25896565894E+02  0.29212950271E+03  0.31685976181E+03  0.79845792090E+02 0.  0.
          5    1    5    5  501    0  0.22444975498E+02  0.60142574143E+02  0.19847662485E+03  0.20865274204E+03  0.47000000000E+01 0. -1.
        -11    1    6    6    0    0 -0.69214353573E+02  0.14823327587E+02  0.22411411715E+03  0.23502658421E+03  0.00000000000E+00 0.  1.
         12    1    6    6    0    0 -0.20309272708E+02 -0.40719893481E+02  0.68015385561E+02  0.81833177600E+02  0.00000000000E+00 0. -1.
         -5    1    3    3    0  503  0.74304037007E+02 -0.60559743361E+02  0.18093573857E+03  0.20481309510E+03  0.47000000000E+01 0.  1.
         11    1    4    4    0    0  0.23781400799E+02  0.20911656151E+01  0.66437538082E+02  0.70596561276E+02  0.00000000000E+00 0. -1.
        -12    1    4    4    0    0 -0.31006787022E+02  0.24222569497E+02  0.42696885357E+01  0.39577568832E+02  0.00000000000E+00 0.  1.
</event>
<event>
12    1  0.8052519E-002  0.1874074E+03  0.7818608E-02  0.1161526E+00
         21   -1    0    0  503  502  0.00000000000E+00  0.00000000000E+00  0.37573716179E+03  0.37573716179E+03  0.00000000000E+00 0. -1.
         21   -1    0    0  501  503 -0.00000000000E+00 -0.00000000000E+00 -0.91988019569E+02  0.91988019569E+02  0.00000000000E+00 0.  1.
          6    2    1    2  501    0 -0.57616156410E+02  0.44300479096E+02  0.14709406640E+03  0.23823979754E+03  0.17274079667E+03 0.  0.
         24    2    3    3    0    0 -0.19712862222E+02  0.81337966349E+02  0.14626381572E+03  0.18503063961E+03  0.76411858360E+02 0.  0.
         -6    2    1    2    0  502  0.57616156410E+02 -0.44300479096E+02  0.13665507582E+03  0.22948538382E+03  0.16943074606E+03 0.  0.
        -24    2    5    5    0    0  0.97604868063E+02 -0.49822352810E+02  0.13107805074E+03  0.18846366569E+03  0.79549486434E+02 0.  0.
          5    1    3    3  501    0 -0.37903294188E+02 -0.37037487253E+02  0.83025068402E+00  0.53209157938E+02  0.47000000000E+01 0. -1.
        -13    1    4    4    0    0 -0.21277905537E+02  0.14365471995E+02  0.17358492586E+01  0.25731871722E+02  0.00000000000E+00 0.  1.
         14    1    4    4    0    0  0.15650433151E+01  0.66972494354E+02  0.14452796646E+03  0.15929876788E+03  0.00000000000E+00 0. -1.
         -5    1    5    5    0  502 -0.39988711653E+02  0.55218737144E+01  0.55770250810E+01  0.41021718123E+02  0.47000000000E+01 0.  1.
         13    1    6    6    0    0  0.30044506608E+02  0.80909683573E+01  0.80053122797E+02  0.85887360047E+02  0.00000000000E+00 0. -1.
        -14    1    6    6    0    0  0.67560361455E+02 -0.57913321168E+02  0.51024927942E+02  0.10257630565E+03  0.00000000000E+00 0.  1.
</event>
<event>
12    1  0.8052519E-002  0.1913182E+03  0.7818608E-02  0.1157427E+00
         21   -1    0    0  503  502  0.00000000000E+00  0.00000000000E+00  0.25953496342E+03  0.25953496342E+03  0.00000000000E+00 0.  1.
         21   -1    0    0  501  503 -0.00000000000E+00 -0.00000000000E+00 -0.17804695676E+03  0.17804695676E+03  0.00000000000E+00 0.  1.
          6    2    1    2  501    0  0.79906008107E+02  0.30258737320E+02 -0.59731859922E+02  0.19978847963E+03  0.17043174642E+03 0.  0.
         24    2    3    3    0    0  0.78029268862E+02  0.60360956163E+02  0.67224910424E+01  0.12665889265E+03  0.79153467224E+02 0.  0.
         -6    2    1    2    0  502 -0.79906008107E+02 -0.30258737320E+02  0.14121986658E+03  0.23779344056E+03  0.17117858610E+03 0.  0.
        -24    2    5    5    0    0 -0.46919330033E+02  0.35823906953E+01  0.50357857883E+01  0.93566061963E+02  0.80715498877E+02 0.  0.
          5    1    3    3  501    0  0.18767392446E+01 -0.30102218843E+02 -0.66454350964E+02  0.73129586978E+02  0.47000000000E+01 0. -1.
        -13    1    4    4    0    0  0.67942873989E+02  0.22848326560E+02 -0.25609237595E+02  0.76119072529E+02  0.00000000000E+00 0.  1.
         14    1    4    4    0    0  0.10086394873E+02  0.37512629603E+02  0.32331728638E+02  0.50539820122E+02  0.00000000000E+00 0. -1.
         -5    1    5    5    0  502 -0.32986678073E+02 -0.33841128015E+02  0.13618408079E+03  0.14422737860E+03  0.47000000000E+01 0.  1.
         13    1    6    6    0    0 -0.66608080649E+00  0.14542821906E+02  0.34634556886E+02  0.37569799884E+02  0.00000000000E+00 0. -1.
        -14    1    6    6    0    0 -0.46253249227E+02 -0.10960431210E+02 -0.29598771098E+02  0.55996262079E+02  0.00000000000E+00 0.  1.
</event>
<event>
12    1  0.8052519E-002  0.1763588E+03  0.7818608E-02  0.1171489E+00
         21   -1    0    0  503  502  0.00000000000E+00  0.00000000000E+00  0.27253149678E+03  0.27253149678E+03  0.00000000000E+00 0.  1.
         21   -1    0    0  501  503 -0.00000000000E+00 -0.00000000000E+00 -0.12168934703E+03  0.12168934703E+03  0.00000000000E+00 0.  1.
          6    2    1    2  501    0 -0.17576107096E+02 -0.30536603861E+02  0.25407454447E+02  0.17817961742E+03  0.17280345369E+03 0.  0.
         24    2    3    3    0    0  0.55732527590E+01 -0.65708911752E+02 -0.28324785690E+02  0.10975281175E+03  0.83034113305E+02 0.  0.
         -6    2    1    2    0  502  0.17576107096E+02  0.30536603861E+02  0.12543469530E+03  0.21604122638E+03  0.17233265795E+03 0.  0.
        -24    2    5    5    0    0  0.43039016585E+02  0.48674570860E+02  0.14603666170E+03  0.17830693659E+03  0.79025858293E+02 0.  0.
          5    1    3    3  501    0 -0.23149359855E+02  0.35172307891E+02  0.53732240137E+02  0.68426805670E+02  0.47000000000E+01 0. -1.
        -11    1    4    4    0    0  0.10816548665E+02 -0.20200882770E+02  0.28624099389E+02  0.36666230452E+02  0.00000000000E+00 0.  1.
         12    1    4    4    0    0 -0.52432959063E+01 -0.45508028982E+02 -0.56948885079E+02  0.73086581296E+02  0.00000000000E+00 0. -1.
         -5    1    5    5    0  502 -0.25462909489E+02 -0.18137966999E+02 -0.20601966399E+02  0.37734289791E+02  0.47000000000E+01 0.  1.
         11    1    6    6    0    0  0.42276083843E+02 -0.51929253804E+01  0.35918185440E+02  0.55716692152E+02  0.00000000000E+00 0. -1.
        -12    1    6    6    0    0  0.76293274178E+00  0.53867496240E+02  0.11011847626E+03  0.12259024444E+03  0.00000000000E+00 0.  1.
</event>
<event>
12    1  0.8052519E-002  0.1925149E+03  0.7818608E-02  0.1156250E+00
         21   -1    0    0  501  502  0.00000000000E+00  0.00000000000E+00  0.10602239312E+03  0.10602239312E+03  0.00000000000E+00 0. -1.
         21   -1    0    0  502  503 -0.00000000000E+00 -0.00000000000E+00 -0.47742175635E+03  0.47742175635E+03  0.00000000000E+00 0. -1.
         -6    2    1    2    0  503  0.70000597835E+02  0.50791907775E+02 -0.33690586763E+03  0.38803035253E+03  0.17199444541E+03 0.  0.
        -24    2    3    3    0    0 -0.60384791104E+01  0.35263399286E+01 -0.25274153377E+03  0.26506003001E+03  0.79559024096E+02 0.  0.
          6    2    1    2  501    0 -0.70000597835E+02 -0.50791907775E+02 -0.34493495600E+02  0.19541379694E+03  0.17180468330E+03 0.  0.
         24    2    5    5    0    0  0.25208974283E+02 -0.13606506542E+02 -0.33425180313E+02  0.93086635419E+02  0.82019812301E+02 0.  0.
          5    1    5    5  501    0 -0.95209572118E+02 -0.37185401233E+02 -0.10683152869E+01  0.10232716152E+03  0.47000000000E+01 0. -1.
        -13    1    6    6    0    0 -0.13286029060E+02  0.12570196484E+02  0.16637139644E+02  0.24724943344E+02  0.00000000000E+00 0.  1.
         14    1    6    6    0    0  0.38495003343E+02 -0.26176703026E+02 -0.50062319958E+02  0.68361692074E+02  0.00000000000E+00 0. -1.
         -5    1    3    3    0  503  0.76039076945E+02  0.47265567846E+02 -0.84164333860E+02  0.12297032252E+03  0.47000000000E+01 0.  1.
         13    1    4    4    0    0 -0.14377094569E+02  0.30681925703E+02 -0.50379541692E+02  0.60713916314E+02  0.00000000000E+00 0. -1.
        -14    1    4    4    0    0  0.83386154585E+01 -0.27155585774E+02 -0.20236199207E+03  0.20434611370E+03  0.00000000000E+00 0.  1.
</event>
<event>
12    1  0.8052519E-002  0.2584113E+03  0.7818608E-02  0.1108190E+00
         21   -1    0    0  501  502  0.00000000000E+00  0.00000000000E+00  0.37312575142E+03  0.37312575142E+03  0.00000000000E+00 0. -1.
         21   -1    0    0  502  503 -0.00000000000E+00 -0.00000000000E+00 -0.21544830073E+03  0.21544830073E+03  0.00000000000E+00 0.  1.
         -6    2    1    2    0  503 -0.18339377032E+03  0.62776534955E+02  0.20053684452E+03  0.32663259715E+03  0.16999899758E+03 0.  0.
        -24    2    3    3    0    0 -0.91101395179E+02 -0.22865821885E+02  0.14113923701E+03  0.18733916022E+03  0.79708009098E+02 0.  0.
          6    2    1    2  501    0  0.18339377032E+03 -0.62776534955E+02 -0.42859393823E+02  0.26194145500E+03  0.17088659946E+03 0.  0.
         24    2    5    5    0    0  0.56868139561E+02 -0.80922104607E+02  0.29123224600E+00  0.12695233148E+03  0.79589178543E+02 0.  0.
          5    1    5    5  501    0  0.12652563076E+03  0.18145569652E+02 -0.43150626069E+02  0.13498912352E+03  0.47000000000E+01 0. -1.
        -13    1    6    6    0    0 -0.14407812306E+02 -0.63508480953E+01 -0.16080270160E+02  0.22505408581E+02  0.00000000000E+00 0.  1.
         14    1    6    6    0    0  0.71275951867E+02 -0.74571256511E+02  0.16371502406E+02  0.10444692290E+03  0.00000000000E+00 0. -1.
         -5    1    3    3    0  503 -0.92292375145E+02  0.85642356840E+02  0.59397607507E+02  0.13929343693E+03  0.47000000000E+01 0.  1.
         13    1    4    4    0    0 -0.50951233356E+02  0.22331754230E+02  0.99289646156E+02  0.11381199085E+03  0.00000000000E+00 0. -1.
        -14    1    4    4    0    0 -0.40150161823E+02 -0.45197576114E+02  0.41849590856E+02  0.73527169372E+02  0.00000000000E+00 0.  1.
</event>
<event>
12    1  0.8052519E-002  0.3441358E+03  0.7818608E-02  0.1065148E+00
         21   -1    0    0  503  502  0.00000000000E+00  0.00000000000E+00  0.16071786261E+03  0.16071786261E+03  0.00000000000E+00 0.  1.
         21   -1    0    0  501  503 -0.00000000000E+00 -0.00000000000E+00 -0.74094826865E+03  0.74094826865E+03  0.00000000000E+00 0. -1.
          6    2    1    2  501    0 -0.27594357221E+03  0.11225214547E+03 -0.33144252140E+03  0.47779035014E+03  0.17229066859E+03 0.  0.
         24    2    3    3    0    0 -0.15512835129E+03  0.78361524464E+02 -0.10270742269E+03  0.21685601514E+03  0.79198375840E+02 0.  0.
         -6    2    1    2    0  502  0.27594357221E+03 -0.11225214547E+03 -0.24878788463E+03  0.42387578113E+03  0.17038153387E+03 0.  0.
        -24    2    5    5    0    0  0.15916811777E+03 -0.10078203234E+03 -0.22534668193E+03  0.30412750248E+03  0.78872700937E+02 0.  0.
          5    1    3    3  501    0 -0.12081522091E+03  0.33890621003E+02 -0.22873509871E+03  0.26093433499E+03  0.47000000000E+01 0. -1.
        -13    1    4    4    0    0 -0.51852213957E+02  0.70295412674E+02 -0.44508212993E+02  0.98036106405E+02  0.00000000000E+00 0.  1.
         14    1    4    4    0    0 -0.10327613734E+03  0.80661117903E+01 -0.58199209701E+02  0.11881990874E+03  0.00000000000E+00 0. -1.
         -5    1    5    5    0  502  0.11677545444E+03 -0.11470113130E+02 -0.23441202700E+02  0.11974827865E+03  0.47000000000E+01 0.  1.
         11    1    6    6    0    0  0.79688093838E+02 -0.40603903501E+02 -0.50109143832E+02  0.10251729403E+03  0.00000000000E+00 0. -1.
        -12    1    6    6    0    0  0.79480023927E+02 -0.60178128836E+02 -0.17523753810E+03  0.20161020845E+03  0.00000000000E+00 0.  1.
</event>
<event>
12    1  0.8052519E-002  0.2245929E+03  0.7818608E-02  0.1133491E+00
         21   -1    0    0  501  502  0.00000000000E+00  0.00000000000E+00  0.45274262275E+03  0.45274262275E+03  0.00000000000E+00 0. -1.
         21   -1    0    0  502  503 -0.00000000000E+00 -0.00000000000E+00 -0.11780404311E+03  0.11780404311E+03  0.00000000000E+00 0. -1.
         -6    2    1    2    0  503 -0.11806995585E+03  0.19215864186E+00  0.63440403615E+02  0.21819284222E+03  0.17217107825E+03 0.  0.
        -24    2    3    3    0    0 -0.15060402278E+03  0.19254939834E+01  0.31886879411E+02  0.17259476274E+03  0.78018586528E+02 0.  0.
          6    2    1    2  501    0  0.11806995585E+03 -0.19215864186E+00  0.27149817602E+03  0.35235382364E+03  0.19105341152E+03 0.  0.
         24    2    5    5    0    0  0.21882920276E+02  0.45008786605E+02  0.82219865338E+02  0.13522842172E+03  0.94984033996E+02 0.  0.
          5    1    5    5  501    0  0.96187035573E+02 -0.45200945247E+02  0.18927831069E+03  0.21712540192E+03  0.47000000000E+01 0. -1.
        -13    1    6    6    0    0 -0.24835761506E+02  0.33319274630E+02  0.76066296284E+02  0.86677970338E+02  0.00000000000E+00 0.  1.
         14    1    6    6    0    0  0.46718681782E+02  0.11689511975E+02  0.61535690532E+01  0.48550451386E+02  0.00000000000E+00 0. -1.
         -5    1    3    3    0  503  0.32534066930E+02 -0.17333353415E+01  0.31553524204E+02  0.45598079478E+02  0.47000000000E+01 0.  1.
         13    1    4    4    0    0 -0.11547504874E+03 -0.13366307984E+01  0.57491899097E+02  0.12900229426E+03  0.00000000000E+00 0. -1.
        -14    1    4    4    0    0 -0.35128974039E+02  0.32621247818E+01 -0.25605019686E+02  0.43592468481E+02  0.00000000000E+00 0.  1.
</event>
<event>
12    1  0.8052519E-002  0.1790634E+03  0.7818608E-02  0.1169417E+00
         21   -1    0    0  503  502  0.00000000000E+00  0.00000000000E+00  0.15832898786E+04  0.15832898786E+04  0.00000000000E+00 0. -1.
         21   -1    0    0  501  503 -0.00000000000E+00 -0.00000000000E+00 -0.24327264768E+02  0.24327264768E+02  0.00000000000E+00 0. -1.
          6    2    1    2  501    0  0.38951158469E+02  0.32044297110E+02  0.44284173491E+03  0.47767406055E+03  0.17181291051E+03 0.  0.
         24    2    3    3    0    0  0.76591580250E+02  0.25347103400E+02  0.41348858664E+03  0.42924523577E+03  0.82279495254E+02 0.  0.
         -6    2    1    2    0  502 -0.38951158469E+02 -0.32044297110E+02  0.11161208789E+04  0.11299430828E+04  0.16882394476E+03 0.  0.
        -24    2    5    5    0    0  0.93319730731E+01 -0.75488550068E+02  0.68164372392E+03  0.69061273772E+03  0.80760016278E+02 0.  0.
          5    1    3    3  501    0 -0.37640421781E+02  0.66971937105E+01  0.29353148271E+02  0.48428824773E+02  0.47000000000E+01 0. -1.
        -13    1    4    4    0    0  0.41174366316E+02  0.54781594153E+02  0.22449575861E+03  0.23472259613E+03  0.00000000000E+00 0.  1.
         14    1    4    4    0    0  0.35417213934E+02 -0.29434490754E+02  0.18899282802E+03  0.19452263964E+03  0.00000000000E+00 0. -1.
         -5    1    5    5    0  502 -0.48283131542E+02  0.43444252958E+02  0.43447715496E+03  0.43933034506E+03  0.47000000000E+01 0.  1.
         13    1    6    6    0    0 -0.29055061652E+02 -0.20318083030E+02  0.37592046090E+03  0.37758868366E+03  0.00000000000E+00 0. -1.
        -14    1    6    6    0    0  0.38387034725E+02 -0.55170467038E+02  0.30572326302E+03  0.31302405406E+03  0.00000000000E+00 0.  1.
</event>
<event>
12    1  0.8052519E-002  0.2189546E+03  0.7818608E-02  0.1134696E+00
         21   -1    0    0  501  502  0.00000000000E+00  0.00000000000E+00  0.44584763161E+03  0.44584763161E+03  0.00000000000E+00 0.  1.
         21   -1    0    0  502  503 -0.00000000000E+00 -0.00000000000E+00 -0.11365764685E+03  0.11365764685E+03  0.00000000000E+00 0. -1.
         -6    2    1    2    0  503 -0.55418767102E+02 -0.12463617690E+03  0.10075485606E+03  0.24102421917E+03  0.17127672599E+03 0.  0.
        -24    2    3    3    0    0  0.28182689370E+02 -0.99616565323E+02  0.78932509743E+02  0.15094930986E+03  0.76404378056E+02 0.  0.
          6    2    1    2  501    0  0.55418767102E+02  0.12463617690E+03  0.23143512870E+03  0.31848105929E+03  0.17106300006E+03 0.  0.
         24    2    5    5    0    0  0.13504374026E+01  0.11698178183E+03  0.91253084815E+02  0.16796504862E+03  0.78731004746E+02 0.  0.
          5    1    5    5  501    0  0.54068329700E+02  0.76543950693E+01  0.14018204388E+03  0.15051601067E+03  0.47000000000E+01 0. -1.
        -11    1    6    6    0    0 -0.94177911321E+01 -0.84053154589E+01  0.19115779137E+02  0.22907578000E+02  0.00000000000E+00 0.  1.
         12    1    6    6    0    0  0.10768228535E+02  0.12538709729E+03  0.72137305678E+02  0.14505747062E+03  0.00000000000E+00 0. -1.
         -5    1    3    3    0  503 -0.83601456472E+02 -0.25019611578E+02  0.21822346321E+02  0.90074909308E+02  0.47000000000E+01 0.  1.
         11    1    4    4    0    0 -0.12098161597E+02 -0.12290745980E+02 -0.10023450806E+02  0.19947368669E+02  0.00000000000E+00 0. -1.
        -12    1    4    4    0    0  0.40280850967E+02 -0.87325819343E+02  0.88955960550E+02  0.13100194119E+03  0.00000000000E+00 0.  1.
</event>
<event>
12    1  0.8052519E-002  0.1780852E+03  0.7818608E-02  0.1169675E+00
         21   -1    0    0  501  502  0.00000000000E+00  0.00000000000E+00  0.20844135039E+02  0.20844135039E+02  0.00000000000E+00 0. -1.
         21   -1    0    0  502  503 -0.00000000000E+00 -0.00000000000E+00 -0.15849338748E+04  0.15849338748E+04  0.00000000000E+00 0. -1.
         -6    2    1    2    0  503 -0.42596481409E+02  0.19483915740E+02 -0.94299581679E+03  0.95966424215E+03  0.17181462094E+03 0.  0.
        -24    2    3    3    0    0 -0.47888060312E+02 -0.23234368264E+02 -0.86625880121E+03  0.87155344737E+03  0.79799741625E+02 0.  0.
          6    2    1    2  501    0  0.42596481409E+02 -0.19483915740E+02 -0.62109392300E+03  0.64611376772E+03  0.17178840605E+03 0.  0.
         24    2    5    5    0    0 -0.65818050363E+01  0.17394949822E+02 -0.14867378883E+03  0.16968808858E+03  0.79650784568E+02 0.  0.
          5    1    5    5  501    0  0.49178286445E+02 -0.36878865562E+02 -0.47242013417E+03  0.47642567915E+03  0.47000000000E+01 0. -1.
        -11    1    6    6    0    0 -0.35551102651E+01  0.27330418679E+02 -0.15506347800E+03  0.15749372306E+03  0.00000000000E+00 0.  1.
         12    1    6    6    0    0 -0.30266947713E+01 -0.99354688572E+01  0.63896891684E+01  0.12194365515E+02  0.00000000000E+00 0. -1.
         -5    1    3    3    0  503  0.52915789033E+01  0.42718284004E+02 -0.76737015581E+02  0.88110794775E+02  0.47000000000E+01 0.  1.
         11    1    4    4    0    0 -0.46226955486E+01  0.26930694309E+02 -0.17402632001E+03  0.17615842775E+03  0.00000000000E+00 0. -1.
        -12    1    4    4    0    0 -0.43265364764E+02 -0.50165062573E+02 -0.69223248120E+03  0.69539501962E+03  0.00000000000E+00 0.  1.
</event>
<event>
12    1  0.8052519E-002  0.1771510E+03  0.7818608E-02  0.1172015E+00
         21   -1    0    0  503  502  0.00000000000E+00  0.00000000000E+00  0.10378402088E+04  0.10378402088E+04  0.00000000000E+00 0. -1.
         21   -1    0    0  501  503 -0.00000000000E+00 -0.00000000000E+00 -0.10807041211E+03  0.10807041211E+03  0.00000000000E+00 0. -1.
          6    2    1    2  501    0  0.18833443010E+02 -0.28439779164E+02 -0.22275202215E+02  0.17854596586E+03  0.17383600799E+03 0.  0.
         24    2    3    3    0    0 -0.55116035048E+02 -0.12517756809E+02 -0.92073169697E+01  0.10163760658E+03  0.83969975773E+02 0.  0.
         -6    2    1    2    0  502 -0.18833443010E+02  0.28439779164E+02  0.95204499887E+03  0.96736465503E+03  0.16805111217E+03 0.  0.
        -24    2    5    5    0    0 -0.56911887715E+02  0.22854929221E+02  0.87736077100E+03  0.88321608170E+03  0.80916090672E+02 0.  0.
          5    1    3    3  501    0  0.73949478059E+02 -0.15922022356E+02 -0.13067885245E+02  0.76908359271E+02  0.47000000000E+01 0. -1.
        -13    1    4    4    0    0  0.10805905761E+02 -0.17110448149E+02  0.20836827010E+02  0.29046658930E+02  0.00000000000E+00 0.  1.
         14    1    4    4    0    0 -0.65921940809E+02  0.45926913404E+01 -0.30044143979E+02  0.72590947654E+02  0.00000000000E+00 0. -1.
         -5    1    5    5    0  502  0.38078444705E+02  0.55848499435E+01  0.74684227875E+02  0.84148573329E+02  0.47000000000E+01 0.  1.
         11    1    6    6    0    0 -0.61346802467E+02  0.16916560349E+02  0.34598364559E+03  0.35178726981E+03  0.00000000000E+00 0. -1.
        -12    1    6    6    0    0  0.44349147511E+01  0.59383688720E+01  0.53137712541E+03  0.53142881189E+03  0.00000000000E+00 0.  1.
</event>
<event>
12    1  0.8052519E-002  0.1813724E+03  0.7818608E-02  0.1167741E+00
         21   -1    0    0  503  502  0.00000000000E+00  0.00000000000E+00  0.58595976358E+03  0.58595976358E+03  0.00000000000E+00 0.  1.
         21   -1    0    0  501  503 -0.00000000000E+00 -0.00000000000E+00 -0.55543274468E+02  0.55543274468E+02  0.00000000000E+00 0.  1.
          6    2    1    2  501    0 -0.23365989024E+02  0.53766404674E+02  0.21853644647E+03  0.28071900931E+03  0.16615711853E+03 0.  0.
         24    2    3    3    0    0 -0.28976550286E+02  0.97659966890E+02  0.17784353137E+03  0.22041870631E+03  0.81110879944E+02 0.  0.
         -6    2    1    2    0  502  0.23365989024E+02 -0.53766404674E+02  0.31188004264E+03  0.36078402874E+03  0.17163670551E+03 0.  0.
        -24    2    5    5    0    0  0.78100809429E+01 -0.49577959181E+01  0.29672827827E+03  0.30715630709E+03  0.78814648136E+02 0.  0.
          5    1    3    3  501    0  0.56105612621E+01 -0.43893562216E+02  0.40692915109E+02  0.60300302999E+02  0.47000000000E+01 0. -1.
        -13    1    4    4    0    0 -0.47876550497E+02  0.92927258324E+02  0.16967552123E+03  0.19929230274E+03  0.00000000000E+00 0.  1.
         14    1    4    4    0    0  0.18900000210E+02  0.47327085663E+01  0.81680101329E+01  0.21126403571E+02  0.00000000000E+00 0. -1.
         -5    1    5    5    0  502  0.15555908081E+02 -0.48808608756E+02  0.15151764375E+02  0.53627721643E+02  0.47000000000E+01 0.  1.
         11    1    6    6    0    0 -0.19465704111E+02 -0.30807079215E+02  0.91024392151E+02  0.98048099078E+02  0.00000000000E+00 0. -1.
        -12    1    6    6    0    0  0.27275785054E+02  0.25849283297E+02  0.20570388611E+03  0.20910820802E+03  0.00000000000E+00 0.  1.
</event>
<event>
12    1  0.8052519E-002  0.1763230E+03  0.7818608E-02  0.1171630E+00
         21   -1    0    0  501  502  0.00000000000E+00  0.00000000000E+00  0.22759651291E+03  0.22759651291E+03  0.00000000000E+00 0.  1.
         21   -1    0    0  502  503 -0.00000000000E+00 -0.00000000000E+00 -0.20769600425E+03  0.20769600425E+03  0.00000000000E+00 0.  1.
         -6    2    1    2    0  503  0.25414462940E+02 -0.17647710528E+02 -0.11798210551E+03  0.21215463358E+03  0.17358708107E+03 0.  0.
        -24    2    3    3    0    0  0.51904384024E+01 -0.78899671989E+02 -0.65582615031E+02  0.12891635780E+03  0.77886128567E+02 0.  0.
          6    2    1    2  501    0 -0.25414462940E+02  0.17647710528E+02  0.13788261418E+03  0.22313788358E+03  0.17268920981E+03 0.  0.
         24    2    5    5    0    0  0.19087206535E+02 -0.51277026754E+02  0.90868299049E+02  0.12846236498E+03  0.72469831781E+02 0.  0.
          5    1    5    5  501    0 -0.44501669475E+02  0.68924737282E+02  0.47014315127E+02  0.94675518600E+02  0.47000000000E+01 0. -1.
        -13    1    6    6    0    0  0.38474703974E+00 -0.32679564702E+01  0.74253515753E+02  0.74326389469E+02  0.00000000000E+00 0.  1.
         14    1    6    6    0    0  0.18702459495E+02 -0.48009070284E+02  0.16614783296E+02  0.54135975512E+02  0.00000000000E+00 0. -1.
         -5    1    3    3    0  503  0.20224024538E+02  0.61251961462E+02 -0.52399490484E+02  0.83238275777E+02  0.47000000000E+01 0.  1.
         11    1    4    4    0    0  0.20594852376E+02 -0.99609085618E+01  0.10435110233E+02  0.25144764253E+02  0.00000000000E+00 0. -1.
        -12    1    4    4    0    0 -0.15404413973E+02 -0.68938763427E+02 -0.76017725264E+02  0.10377159355E+03  0.00000000000E+00 0.  1.
</event>
<event>
12    1  0.8052519E-002  0.3041896E+03  0.7818608E-02  0.1083557E+00
         21   -1    0    0  503  502  0.00000000000E+00  0.00000000000E+00  0.12133866246E+04  0.12133866246E+04  0.00000000000E+00 0. -1.
         21   -1    0    0  501  503 -0.00000000000E+00 -0.00000000000E+00 -0.21302575652E+04  0.21302575652E+04  0.00000000000E+00 0.  1.
          6    2    1    2  501    0 -0.23767505599E+03 -0.67696045922E+02 -0.21004629743E+04  0.21223750839E+04  0.17736714321E+03 0.  0.
         24    2    3    3    0    0 -0.17536626825E+03 -0.77285101625E+02 -0.19194464822E+04  0.19306372540E+04  0.79743923669E+02 0.  0.
         -6    2    1    2    0  502  0.23767505599E+03  0.67696045922E+02  0.11835920338E+04  0.12212691059E+04  0.17186023361E+03 0.  0.
        -24    2    5    5    0    0  0.75718915044E+02 -0.20132112562E+02  0.33389550739E+03  0.35181533838E+03  0.78416620779E+02 0.  0.
          5    1    3    3  501    0 -0.62308787741E+02  0.95890557030E+01 -0.18101649204E+03  0.19173782989E+03  0.47000000000E+01 0. -1.
        -11    1    4    4    0    0 -0.11516582364E+03 -0.64146492761E+02 -0.93283667884E+03  0.94210520053E+03  0.00000000000E+00 0.  1.
         12    1    4    4    0    0 -0.60200444610E+02 -0.13138608864E+02 -0.98660980340E+03  0.98853205347E+03  0.00000000000E+00 0. -1.
         -5    1    5    5    0  502  0.16195614095E+03  0.87828158484E+02  0.84969652636E+03  0.86945376756E+03  0.47000000000E+01 0.  1.
         11    1    6    6    0    0  0.52775556946E+02  0.17420208075E+01  0.30294216215E+03  0.30750975213E+03  0.00000000000E+00 0. -1.
        -12    1    6    6    0    0  0.22943358099E+02 -0.21874133369E+02  0.30953345237E+02  0.44305586249E+02  0.00000000000E+00 0.  1.
</event>
<event>
12    1  0.8052519E-002  0.2111544E+03  0.7818608E-02  0.1141064E+00
         21   -1    0    0  501  502  0.00000000000E+00  0.00000000000E+00  0.19934064213E+03  0.19934064213E+03  0.00000000000E+00 0.  1.
         21   -1    0    0  502  503 -0.00000000000E+00 -0.00000000000E+00 -0.22692012211E+03  0.22692012211E+03  0.00000000000E+00 0. -1.
         -6    2    1    2    0  503  0.82384487661E+02 -0.91208500699E+02  0.19142929793E+02  0.21202040607E+03  0.17169742695E+03 0.  0.
        -24    2    3    3    0    0 -0.11457607531E+02 -0.22408547065E+02  0.13778768421E+01  0.94217776402E+02  0.90783649925E+02 0.  0.
          6    2    1    2  501    0 -0.82384487661E+02  0.91208500699E+02 -0.46722409767E+02  0.21424035818E+03  0.16914417841E+03 0.  0.
         24    2    5    5    0    0  0.18550641047E+02  0.27506903285E+02 -0.32542032655E+02  0.93953339693E+02  0.81654700652E+02 0.  0.
          5    1    5    5  501    0 -0.10093512871E+03  0.63701597413E+02 -0.14180377112E+02  0.12028701848E+03  0.47000000000E+01 0. -1.
        -13    1    6    6    0    0  0.22776889253E+02  0.49349643699E+02 -0.43062231845E+02  0.69343563715E+02  0.00000000000E+00 0.  1.
         14    1    6    6    0    0 -0.42262482063E+01 -0.21842740414E+02  0.10520199190E+02  0.24609775978E+02  0.00000000000E+00 0. -1.
         -5    1    3    3    0  503  0.93842095191E+02 -0.68799953633E+02  0.17765052951E+02  0.11780262967E+03  0.47000000000E+01 0.  1.
         13    1    4    4    0    0 -0.27600118956E+00 -0.48959428560E+02 -0.25161631969E+02  0.55047339126E+02  0.00000000000E+00 0. -1.
        -14    1    4    4    0    0 -0.11181606341E+02  0.26550881494E+02  0.26539508811E+02  0.39170437276E+02  0.00000000000E+00 0.  1.
</event>
<event>
12    1  0.8052519E-002  0.1877150E+03  0.7818608E-02  0.1161105E+00
         21   -1    0    0  501  502  0.00000000000E+00  0.00000000000E+00  0.57164139076E+02  0.57164139076E+02  0.00000000000E+00 0. -1.
         21   -1    0    0  502  503 -0.00000000000E+00 -0.00000000000E+00 -0.85168764275E+03  0.85168764275E+03  0.00000000000E+00 0. -1.
         -6    2    1    2    0  503 -0.12321337687E+01  0.67245540430E+02 -0.63827514384E+03  0.66461730025E+03  0.17261956925E+03 0.  0.
        -24    2    3    3    0    0 -0.44781235766E+02 -0.66157398595E+01 -0.27812445367E+03  0.29437059515E+03  0.85156963701E+02 0.  0.
          6    2    1    2  501    0  0.12321337687E+01 -0.67245540430E+02 -0.15624835983E+03  0.24423448157E+03  0.17525253544E+03 0.  0.
         24    2    5    5    0    0  0.36176932884E+00 -0.34032371004E+01 -0.10863190965E+02  0.85377519010E+02  0.84614413279E+02 0.  0.
          5    1    5    5  501    0  0.87036443986E+00 -0.63842303329E+02 -0.14538516886E+03  0.15885696256E+03  0.47000000000E+01 0. -1.
        -11    1    6    6    0    0  0.12029122631E+02  0.13345782941E+02 -0.43397665315E+02  0.46969852761E+02  0.00000000000E+00 0.  1.
         12    1    6    6    0    0 -0.11667353302E+02 -0.16749020042E+02  0.32534474350E+02  0.38407666249E+02  0.00000000000E+00 0. -1.
         -5    1    3    3    0  503  0.43549101997E+02  0.73861280289E+02 -0.36015069017E+03  0.37024670510E+03  0.47000000000E+01 0.  1.
         11    1    4    4    0    0 -0.29634451866E+02 -0.69420402584E+01 -0.27754531618E+03  0.27920923193E+03  0.00000000000E+00 0. -1.
        -12    1    4    4    0    0 -0.15146783900E+02  0.32630039891E+00 -0.57913749257E+00  0.15161363220E+02  0.00000000000E+00 0.  1.
</event>
<event>
12    1  0.8052519E-002  0.3274920E+03  0.7818608E-02  0.1072316E+00
         21   -1    0    0  501  502  0.00000000000E+00  0.00000000000E+00  0.16777263761E+04  0.16777263761E+04  0.00000000000E+00 0.  1.
         21   -1    0    0  502  503 -0.00000000000E+00 -0.00000000000E+00 -0.69684247026E+02  0.69684247026E+02  0.00000000000E+00 0. -1.
         -6    2    1    2    0  503 -0.13998145385E+03  0.24112351473E+03  0.54982533844E+03  0.63967698450E+03  0.17071433721E+03 0.  0.
        -24    2    3    3    0    0 -0.11484104464E+03  0.14588417806E+03  0.47424559369E+03  0.51543142425E+03  0.79309589777E+02 0.  0.
          6    2    1    2  501    0  0.13998145385E+03 -0.24112351473E+03  0.10582167906E+04  0.11077336386E+04  0.17180128461E+03 0.  0.
         24    2    5    5    0    0  0.93958141008E+02 -0.73142718375E+02  0.34638128119E+03  0.37488469391E+03  0.79878359129E+02 0.  0.
          5    1    5    5  501    0  0.46023312842E+02 -0.16798079635E+03  0.71183550943E+03  0.73284894470E+03  0.47000000000E+01 0. -1.
        -13    1    6    6    0    0  0.78012678807E+02 -0.90690124459E+02  0.29250801436E+03  0.31602470662E+03  0.00000000000E+00 0.  1.
         14    1    6    6    0    0  0.15945462201E+02  0.17547406084E+02  0.53873266827E+02  0.58859987289E+02  0.00000000000E+00 0. -1.
         -5    1    3    3    0  503 -0.25140409210E+02  0.95239336667E+02  0.75579744748E+02  0.12424556024E+03  0.47000000000E+01 0.  1.
         11    1    4    4    0    0 -0.43176548912E+02  0.10993449889E+03  0.23324240021E+03  0.26144182083E+03  0.00000000000E+00 0. -1.
        -12    1    4    4    0    0 -0.71664495728E+02  0.35949679170E+02  0.24100319348E+03  0.25398960342E+03  0.00000000000E+00 0.  1.
</event>
<event>
12    1  0.8052519E-002  0.2192512E+03  0.7818608E-02  0.1134631E+00
         21   -1    0    0  503  502  0.00000000000E+00  0.00000000000E+00  0.81092058020E+03  0.81092058020E+03  0.00000000000E+00 0. -1.
         21   -1    0    0  501  503 -0.00000000000E+00 -0.00000000000E+00 -0.65421341634E+02  0.65421341634E+02  0.00000000000E+00 0. -1.
          6    2    1    2  501    0  0.32141869212E+01 -0.13599827361E+03  0.50916534888E+03  0.55396824409E+03  0.17066224404E+03 0.  0.
         24    2    3    3    0    0  0.16177940062E+02 -0.15984015865E+03  0.35619602108E+03  0.39853916179E+03  0.78404438547E+02 0.  0.
         -6    2    1    2    0  502 -0.32141869212E+01  0.13599827361E+03  0.23633388968E+03  0.32237367774E+03  0.17194539617E+03 0.  0.
        -24    2    5    5    0    0  0.72395664323E+01  0.16113747069E+03  0.23139933208E+03  0.29430768322E+03  0.83986104397E+02 0.  0.
          5    1    3    3  501    0 -0.12963753141E+02  0.23841885044E+02  0.15296932780E+03  0.15542908230E+03  0.47000000000E+01 0. -1.
        -11    1    4    4    0    0  0.26994023668E+01 -0.15197381090E+03  0.26068446532E+03  0.30176102537E+03  0.00000000000E+00 0.  1.
         12    1    4    4    0    0  0.13478537695E+02 -0.78663477531E+01  0.95511555762E+02  0.96778136423E+02  0.00000000000E+00 0. -1.
         -5    1    5    5    0  502 -0.10453753353E+02 -0.25139197087E+02  0.49345575976E+01  0.28065994514E+02  0.47000000000E+01 0.  1.
         11    1    6    6    0    0  0.83414587261E+01  0.14934691821E+03  0.23773515216E+03  0.28087734776E+03  0.00000000000E+00 0. -1.
        -12    1    6    6    0    0 -0.11018922938E+01  0.11790552483E+02 -0.63358200795E+01  0.13430335460E+02  0.00000000000E+00 0.  1.
</event>
<event>
12    1  0.8052519E-002  0.1857823E+03  0.7818608E-02  0.1163672E+00
         21   -1    0    0  503  502  0.00000000000E+00  0.00000000000E+00  0.31291649636E+03  0.31291649636E+03  0.00000000000E+00 0.  1.
         21   -1    0    0  501  503 -0.00000000000E+00 -0.00000000000E+00 -0.13171386803E+03  0.13171386803E+03  0.00000000000E+00 0.  1.
          6    2    1    2  501    0 -0.66722730654E+02 -0.41146598180E+01 -0.46725735320E+01  0.18584100994E+03  0.17333838242E+03 0.  0.
         24    2    3    3    0    0 -0.40819947981E+02 -0.60831189881E+02 -0.38619091189E+02  0.11469204653E+03  0.79348153844E+02 0.  0.
         -6    2    1    2    0  502  0.66722730654E+02  0.41146598180E+01  0.18587520187E+03  0.25878935445E+03  0.16719296067E+03 0.  0.
        -24    2    5    5    0    0  0.86796906282E+02 -0.18642028302E+02  0.67591890058E+02  0.13658513507E+03  0.78775677476E+02 0.  0.
          5    1    3    3  501    0 -0.25902782672E+02  0.56716530063E+02  0.33946517657E+02  0.71148963405E+02  0.47000000000E+01 0. -1.
        -11    1    4    4    0    0 -0.75599233347E+00 -0.64466864263E+02 -0.98138248362E+01  0.65213949966E+02  0.00000000000E+00 0.  1.
         12    1    4    4    0    0 -0.40063955648E+02  0.36356743816E+01 -0.28805266352E+02  0.49478096568E+02  0.00000000000E+00 0. -1.
         -5    1    5    5    0  502 -0.20074175629E+02  0.22756688120E+02  0.11828331181E+03  0.12220421938E+03  0.47000000000E+01 0.  1.
         11    1    6    6    0    0  0.59494731215E+02 -0.42646223166E+02  0.68453766556E+02  0.10022096362E+03  0.00000000000E+00 0. -1.
        -12    1    6    6    0    0  0.27302175068E+02  0.24004194864E+02 -0.86187649881E+00  0.36364171455E+02  0.00000000000E+00 0.  1.
</event>
<event>
12    1  0.8052519E-002  0.1982524E+03  0.7818608E-02  0.1151558E+00
         21   -1    0    0  503  502  0.00000000000E+00  0.00000000000E+00  0.11931897373E+04  0.11931897373E+04  0.00000000000E+00 0.  1.
         21   -1    0    0  501  503 -0.00000000000E+00 -0.00000000000E+00 -0.35229867921E+02  0.35229867921E+02  0.00000000000E+00 0.  1.
          6    2    1    2  501    0  0.95611733032E+02 -0.13847571383E+02  0.41588378002E+03  0.46072046008E+03  0.17312037758E+03 0.  0.
         24    2    3    3    0    0  0.11069885635E+03 -0.31984579415E+02  0.41361789764E+03  0.43655857743E+03  0.78907389801E+02 0.  0.
         -6    2    1    2    0  502 -0.95611733032E+02  0.13847571383E+02  0.74207608936E+03  0.76769914513E+03  0.17132336767E+03 0.  0.
        -24    2    5    5    0    0 -0.31401612212E+02 -0.12900596208E+02  0.16444814285E+03  0.18587912255E+03  0.79720573769E+02 0.  0.
          5    1    3    3  501    0 -0.15087123316E+02  0.18137008032E+02  0.22658823767E+01  0.24161882652E+02  0.47000000000E+01 0. -1.
        -13    1    4    4    0    0  0.27610360468E+01 -0.28701947990E+02  0.12801257451E+03  0.13121983224E+03  0.00000000000E+00 0.  1.
         14    1    4    4    0    0  0.10793782030E+03 -0.32826314256E+01  0.28560532313E+03  0.30533874520E+03  0.00000000000E+00 0. -1.
         -5    1    5    5    0  502 -0.64210120820E+02  0.26748167590E+02  0.57762794651E+03  0.58182002258E+03  0.47000000000E+01 0.  1.
         11    1    6    6    0    0  0.22378973789E+02 -0.26178617289E+01  0.15943913127E+02  0.27602174438E+02  0.00000000000E+00 0. -1.
        -12    1    6    6    0    0 -0.53780586002E+02 -0.10282734479E+02  0.14850422972E+03  0.15827694811E+03  0.00000000000E+00 0.  1.
</event>
<event>
12    1  0.8052519E-002  0.2367049E+03  0.7818608E-02  0.1122266E+00
         21   -1    0    0  501  502  0.00000000000E+00  0.00000000000E+00  0.37923016981E+03  0.37923016981E+03  0.00000000000E+00 0.  1.
         21   -1    0    0  502  503 -0.00000000000E+00 -0.00000000000E+00 -0.16778951858E+03  0.16778951858E+03  0.00000000000E+00 0.  1.
         -6    2    1    2    0  503 -0.15376657214E+03  0.49800134358E+02  0.92807795954E+01  0.23688672383E+03  0.17293054956E+03 0.  0.
        -24    2    3    3    0    0 -0.62655956182E+02  0.21486282642E+02 -0.58999178066E+02  0.11946840688E+03  0.80027295610E+02 0.  0.
          6    2    1    2  501    0  0.15376657214E+03 -0.49800134358E+02  0.20215987164E+03  0.31013296455E+03  0.17084972904E+03 0.  0.
         24    2    5    5    0    0  0.14710420061E+03 -0.86350057268E+02  0.13011320858E+03  0.22893508455E+03  0.79911498946E+02 0.  0.
          5    1    5    5  501    0  0.66623715289E+01  0.36549922910E+02  0.72046663056E+02  0.81197880001E+02  0.47000000000E+01 0. -1.
        -11    1    6    6    0    0  0.91404700607E+02 -0.93198952014E+02  0.76404351244E+02  0.15125636793E+03  0.00000000000E+00 0.  1.
         12    1    6    6    0    0  0.55699500001E+02  0.68488947459E+01  0.53708857339E+02  0.77678716623E+02  0.00000000000E+00 0. -1.
         -5    1    3    3    0  503 -0.91110615955E+02  0.28313851716E+02  0.68279957661E+02  0.11741831696E+03  0.47000000000E+01 0.  1.
         13    1    4    4    0    0  0.78532565312E+01  0.23224950887E+02  0.40694536906E+01  0.24852211877E+02  0.00000000000E+00 0. -1.
        -14    1    4    4    0    0 -0.70509212713E+02 -0.17386682456E+01 -0.63068631756E+02  0.94616195000E+02  0.00000000000E+00 0.  1.
</event>
<event>
12    1  0.8052519E-002  0.2235849E+03  0.7818608E-02  0.1131340E+00
         21   -1    0    0  503  502  0.00000000000E+00  0.00000000000E+00  0.61478507204E+03  0.61478507204E+03  0.00000000000E+00 0. -1.
         21   -1    0    0  501  503 -0.00000000000E+00 -0.00000000000E+00 -0.83614257465E+02  0.83614257465E+02  0.00000000000E+00 0. -1.
          6    2    1    2  501    0 -0.17664284199E+02  0.14015944198E+03  0.20484628411E+03  0.30282647330E+03  0.17258382515E+03 0.  0.
         24    2    3    3    0    0 -0.37479321096E+02  0.87952781100E+01  0.91493774781E+02  0.12812655742E+03  0.81013872056E+02 0.  0.
         -6    2    1    2    0  502  0.17664284199E+02 -0.14015944198E+03  0.32632453046E+03  0.39557285621E+03  0.17330172900E+03 0.  0.
        -24    2    5    5    0    0 -0.41032216235E+01 -0.11823671794E+02  0.18987290102E+03  0.20693290446E+03  0.81319571835E+02 0.  0.
          5    1    3    3  501    0  0.19815036897E+02  0.13136416387E+03  0.11335250933E+03  0.17469991588E+03  0.47000000000E+01 0. -1.
        -11    1    4    4    0    0  0.23804496424E+02 -0.48217314055E+01  0.12783526909E+02  0.27446706615E+02  0.00000000000E+00 0.  1.
         12    1    4    4    0    0 -0.61283817520E+02  0.13617009515E+02  0.78710247871E+02  0.10067985080E+03  0.00000000000E+00 0. -1.
         -5    1    5    5    0  502  0.21767505822E+02 -0.12833577018E+03  0.13645162944E+03  0.18863995175E+03  0.47000000000E+01 0.  1.
         13    1    6    6    0    0  0.30305532057E+02 -0.31538952611E+00  0.14996724127E+03  0.15299901371E+03  0.00000000000E+00 0. -1.
        -14    1    6    6    0    0 -0.34408753681E+02 -0.11508282268E+02  0.39905659753E+02  0.53933890746E+02  0.00000000000E+00 0.  1.
</event>
<event>
12    1  0.8052519E-002  0.1905711E+03  0.7818608E-02  0.1158269E+00
         21   -1    0    0  501  502  0.00000000000E+00  0.00000000000E+00  0.24601883895E+02  0.24601883895E+02  0.00000000000E+00 0. -1.
         21   -1    0    0  502  503 -0.00000000000E+00 -0.00000000000E+00 -0.20141775618E+04  0.20141775618E+04  0.00000000000E+00 0. -1.
         -6    2    1    2    0  503  0.11670887072E+02  0.77530003770E+02 -0.15242719517E+04  0.15359624892E+04  0.17212981829E+03 0.  0.
        -24    2    3    3    0    0  0.39306421397E+02  0.87908242213E+02 -0.69005690889E+03  0.70121207244E+03  0.79037834136E+02 0.  0.
          6    2    1    2  501    0 -0.11670887072E+02 -0.77530003770E+02 -0.46530372624E+03  0.50281695655E+03  0.17369577729E+03 0.  0.
         24    2    5    5    0    0  0.59850172770E+02 -0.51204340841E+02 -0.32110032204E+03  0.33964522397E+03  0.77778748065E+02 0.  0.
          5    1    5    5  501    0 -0.71521059842E+02 -0.26325662929E+02 -0.14420340421E+03  0.16317173258E+03  0.47000000000E+01 0. -1.
        -11    1    6    6    0    0  0.20840058152E+02 -0.59983219170E+02 -0.25134238271E+03  0.25923982709E+03  0.00000000000E+00 0.  1.
         12    1    6    6    0    0  0.39010114618E+02  0.87788783293E+01 -0.69757939328E+02  0.80405396874E+02  0.00000000000E+00 0. -1.
         -5    1    3    3    0  503 -0.27635534325E+02 -0.10378238443E+02 -0.83421504279E+03  0.83475041672E+03  0.47000000000E+01 0.  1.
         11    1    4    4    0    0  0.20374274507E+02 -0.32522553276E+01 -0.27812615404E+03  0.27889038311E+03  0.00000000000E+00 0. -1.
        -12    1    4    4    0    0  0.18932146890E+02  0.91160497541E+02 -0.41193075484E+03  0.42232168934E+03  0.00000000000E+00 0.  1.
</event>
<event>
12    1  0.8052519E-002  0.2291066E+03  0.7818608E-02  0.1128397E+00
         21   -1    0    0  503  502  0.00000000000E+00  0.00000000000E+00  0.61903093170E+03  0.61903093170E+03  0.00000000000E+00 0. -1.
         21   -1    0    0  501  503 -0.00000000000E+00 -0.00000000000E+00 -0.10018259926E+03  0.10018259926E+03  0.00000000000E+00 0.  1.
          6    2    1    2  501    0 -0.13573453175E+03 -0.44173107010E+02  0.10533099181E+03  0.24647002734E+03  0.17110736410E+03 0.  0.
         24    2    3    3    0    0 -0.13345077464E+03 -0.60814896669E+02  0.31762507344E+02  0.17086198137E+03  0.81715352874E+02 0.  0.
         -6    2    1    2    0  502  0.13573453175E+03  0.44173107010E+02  0.41351734063E+03  0.47274350362E+03  0.17920575527E+03 0.  0.
        -24    2    5    5    0    0  0.90393519910E+02  0.77534491931E+02  0.37886352334E+03  0.40647309989E+03  0.86603843644E+02 0.  0.
          5    1    3    3  501    0 -0.22837571072E+01  0.16641789659E+02  0.73568484463E+02  0.75608045973E+02  0.47000000000E+01 0. -1.
        -13    1    4    4    0    0 -0.40056397555E+02 -0.91172514490E+01 -0.26853892688E+02  0.49079229941E+02  0.00000000000E+00 0.  1.
         14    1    4    4    0    0 -0.93394377087E+02 -0.51697645220E+02  0.58616400032E+02  0.12178275143E+03  0.00000000000E+00 0. -1.
         -5    1    5    5    0  502  0.45341011840E+02 -0.33361384921E+02  0.34653817297E+02  0.66270403739E+02  0.47000000000E+01 0.  1.
         11    1    6    6    0    0  0.10682401472E+03  0.68027595216E+02  0.34693517525E+03  0.36932795678E+03  0.00000000000E+00 0. -1.
        -12    1    6    6    0    0 -0.16430494810E+02  0.95068967149E+01  0.31928348085E+02  0.37145143105E+02  0.00000000000E+00 0.  1.
</event>
<event>
12    1  0.8052519E-002  0.2775450E+03  0.7818608E-02  0.1097048E+00
         21   -1    0    0  503  502  0.00000000000E+00  0.00000000000E+00  0.19647200132E+03  0.19647200132E+03  0.00000000000E+00 0.  1.
         21   -1    0    0  501  503 -0.00000000000E+00 -0.00000000000E+00 -0.90205115276E+03  0.90205115276E+03  0.00000000000E+00 0.  1.
          6    2    1    2  501    0 -0.20132130111E+03  0.83432493324E+02 -0.76580305680E+03  0.81451935517E+03  0.17174460961E+03 0.  0.
         24    2    3    3    0    0 -0.11347200358E+03  0.11676077881E+03 -0.45628035173E+03  0.49101561695E+03  0.79972505596E+02 0.  0.
         -6    2    1    2    0  502  0.20132130111E+03 -0.83432493324E+02  0.60223905356E+02  0.28400379891E+03  0.17187202157E+03 0.  0.
        -24    2    5    5    0    0  0.56613170265E+02 -0.66826000594E+02  0.70298935907E+02  0.13792226355E+03  0.80061507549E+02 0.  0.
          5    1    3    3  501    0 -0.87849297531E+02 -0.33328285490E+02 -0.30952270507E+03  0.32350373822E+03  0.47000000000E+01 0. -1.
        -13    1    4    4    0    0 -0.25798050719E+02  0.64450999044E+02 -0.26790237681E+03  0.27675106901E+03  0.00000000000E+00 0.  1.
         14    1    4    4    0    0 -0.87673952857E+02  0.52309779770E+02 -0.18837797492E+03  0.21426454794E+03  0.00000000000E+00 0. -1.
         -5    1    5    5    0  502  0.14470813084E+03 -0.16606492731E+02 -0.10075030551E+02  0.14608153536E+03  0.47000000000E+01 0.  1.
         13    1    6    6    0    0  0.15440527046E+02 -0.98729459175E+01 -0.17582063651E+02  0.25397123829E+02  0.00000000000E+00 0. -1.
        -14    1    6    6    0    0  0.41172643218E+02 -0.56953054676E+02  0.87880999558E+02  0.11252513972E+03  0.00000000000E+00 0.  1.
</event>
<event>
12    1  0.8052519E-002  0.2357585E+03  0.7818608E-02  0.1122716E+00
         21   -1    0    0  501  502  0.00000000000E+00  0.00000000000E+00  0.12050250348E+03  0.12050250348E+03  0.00000000000E+00 0. -1.
         21   -1    0    0  502  503 -0.00000000000E+00 -0.00000000000E+00 -0.10442083889E+04  0.10442083889E+04  0.00000000000E+00 0. -1.
         -6    2    1    2    0  503  0.10056830163E+03  0.12695610505E+03 -0.89741765547E+03  0.92786881223E+03  0.17131914209E+03 0.  0.
        -24    2    3    3    0    0  0.10597301774E+03  0.12170503134E+03 -0.89982114700E+03  0.91866818709E+03  0.90723460315E+02 0.  0.
          6    2    1    2  501    0 -0.10056830163E+03 -0.12695610505E+03 -0.26288229968E+02  0.23684208016E+03  0.17079597184E+03 0.  0.
         24    2    5    5    0    0 -0.95144030226E+02 -0.14518812266E+03 -0.58461675413E+02  0.19917180305E+03  0.78228269747E+02 0.  0.
          5    1    5    5  501    0 -0.54242714079E+01  0.18232017605E+02  0.32173445446E+02  0.37670277117E+02  0.47000000000E+01 0. -1.
        -11    1    6    6    0    0 -0.51583753735E+02 -0.19163782465E+02 -0.30555565785E+02  0.62942646975E+02  0.00000000000E+00 0.  1.
         12    1    6    6    0    0 -0.43560276491E+02 -0.12602434019E+03 -0.27906109628E+02  0.13622915607E+03  0.00000000000E+00 0. -1.
         -5    1    3    3    0  503 -0.54047161062E+01  0.52510737168E+01  0.24034915247E+01  0.92006251352E+01  0.47000000000E+01 0.  1.
         13    1    4    4    0    0  0.36889062704E+02  0.90503065987E+02 -0.34099206335E+03  0.35472129224E+03  0.00000000000E+00 0. -1.
        -14    1    4    4    0    0  0.69083955037E+02  0.31201965350E+02 -0.55882908364E+03  0.56394689485E+03  0.00000000000E+00 0.  1.
</event>
<event>
12    1  0.8052519E-002  0.1818731E+03  0.7818608E-02  0.1166300E+00
         21   -1    0    0  503  502  0.00000000000E+00  0.00000000000E+00  0.95898627849E+02  0.95898627849E+02  0.00000000000E+00 0.  1.
         21   -1    0    0  501  503 -0.00000000000E+00 -0.00000000000E+00 -0.37248316375E+03  0.37248316375E+03  0.00000000000E+00 0.  1.
          6    2    1    2  501    0 -0.52121440809E+02  0.18195863894E+02 -0.20508804357E+03  0.27411483449E+03  0.17329195831E+03 0.  0.
         24    2    3    3    0    0 -0.66308500743E+02  0.69164370296E+02 -0.17057050593E+03  0.21076965535E+03  0.78415704661E+02 0.  0.
         -6    2    1    2    0  502  0.52121440809E+02 -0.18195863894E+02 -0.71496492335E+02  0.19426695711E+03  0.17198886056E+03 0.  0.
        -24    2    5    5    0    0  0.10154745778E+02  0.39702870344E+02  0.41139332064E+01  0.90091655969E+02  0.80125808909E+02 0.  0.
          5    1    3    3  501    0  0.14187059935E+02 -0.50968506402E+02 -0.34517537646E+02  0.63345179134E+02  0.47000000000E+01 0. -1.
        -13    1    4    4    0    0 -0.35702090512E+02 -0.81300402254E+01 -0.29480279894E+02  0.47008762201E+02  0.00000000000E+00 0.  1.
         14    1    4    4    0    0 -0.30606410231E+02  0.77294410521E+02 -0.14109022603E+03  0.16376089315E+03  0.00000000000E+00 0. -1.
         -5    1    5    5    0  502  0.41966695031E+02 -0.57898734239E+02 -0.75610425542E+02  0.10417530115E+03  0.47000000000E+01 0.  1.
         13    1    6    6    0    0 -0.14899075545E+02 -0.20135744182E+02 -0.52621024209E+00  0.25054092342E+02  0.00000000000E+00 0. -1.
        -14    1    6    6    0    0  0.25053821323E+02  0.59838614526E+02  0.46401434485E+01  0.65037563627E+02  0.00000000000E+00 0.  1.
</event>
<event>
12    1  0.8052519E-002  0.1899114E+03  0.7818608E-02  0.1160449E+00
         21   -1    0    0  503  502  0.00000000000E+00  0.00000000000E+00  0.43850503508E+03  0.43850503508E+03  0.00000000000E+00 0.  1.
         21   -1    0    0  501  503 -0.00000000000E+00 -0.00000000000E+00 -0.78877403980E+02  0.78877403980E+02  0.00000000000E+00 0.  1.
          6    2    1    2  501    0  0.10341901786E+02  0.78687718113E+02  0.19565829314E+03  0.27266923232E+03  0.17253298428E+03 0.  0.
         24    2    3    3    0    0 -0.43214885120E+02 -0.15929290642E+01  0.69266879119E+02  0.11357746235E+03  0.78942230087E+02 0.  0.
         -6    2    1    2    0  502 -0.10341901786E+02 -0.78687718113E+02  0.16396933796E+03  0.24471320674E+03  0.16340103380E+03 0.  0.
        -24    2    5    5    0    0 -0.65295133136E+02 -0.29483472678E+02  0.10371016294E+03  0.14934983023E+03  0.80105207829E+02 0.  0.
          5    1    3    3  501    0  0.53556786906E+02  0.80280647177E+02  0.12639141402E+03  0.15909176997E+03  0.47000000000E+01 0. -1.
        -11    1    4    4    0    0  0.18717253443E+00  0.33897419730E+02  0.24317696388E+02  0.41718346749E+02  0.00000000000E+00 0.  1.
         12    1    4    4    0    0 -0.43402057654E+02 -0.35490348794E+02  0.44949182732E+02  0.71859115597E+02  0.00000000000E+00 0. -1.
         -5    1    5    5    0  502  0.54953231350E+02 -0.49204245435E+02  0.60259175019E+02  0.95363376506E+02  0.47000000000E+01 0.  1.
         11    1    6    6    0    0  0.57268906584E+01 -0.66787427846E+01 -0.10023458570E+02  0.13336888824E+02  0.00000000000E+00 0. -1.
        -12    1    6    6    0    0 -0.71022023795E+02 -0.22804729893E+02  0.11373362151E+03  0.13601294141E+03  0.00000000000E+00 0.  1.
</event>
<event>
12    1  0.8052519E-002  0.1871207E+03  0.7818608E-02  0.1161278E+00
         21   -1    0    0  501  502  0.00000000000E+00  0.00000000000E+00  0.16489824320E+04  0.16489824320E+04  0.00000000000E+00 0. -1.
         21   -1    0    0  502  503 -0.00000000000E+00 -0.00000000000E+00 -0.25986669243E+02  0.25986669243E+02  0.00000000000E+00 0.  1.
         -6    2    1    2    0  503 -0.70866780235E+02  0.53949075352E+01  0.44828159437E+03  0.48544501999E+03  0.17218964550E+03 0.  0.
        -24    2    3    3    0    0 -0.77323828489E+02 -0.45773332798E+02  0.21654359907E+03  0.24799087546E+03  0.80834222742E+02 0.  0.
          6    2    1    2  501    0  0.70866780235E+02 -0.53949075352E+01  0.11747141683E+04  0.11895240812E+04  0.17309811348E+03 0.  0.
         24    2    5    5    0    0  0.18546505138E+02  0.61153395572E+01  0.24623624597E+03  0.25949008219E+03  0.79507507183E+02 0.  0.
          5    1    5    5  501    0  0.52320275097E+02 -0.11510247092E+02  0.92847792238E+03  0.93003399901E+03  0.47000000000E+01 0. -1.
        -11    1    6    6    0    0  0.38917182867E+02  0.57593456053E+01  0.23026729372E+03  0.23360381791E+03  0.00000000000E+00 0.  1.
         12    1    6    6    0    0 -0.20370677729E+02  0.35599395192E+00  0.15968952249E+02  0.25886264288E+02  0.00000000000E+00 0. -1.
         -5    1    3    3    0  503  0.64570482536E+01  0.51168240333E+02  0.23173799529E+03  0.23745414453E+03  0.47000000000E+01 0.  1.
         13    1    4    4    0    0 -0.17987817582E+02 -0.27611582403E+02  0.16217428928E+03  0.16548855298E+03  0.00000000000E+00 0. -1.
        -14    1    4    4    0    0 -0.59336010907E+02 -0.18161750395E+02  0.54369309792E+02  0.82502322483E+02  0.00000000000E+00 0.  1.
</event>
<event>
12    1  0.8052519E-002  0.2006985E+03  0.7818608E-02  0.1149585E+00
         21   -1    0    0  503  502  0.00000000000E+00  0.00000000000E+00  0.29546222679E+03  0.29546222679E+03  0.00000000000E+00 0. -1.
         21   -1    0    0  501  503 -0.00000000000E+00 -0.00000000000E+00 -0.14400745109E+03  0.14400745109E+03  0.00000000000E+00 0. -1.
          6    2    1    2  501    0 -0.20873489363E+02 -0.10129073313E+03  0.20940931345E+02  0.20178798433E+03  0.17200102569E+03 0.  0.
         24    2    3    3    0    0  0.30843404250E+02 -0.11509479426E+03  0.32751898005E+02  0.14677182196E+03  0.79190615909E+02 0.  0.
         -6    2    1    2    0  502  0.20873489363E+02  0.10129073313E+03  0.13051384436E+03  0.23768169354E+03  0.16959719544E+03 0.  0.
        -24    2    5    5    0    0  0.78014491566E+02  0.66615119114E+02  0.10490532124E+03  0.16595039775E+03  0.77527885949E+02 0.  0.
          5    1    3    3  501    0 -0.51716893613E+02  0.13804061130E+02 -0.11810966660E+02  0.55016162372E+02  0.47000000000E+01 0. -1.
        -13    1    4    4    0    0  0.57332985293E+02 -0.70500658979E+02  0.16021429040E+02  0.92271882541E+02  0.00000000000E+00 0.  1.
         14    1    4    4    0    0 -0.26489581043E+02 -0.44594135278E+02  0.16730468966E+02  0.54499939421E+02  0.00000000000E+00 0. -1.
         -5    1    5    5    0  502 -0.57141002202E+02  0.34675614013E+02  0.25608523117E+02  0.71731295793E+02  0.47000000000E+01 0.  1.
         11    1    6    6    0    0  0.21281318635E+02 -0.92928541334E+01  0.53082953209E+02  0.57940068883E+02  0.00000000000E+00 0. -1.
        -12    1    6    6    0    0  0.56733172931E+02  0.75907973248E+02  0.51822368031E+02  0.10801032887E+03  0.00000000000E+00 0.  1.
</event>
<event>
12    1  0.8052519E-002  0.1756399E+03  0.7818608E-02  0.1172320E+00
         21   -1    0    0  501  502  0.00000000000E+00  0.00000000000E+00  0.44796212346E+02  0.44796212346E+02  0.00000000000E+00 0. -1.
         21   -1    0    0  502  503 -0.00000000000E+00 -0.00000000000E+00 -0.14211608212E+04  0.14211608212E+04  0.00000000000E+00 0.  1.
         -6    2    1    2    0  503  0.24910888359E+02 -0.16428483918E+02 -0.12165644284E+04  0.12291779252E+04  0.17308644064E+03 0.  0.
        -24    2    3    3    0    0  0.18863034494E+02 -0.47712180215E+02 -0.11626700871E+04  0.11663930846E+04  0.77709909855E+02 0.  0.
          6    2    1    2  501    0 -0.24910888359E+02  0.16428483918E+02 -0.15980018048E+03  0.23677910836E+03  0.17215632731E+03 0.  0.
         24    2    5    5    0    0  0.35244492372E+01  0.74849578883E+02 -0.95542687225E+02  0.14527660457E+03  0.79762181211E+02 0.  0.
          5    1    5    5  501    0 -0.28435337596E+02 -0.58421094965E+02 -0.64257493257E+02  0.91502503795E+02  0.47000000000E+01 0. -1.
        -13    1    6    6    0    0  0.36701092349E+02  0.19201884751E+02 -0.54989298786E+02  0.68844066837E+02  0.00000000000E+00 0.  1.
         14    1    6    6    0    0 -0.33176643112E+02  0.55647694132E+02 -0.40553388438E+02  0.76432537732E+02  0.00000000000E+00 0. -1.
         -5    1    3    3    0  503  0.60478538645E+01  0.31283696297E+02 -0.53894341332E+02  0.62784840670E+02  0.47000000000E+01 0.  1.
         13    1    4    4    0    0  0.30521058488E+02  0.20472713908E+01 -0.19597537750E+03  0.19834836757E+03  0.00000000000E+00 0. -1.
        -14    1    4    4    0    0 -0.11658023994E+02 -0.49759451606E+02 -0.96669470958E+03  0.96804471698E+03  0.00000000000E+00 0.  1.
</event>
<event>
12    1  0.8052519E-002  0.2058769E+03  0.7818608E-02  0.1145710E+00
         21   -1    0    0  503  502  0.00000000000E+00  0.00000000000E+00  0.44814028264E+03  0.44814028264E+03  0.00000000000E+00 0. -1.
         21   -1    0    0  501  503 -0.00000000000E+00 -0.00000000000E+00 -0.93627751655E+02  0.93627751655E+02  0.00000000000E+00 0. -1.
          6    2    1    2  501    0  0.10863980660E+03 -0.24855260145E+02  0.20572057713E+03  0.29104340661E+03  0.17310377564E+03 0.  0.
         24    2    3    3    0    0  0.19644745100E+02 -0.64915915475E+02  0.89842141985E+02  0.13946874247E+03  0.82340315503E+02 0.  0.
         -6    2    1    2    0  502 -0.10863980660E+03  0.24855260145E+02  0.14879195386E+03  0.25072462769E+03  0.16823614909E+03 0.  0.
        -24    2    5    5    0    0 -0.13142104123E+03  0.44562123120E+02  0.88155676761E+02  0.18285568634E+03  0.80046897425E+02 0.  0.
          5    1    3    3  501    0  0.88995061505E+02  0.40060655330E+02  0.11587843514E+03  0.15157466414E+03  0.47000000000E+01 0. -1.
        -11    1    4    4    0    0  0.42747035046E+02 -0.70797316928E+02  0.72610198262E+02  0.11005366864E+03  0.00000000000E+00 0.  1.
         12    1    4    4    0    0 -0.23102289947E+02  0.58814014533E+01  0.17231943722E+02  0.29415073828E+02  0.00000000000E+00 0. -1.
         -5    1    5    5    0  502  0.22781234625E+02 -0.19706862974E+02  0.60636277099E+02  0.67868941349E+02  0.47000000000E+01 0.  1.
         11    1    6    6    0    0 -0.78832663084E+02 -0.15503182765E+02  0.42563267883E+02  0.90920675414E+02  0.00000000000E+00 0. -1.
        -12    1    6    6    0    0 -0.52588378146E+02  0.60065305885E+02  0.45592408877E+02  0.91935010928E+02  0.00000000000E+00 0.  1.
</event>
<event>
12    1  0.8052519E-002  0.3697769E+03  0.7818608E-02  0.1054875E+00
         21   -1    0    0  503  502  0.00000000000E+00  0.00000000000E+00  0.38813878742E+03  0.38813878742E+03  0.00000000000E+00 0. -1.
         21   -1    0    0  501  503 -0.00000000000E+00 -0.00000000000E+00 -0.35260028962E+03  0.35260028962E+03  0.00000000000E+00 0. -1.
          6    2    1    2  501    0 -0.14600747934E+03  0.29191656840E+03  0.40012614598E+02  0.37093509707E+03  0.17163440793E+03 0.  0.
         24    2    3    3    0    0 -0.84925363380E+02  0.24905341164E+03  0.79055849623E+02  0.28658618304E+03  0.81497814421E+02 0.  0.
         -6    2    1    2    0  502  0.14600747934E+03 -0.29191656840E+03 -0.44741168001E+01  0.36980397997E+03  0.17378578467E+03 0.  0.
        -24    2    5    5    0    0  0.52270415970E+02 -0.78446689051E+02 -0.48695099788E+02  0.13245695182E+03  0.79294085102E+02 0.  0.
          5    1    3    3  501    0 -0.61082115960E+02  0.42863156760E+02 -0.39043235025E+02  0.84348914034E+02  0.47000000000E+01 0. -1.
        -13    1    4    4    0    0 -0.32873919557E+02  0.66426515975E+02 -0.13493714203E+02  0.75334301183E+02  0.00000000000E+00 0.  1.
         14    1    4    4    0    0 -0.52051443822E+02  0.18262689566E+03  0.92549563826E+02  0.21125188186E+03  0.00000000000E+00 0. -1.
         -5    1    5    5    0  502  0.93737063370E+02 -0.21346987935E+03  0.44220982988E+02  0.23734702816E+03  0.47000000000E+01 0.  1.
         11    1    6    6    0    0  0.59901883937E+02 -0.23954372810E+02 -0.10227201770E+02  0.65319547855E+02  0.00000000000E+00 0. -1.
        -12    1    6    6    0    0 -0.76314679675E+01 -0.54492316241E+02 -0.38467898018E+02  0.67137403960E+02  0.00000000000E+00 0.  1.
</event>
<event>
12    1  0.8052519E-002  0.1817532E+03  0.7818608E-02  0.1166599E+00
         21   -1    0    0  501  502  0.00000000000E+00  0.00000000000E+00  0.31369464071E+03  0.31369464071E+03  0.00000000000E+00 0.  1.
         21   -1    0    0  502  503 -0.00000000000E+00 -0.00000000000E+00 -0.10976813025E+03  0.10976813025E+03  0.00000000000E+00 0.  1.
         -6    2    1    2    0  503  0.43821869447E+02  0.39655704566E+02  0.15040416558E+03  0.23591447920E+03  0.17187581949E+03 0.  0.
        -24    2    3    3    0    0 -0.93056725863E+01 -0.36393123737E+02  0.52483901297E+02  0.10094623046E+03  0.77617823674E+02 0.  0.
          6    2    1    2  501    0 -0.43821869447E+02 -0.39655704566E+02  0.53522344881E+02  0.18754829177E+03  0.16975508592E+03 0.  0.
         24    2    5    5    0    0 -0.61032139124E+02 -0.51459090906E+01 -0.21801082421E+02  0.10279672502E+03  0.79627112802E+02 0.  0.
          5    1    5    5  501    0  0.17210269677E+02 -0.34509795476E+02  0.75323427302E+02  0.84751566750E+02  0.47000000000E+01 0. -1.
        -13    1    6    6    0    0  0.29940360071E+00 -0.19017344415E+02 -0.33797757444E+02  0.38781921553E+02  0.00000000000E+00 0.  1.
         14    1    6    6    0    0 -0.61331542724E+02  0.13871435324E+02  0.11996675023E+02  0.64014803464E+02  0.00000000000E+00 0. -1.
         -5    1    3    3    0  503  0.53127542033E+02  0.76048828303E+02  0.97920264284E+02  0.13496824873E+03  0.47000000000E+01 0.  1.
         11    1    4    4    0    0 -0.22701739296E+02  0.88250711622E+01 -0.67082757954E+01  0.25263646059E+02  0.00000000000E+00 0. -1.
        -12    1    4    4    0    0  0.13396066709E+02 -0.45218194899E+02  0.59192177093E+02  0.75682584405E+02  0.00000000000E+00 0.  1.
</event>
<event>
12    1  0.8052519E-002  0.1969636E+03  0.7818608E-02  0.1153781E+00
         21   -1    0    0  503  502  0.00000000000E+00  0.00000000000E+00  0.16920981714E+03  0.16920981714E+03  0.00000000000E+00 0. -1.
         21   -1    0    0  501  503 -0.00000000000E+00 -0.00000000000E+00 -0.98159761130E+03  0.98159761130E+03  0.00000000000E+00 0.  1.
          6    2    1    2  501    0  0.14236836166E+02  0.94415188444E+02 -0.91090768190E+03  0.93057842741E+03  0.16464048499E+03 0.  0.
         24    2    3    3    0    0 -0.16173266974E+01  0.12794741551E+03 -0.65969753893E+03  0.67660128146E+03  0.78837137967E+02 0.  0.
         -6    2    1    2    0  502 -0.14236836166E+02 -0.94415188444E+02  0.98519887735E+02  0.22022900104E+03  0.17227225344E+03 0.  0.
        -24    2    5    5    0    0  0.41789221644E+02 -0.41592345280E+02  0.10715757657E+03  0.14260251340E+03  0.73324405090E+02 0.  0.
          5    1    3    3  501    0  0.15854162864E+02 -0.33532227067E+02 -0.25121014297E+03  0.25397714595E+03  0.47000000000E+01 0. -1.
        -11    1    4    4    0    0  0.17271859475E+02  0.99889717591E+02 -0.33118507908E+03  0.34635217541E+03  0.00000000000E+00 0.  1.
         12    1    4    4    0    0 -0.18889186173E+02  0.28057697919E+02 -0.32851245985E+03  0.33024910604E+03  0.00000000000E+00 0. -1.
         -5    1    5    5    0  502 -0.56026057811E+02 -0.52822843164E+02 -0.86376888330E+01  0.77626487632E+02  0.47000000000E+01 0.  1.
         13    1    6    6    0    0 -0.57333639309E+01 -0.44151898342E+02  0.66392108239E+02  0.79938561568E+02  0.00000000000E+00 0. -1.
        -14    1    6    6    0    0  0.47522585575E+02  0.25595530622E+01  0.40765468328E+02  0.62663951836E+02  0.00000000000E+00 0.  1.
</event>
<event>
12    1  0.8052519E-002  0.4391421E+03  0.7818608E-02  0.1031031E+00
         21   -1    0    0  503  502  0.00000000000E+00  0.00000000000E+00  0.34453428048E+03  0.34453428048E+03  0.00000000000E+00 0.  1.
         21   -1    0    0  501  503 -0.00000000000E+00 -0.00000000000E+00 -0.60492852322E+03  0.60492852322E+03  0.00000000000E+00 0. -1.
          6    2    1    2  501    0 -0.38980563582E+03  0.10704975659E+03 -0.26040781885E+03  0.51032073639E+03  0.17090037381E+03 0.  0.
         24    2    3    3    0    0 -0.25455320160E+03  0.13279728570E+03 -0.20286323309E+03  0.36102363137E+03  0.82171281681E+02 0.  0.
         -6    2    1    2    0  502  0.38980563582E+03 -0.10704975659E+03  0.13576112029E-01  0.43914206730E+03  0.17157409765E+03 0.  0.
        -24    2    5    5    0    0  0.27893485703E+03 -0.11492585432E+02 -0.18500855400E+02  0.29153320332E+03  0.81930415621E+02 0.  0.
          5    1    3    3  501    0 -0.13525243422E+03 -0.25747529106E+02 -0.57544585757E+02  0.14929710502E+03  0.47000000000E+01 0. -1.
        -13    1    4    4    0    0  0.55235188998E+01  0.54840727425E+01 -0.11684595030E+02  0.14039732045E+02  0.00000000000E+00 0.  1.
         14    1    4    4    0    0 -0.26007672050E+03  0.12731321295E+03 -0.19117863806E+03  0.34698389932E+03  0.00000000000E+00 0. -1.
         -5    1    5    5    0  502  0.11087077879E+03 -0.95557171159E+02  0.18514431512E+02  0.14760886398E+03  0.47000000000E+01 0.  1.
         11    1    6    6    0    0  0.16082184858E+03 -0.27175897418E+02 -0.45568176041E+02  0.16934773411E+03  0.00000000000E+00 0. -1.
        -12    1    6    6    0    0  0.11811300845E+03  0.15683311986E+02  0.27067320641E+02  0.12218546921E+03  0.00000000000E+00 0.  1.
</event>
<event>
12    1  0.8052519E-002  0.1807926E+03  0.7818608E-02  0.1167717E+00
         21   -1    0    0  503  502  0.00000000000E+00  0.00000000000E+00  0.65174304639E+03  0.65174304639E+03  0.00000000000E+00 0. -1.
         21   -1    0    0  501  503 -0.00000000000E+00 -0.00000000000E+00 -0.57410932734E+02  0.57410932734E+02  0.00000000000E+00 0. -1.
          6    2    1    2  501    0 -0.19100865629E+02 -0.43053471837E+02  0.16255059969E+03  0.24105011967E+03  0.17165086142E+03 0.  0.
         24    2    3    3    0    0  0.11316507984E+02 -0.91512504069E+02  0.11569706045E+03  0.16694992694E+03  0.77355455882E+02 0.  0.
         -6    2    1    2    0  502  0.19100865629E+02  0.43053471837E+02  0.43178151396E+03  0.46810385946E+03  0.17454942834E+03 0.  0.
        -24    2    5    5    0    0  0.44708660639E+02  0.66618780479E+02  0.17062808230E+03  0.20459999268E+03  0.79437323011E+02 0.  0.
          5    1    3    3  501    0 -0.30417373613E+02  0.48459032232E+02  0.46853539238E+02  0.74100192722E+02  0.47000000000E+01 0. -1.
        -13    1    4    4    0    0 -0.91148275312E+01  0.11590557096E+02  0.19654034816E+02  0.24570351631E+02  0.00000000000E+00 0.  1.
         14    1    4    4    0    0  0.20431335515E+02 -0.10310306116E+03  0.96043025637E+02  0.14237957531E+03  0.00000000000E+00 0. -1.
         -5    1    5    5    0  502 -0.25607795010E+02 -0.23565308642E+02  0.26115343167E+03  0.26350386678E+03  0.47000000000E+01 0.  1.
         13    1    6    6    0    0  0.30631222168E+02 -0.80799231317E+01  0.81612167545E+02  0.87544861761E+02  0.00000000000E+00 0. -1.
        -14    1    6    6    0    0  0.14077438470E+02  0.74698703611E+02  0.89015914752E+02  0.11705513092E+03  0.00000000000E+00 0.  1.
</event>
<event>
12    1  0.8052519E-002  0.2060121E+03  0.7818608E-02  0.1146687E+00
         21   -1    0    0  503  502  0.00000000000E+00  0.00000000000E+00  0.16176642143E+03  0.16176642143E+03  0.00000000000E+00 0.  1.
         21   -1    0    0  501  503 -0.00000000000E+00 -0.00000000000E+00 -0.10126091494E+04  0.10126091494E+04  0.00000000000E+00 0.  1.
          6    2    1    2  501    0  0.20335238723E+02  0.94059672114E+02 -0.93230451612E+03  0.95284225737E+03  0.17162724960E+03 0.  0.
         24    2    3    3    0    0  0.14820108398E+02  0.13380702754E+03 -0.70413977947E+03  0.72112798078E+03  0.78030631172E+02 0.  0.
         -6    2    1    2    0  502 -0.20335238723E+02 -0.94059672114E+02  0.81461788147E+02  0.22153331345E+03  0.18215444597E+03 0.  0.
        -24    2    5    5    0    0 -0.15179675958E+02 -0.65417381663E+02  0.12895382632E+03  0.16563568990E+03  0.79348825195E+02 0.  0.
          5    1    3    3  501    0  0.55151303248E+01 -0.39747355426E+02 -0.22816473665E+03  0.23171427659E+03  0.47000000000E+01 0. -1.
        -11    1    4    4    0    0  0.34390596779E+02  0.19746199592E+02 -0.16345700535E+03  0.16819874596E+03  0.00000000000E+00 0.  1.
         12    1    4    4    0    0 -0.19570488381E+02  0.11406082795E+03 -0.54068277412E+03  0.55292923482E+03  0.00000000000E+00 0. -1.
         -5    1    5    5    0  502 -0.51555627651E+01 -0.28642290451E+02 -0.47492038169E+02  0.55897623555E+02  0.47000000000E+01 0.  1.
         11    1    6    6    0    0  0.67569962634E+01 -0.77145177083E+01 -0.95400610628E+01  0.14006553718E+02  0.00000000000E+00 0. -1.
        -12    1    6    6    0    0 -0.21936672221E+02 -0.57702863954E+02  0.13849388738E+03  0.15162913618E+03  0.00000000000E+00 0.  1.
</event>
<event>
12    1  0.8052519E-002  0.2376967E+03  0.7818608E-02  0.1121434E+00
         21   -1    0    0  503  502  0.00000000000E+00  0.00000000000E+00  0.34649721254E+03  0.34649721254E+03  0.00000000000E+00 0. -1.
         21   -1    0    0  501  503 -0.00000000000E+00 -0.00000000000E+00 -0.48239735562E+03  0.48239735562E+03  0.00000000000E+00 0. -1.
          6    2    1    2  501    0  0.39113588164E+02 -0.16081022539E+03 -0.40538925169E+03  0.46993633376E+03  0.17061626836E+03 0.  0.
         24    2    3    3    0    0  0.74016216973E+02 -0.96128487773E+02 -0.34643501848E+03  0.37559857730E+03  0.79611448341E+02 0.  0.
         -6    2    1    2    0  502 -0.39113588164E+02  0.16081022539E+03  0.26948910862E+03  0.35895823440E+03  0.16981411311E+03 0.  0.
        -24    2    5    5    0    0 -0.42891902660E+02  0.12498423578E+03  0.95842668019E+02  0.18155205208E+03  0.79464181220E+02 0.  0.
          5    1    3    3  501    0 -0.34902628810E+02 -0.64681737620E+02 -0.58954233217E+02  0.94337756458E+02  0.47000000000E+01 0. -1.
        -11    1    4    4    0    0  0.79823040612E+02 -0.50971436969E+02 -0.18455095542E+03  0.20743399033E+03  0.00000000000E+00 0.  1.
         12    1    4    4    0    0 -0.58068236387E+01 -0.45157050803E+02 -0.16188406306E+03  0.16816458697E+03  0.00000000000E+00 0. -1.
         -5    1    5    5    0  502  0.37783144961E+01  0.35825989618E+02  0.17364644060E+03  0.17740618232E+03  0.47000000000E+01 0.  1.
         11    1    6    6    0    0 -0.55836356826E+02  0.73758101260E+02  0.88829667257E+02  0.12825235292E+03  0.00000000000E+00 0. -1.
        -12    1    6    6    0    0  0.12944454166E+02  0.51226134515E+02  0.70130007616E+01  0.53299699162E+02  0.00000000000E+00 0.  1.
</event>
<event>
12    1  0.8052519E-002  0.2482076E+03  0.7818608E-02  0.1114513E+00
         21   -1    0    0  503  502  0.00000000000E+00  0.00000000000E+00  0.43519600602E+03  0.43519600602E+03  0.00000000000E+00 0.  1.
         21   -1    0    0  501  503 -0.00000000000E+00 -0.00000000000E+00 -0.19071856922E+03  0.19071856922E+03  0.00000000000E+00 0.  1.
          6    2    1    2  501    0 -0.84922029495E+02  0.15712146955E+03 -0.36972129676E+02  0.25094612406E+03  0.17236041169E+03 0.  0.
         24    2    3    3    0    0  0.62713027987E+00  0.12848640774E+03  0.32442140567E+01  0.15206200093E+03  0.81259934380E+02 0.  0.
         -6    2    1    2    0  502  0.84922029495E+02 -0.15712146955E+03  0.28144956648E+03  0.37496845119E+03  0.17172237369E+03 0.  0.
        -24    2    5    5    0    0  0.15963809692E+02 -0.77477189705E+02  0.55535868769E+02  0.12565431961E+03  0.80294565019E+02 0.  0.
          5    1    3    3  501    0 -0.85549159775E+02  0.28635061815E+02 -0.40216343732E+02  0.98884123127E+02  0.47000000000E+01 0. -1.
        -13    1    4    4    0    0 -0.83037410633E+01  0.62352074981E+02 -0.38115993305E+02  0.73549726823E+02  0.00000000000E+00 0.  1.
         14    1    4    4    0    0  0.89308713432E+01  0.66134332759E+02  0.41360207361E+02  0.78512274106E+02  0.00000000000E+00 0. -1.
         -5    1    5    5    0  502  0.68958219803E+02 -0.79644279850E+02  0.22591369771E+03  0.24931413158E+03  0.47000000000E+01 0.  1.
         11    1    6    6    0    0  0.16550830365E+02 -0.93945494793E+02  0.52543896632E+02  0.10890613872E+03  0.00000000000E+00 0. -1.
        -12    1    6    6    0    0 -0.58702067363E+00  0.16468305088E+02  0.29919721370E+01  0.16748180887E+02  0.00000000000E+00 0.  1.
</event>
<event>
12    1  0.8052519E-002  0.1752388E+03  0.7818608E-02  0.1172754E+00
         21   -1    0    0  503  502  0.00000000000E+00  0.00000000000E+00  0.20534121553E+03  0.20534121553E+03  0.00000000000E+00 0.  1.
         21   -1    0    0  501  503 -0.00000000000E+00 -0.00000000000E+00 -0.23595640044E+03  0.23595640044E+03  0.00000000000E+00 0.  1.
          6    2    1    2  501    0  0.15720506994E+02 -0.18422975033E+02 -0.14954483908E+03  0.23037428516E+03  0.17355722980E+03 0.  0.
         24    2    3    3    0    0 -0.46001219894E+02 -0.19761946750E+02 -0.13928755684E+03  0.16761549092E+03  0.78659281294E+02 0.  0.
         -6    2    1    2    0  502 -0.15720506994E+02  0.18422975033E+02  0.11892965417E+03  0.21092333081E+03  0.17250463325E+03 0.  0.
        -24    2    5    5    0    0  0.54736938285E+02  0.24245687970E+01  0.43735928539E+02  0.10653757043E+03  0.80221016701E+02 0.  0.
          5    1    3    3  501    0  0.61721726888E+02  0.13389717171E+01 -0.10257282238E+02  0.62758794238E+02  0.47000000000E+01 0. -1.
        -11    1    4    4    0    0  0.38165887911E+01 -0.34455698727E+02 -0.88172370926E+02  0.94742432519E+02  0.00000000000E+00 0.  1.
         12    1    4    4    0    0 -0.49817808685E+02  0.14693751977E+02 -0.51115185918E+02  0.72873058401E+02  0.00000000000E+00 0. -1.
         -5    1    5    5    0  502 -0.70457445279E+02  0.15998406236E+02  0.75193725630E+02  0.10438576039E+03  0.47000000000E+01 0.  1.
         13    1    6    6    0    0 -0.75849878975E+01 -0.26570033481E+02  0.18786914104E+02  0.33413273742E+02  0.00000000000E+00 0. -1.
        -14    1    6    6    0    0  0.62321926182E+02  0.28994602278E+02  0.24949014434E+02  0.73124296684E+02  0.00000000000E+00 0.  1.
</event>
<event>
12    1  0.8052519E-002  0.1994840E+03  0.7818608E-02  0.1150297E+00
         21   -1    0    0  501  502  0.00000000000E+00  0.00000000000E+00  0.38648311567E+02  0.38648311567E+02  0.00000000000E+00 0.  1.
         21   -1    0    0  502  503 -0.00000000000E+00 -0.00000000000E+00 -0.10479906701E+04  0.10479906701E+04  0.00000000000E+00 0.  1.
         -6    2    1    2    0  503  0.99036798412E+02  0.34326216535E+01 -0.58285917063E+03  0.61605086070E+03  0.17312937316E+03 0.  0.
        -24    2    3    3    0    0  0.87618088999E+02  0.62916466088E+02 -0.32081422860E+03  0.34705577465E+03  0.76749789735E+02 0.  0.
          6    2    1    2  501    0 -0.99036798412E+02 -0.34326216535E+01 -0.42648318786E+03  0.47058812092E+03  0.17246796716E+03 0.  0.
         24    2    5    5    0    0  0.14638684381E+02 -0.17610183543E+02 -0.17434335757E+03  0.19360490362E+03  0.81011374087E+02 0.  0.
          5    1    5    5  501    0 -0.11367548279E+03  0.14177561889E+02 -0.25213983028E+03  0.27698321730E+03  0.47000000000E+01 0. -1.
        -13    1    6    6    0    0 -0.30304457935E+02 -0.34472147885E+01 -0.34565703062E+02  0.46098061659E+02  0.00000000000E+00 0.  1.
         14    1    6    6    0    0  0.44943142316E+02 -0.14162968754E+02 -0.13977765451E+03  0.14750684196E+03  0.00000000000E+00 0. -1.
         -5    1    3    3    0  503  0.11418709413E+02 -0.59483844434E+02 -0.26204494203E+03  0.26899508605E+03  0.47000000000E+01 0.  1.
         13    1    4    4    0    0  0.80427938760E+02  0.32442832707E+02 -0.14891063679E+03  0.17232402176E+03  0.00000000000E+00 0. -1.
        -14    1    4    4    0    0  0.71901502396E+01  0.30473633381E+02 -0.17190359180E+03  0.17473175289E+03  0.00000000000E+00 0.  1.
</event>
<event>
12    1  0.8052519E-002  0.1953275E+03  0.7818608E-02  0.1156782E+00
         21   -1    0    0  501  502  0.00000000000E+00  0.00000000000E+00  0.51300521508E+03  0.51300521508E+03  0.00000000000E+00 0.  1.
         21   -1    0    0  502  503 -0.00000000000E+00 -0.00000000000E+00 -0.69350592625E+02  0.69350592625E+02  0.00000000000E+00 0.  1.
         -6    2    1    2    0  503  0.86188598066E+02 -0.32172113158E+02  0.21786599048E+03  0.28380375182E+03  0.15689314975E+03 0.  0.
        -24    2    3    3    0    0  0.56401006104E+02 -0.19355488421E+02  0.22862948611E+03  0.24931448765E+03  0.79564837785E+02 0.  0.
          6    2    1    2  501    0 -0.86188598066E+02  0.32172113158E+02  0.22578863198E+03  0.29855205589E+03  0.17230584564E+03 0.  0.
         24    2    5    5    0    0 -0.12782557534E+02  0.22632368621E+02  0.30067989505E+02  0.89248177751E+02  0.79909544815E+02 0.  0.
          5    1    5    5  501    0 -0.73406040532E+02  0.95397445377E+01  0.19572064248E+03  0.20930387814E+03  0.47000000000E+01 0. -1.
        -13    1    6    6    0    0 -0.28954590773E+02  0.14181844582E+02 -0.18635060265E+02  0.37239206674E+02  0.00000000000E+00 0.  1.
         14    1    6    6    0    0  0.16172033239E+02  0.84505240384E+01  0.48703049770E+02  0.52008971077E+02  0.00000000000E+00 0. -1.
         -5    1    3    3    0  503  0.29787591961E+02 -0.12816624738E+02 -0.10763495635E+02  0.34489264167E+02  0.47000000000E+01 0.  1.
         11    1    4    4    0    0  0.41158549164E+02  0.10087055818E+02  0.41648549876E+02  0.59416972080E+02  0.00000000000E+00 0. -1.
        -12    1    4    4    0    0  0.15242456940E+02 -0.29442544238E+02  0.18698093623E+03  0.18989751557E+03  0.00000000000E+00 0.  1.
</event>
<event>
12    1  0.8052519E-002  0.1881158E+03  0.7818608E-02  0.1160466E+00
         21   -1    0    0  501  502  0.00000000000E+00  0.00000000000E+00  0.25452021974E+03  0.25452021974E+03  0.00000000000E+00 0.  1.
         21   -1    0    0  502  503 -0.00000000000E+00 -0.00000000000E+00 -0.20753958853E+04  0.20753958853E+04  0.00000000000E+00 0. -1.
         -6    2    1    2    0  503 -0.58606594162E+02  0.42682671527E+02 -0.20357649739E+04  0.20443202698E+04  0.17219115319E+03 0.  0.
        -24    2    3    3    0    0 -0.10448375061E+03  0.39759674086E+02 -0.16599172535E+04  0.16656424961E+04  0.80882324275E+02 0.  0.
          6    2    1    2  501    0  0.58606594162E+02 -0.42682671527E+02  0.21488930838E+03  0.28559583520E+03  0.17358289921E+03 0.  0.
         24    2    5    5    0    0 -0.20185507312E+02  0.13541746526E+02  0.14035972924E+03  0.16334147492E+03  0.79929658032E+02 0.  0.
          5    1    5    5  501    0  0.78792101474E+02 -0.56224418053E+02  0.74529579143E+02  0.12225436028E+03  0.47000000000E+01 0. -1.
        -11    1    6    6    0    0  0.12049209549E+02  0.23949533913E+02  0.12180231203E+03  0.12471794915E+03  0.00000000000E+00 0.  1.
         12    1    6    6    0    0 -0.32234716861E+02 -0.10407787387E+02  0.18557417213E+02  0.38623525771E+02  0.00000000000E+00 0. -1.
         -5    1    3    3    0  503  0.45877156449E+02  0.29229974418E+01 -0.37584772038E+03  0.37867777372E+03  0.47000000000E+01 0.  1.
         11    1    4    4    0    0 -0.74146501877E+02  0.38722119539E+02 -0.15275787855E+04  0.15298673316E+04  0.00000000000E+00 0. -1.
        -12    1    4    4    0    0 -0.30337248735E+02  0.10375545463E+01 -0.13233846801E+03  0.13577516450E+03  0.00000000000E+00 0.  1.
</event>
<event>
12    1  0.8052519E-002  0.1808715E+03  0.7818608E-02  0.1167389E+00
         21   -1    0    0  503  502  0.00000000000E+00  0.00000000000E+00  0.10717717450E+04  0.10717717450E+04  0.00000000000E+00 0. -1.
         21   -1    0    0  501  503 -0.00000000000E+00 -0.00000000000E+00 -0.50880189583E+02  0.50880189583E+02  0.00000000000E+00 0. -1.
          6    2    1    2  501    0  0.15557276957E+02 -0.50417098642E+02  0.15430146372E+03  0.23774658291E+03  0.17300457588E+03 0.  0.
         24    2    3    3    0    0  0.88751290821E+01 -0.56606151024E+02  0.18266862195E+03  0.20758466759E+03  0.80253003226E+02 0.  0.
         -6    2    1    2    0  502 -0.15557276957E+02  0.50417098642E+02  0.86659009168E+03  0.88490535166E+03  0.17115835272E+03 0.  0.
        -24    2    5    5    0    0 -0.40060488147E+02 -0.17374286736E+02  0.29473602291E+03  0.30850683912E+03  0.80002737675E+02 0.  0.
          5    1    3    3  501    0  0.66821478748E+01  0.61890523823E+01 -0.28367158222E+02  0.30161915311E+02  0.47000000000E+01 0. -1.
        -11    1    4    4    0    0  0.84921540560E+01 -0.77354932980E+02  0.14188050219E+03  0.16182082449E+03  0.00000000000E+00 0.  1.
         12    1    4    4    0    0  0.38297502613E+00  0.20748781956E+02  0.40788119758E+02  0.45763843107E+02  0.00000000000E+00 0. -1.
         -5    1    5    5    0  502  0.24503211190E+02  0.67791385378E+02  0.57185406876E+03  0.57639851254E+03  0.47000000000E+01 0.  1.
         13    1    6    6    0    0 -0.71738194241E+01  0.27095849635E+02  0.16662819201E+03  0.16896923722E+03  0.00000000000E+00 0. -1.
        -14    1    6    6    0    0 -0.32886668723E+02 -0.44470136372E+02  0.12810783090E+03  0.13953760191E+03  0.00000000000E+00 0.  1.
</event>
<event>
12    1  0.8052519E-002  0.1729128E+03  0.7818608E-02  0.1174979E+00
         21   -1    0    0  501  502  0.00000000000E+00  0.00000000000E+00  0.46421118711E+03  0.46421118711E+03  0.00000000000E+00 0. -1.
         21   -1    0    0  502  503 -0.00000000000E+00 -0.00000000000E+00 -0.68467504403E+02  0.68467504403E+02  0.00000000000E+00 0. -1.
         -6    2    1    2    0  503 -0.98329755057E+01 -0.17280025676E+02  0.13174830878E+03  0.21738550099E+03  0.17176598173E+03 0.  0.
        -24    2    3    3    0    0  0.94892291700E+01 -0.70471951274E+02  0.50627634900E+02  0.11836337077E+03  0.79939907044E+02 0.  0.
          6    2    1    2  501    0  0.98329755057E+01  0.17280025676E+02  0.26399537392E+03  0.31529319052E+03  0.17123361773E+03 0.  0.
         24    2    5    5    0    0  0.62496244547E+02  0.24916605267E+02  0.22999014016E+03  0.25196718341E+03  0.77880544044E+02 0.  0.
          5    1    5    5  501    0 -0.52663269042E+02 -0.76365795910E+01  0.34005233761E+02  0.63326007115E+02  0.47000000000E+01 0. -1.
        -11    1    6    6    0    0 -0.12838678934E+02 -0.13140676948E+02  0.36209452805E+02  0.40603368578E+02  0.00000000000E+00 0.  1.
         12    1    6    6    0    0  0.75334923482E+02  0.38057282215E+02  0.19378068736E+03  0.21136381483E+03  0.00000000000E+00 0. -1.
         -5    1    3    3    0  503 -0.19322204676E+02  0.53191925598E+02  0.81120673882E+02  0.99022130221E+02  0.47000000000E+01 0.  1.
         13    1    4    4    0    0 -0.25934942769E+02 -0.23124168647E+02  0.47889607249E+02  0.59167245284E+02  0.00000000000E+00 0. -1.
        -14    1    4    4    0    0  0.35424171939E+02 -0.47347782628E+02  0.27380276513E+01  0.59196125487E+02  0.00000000000E+00 0.  1.
</event>
<event>
12    1  0.8052519E-002  0.1965665E+03  0.7818608E-02  0.1153121E+00
         21   -1    0    0  503  502  0.00000000000E+00  0.00000000000E+00  0.56669302682E+03  0.56669302682E+03  0.00000000000E+00 0. -1.
         21   -1    0    0  501  503 -0.00000000000E+00 -0.00000000000E+00 -0.85890519781E+02  0.85890519781E+02  0.00000000000E+00 0. -1.
          6    2    1    2  501    0 -0.81156026627E+02 -0.46329136280E+02  0.90263546639E+02  0.21630047674E+03  0.17293264255E+03 0.  0.
         24    2    3    3    0    0 -0.11678892072E+03 -0.11268754260E+02  0.44103620531E+02  0.14809664761E+03  0.78872370722E+02 0.  0.
         -6    2    1    2    0  502  0.81156026627E+02  0.46329136280E+02  0.39053896040E+03  0.43628306987E+03  0.17055658279E+03 0.  0.
        -24    2    5    5    0    0  0.26726779897E+02 -0.36196175115E+02  0.21321963851E+03  0.23321361909E+03  0.83075231135E+02 0.  0.
          5    1    3    3  501    0  0.35632894097E+02 -0.35060382020E+02  0.46159926109E+02  0.68203829126E+02  0.47000000000E+01 0. -1.
        -11    1    4    4    0    0 -0.35624207242E+02  0.36310522174E+01  0.54199454489E+02  0.64960369062E+02  0.00000000000E+00 0.  1.
         12    1    4    4    0    0 -0.81164713481E+02 -0.14899806477E+02 -0.10095833958E+02  0.83136278548E+02  0.00000000000E+00 0. -1.
         -5    1    5    5    0  502  0.54429246729E+02  0.82525311395E+02  0.17731932189E+03  0.20306945077E+03  0.47000000000E+01 0.  1.
         11    1    6    6    0    0  0.35822941707E+02 -0.46567719754E+02  0.79866599365E+02  0.99148925207E+02  0.00000000000E+00 0. -1.
        -12    1    6    6    0    0 -0.90961618101E+01  0.10371544639E+02  0.13335303914E+03  0.13406469389E+03  0.00000000000E+00 0.  1.
</event>
<event>
12    1  0.8052519E-002  0.2028489E+03  0.7818608E-02  0.1147791E+00
         21   -1    0    0  501  502  0.00000000000E+00  0.00000000000E+00  0.37390087390E+03  0.37390087390E+03  0.00000000000E+00 0. -1.
         21   -1    0    0  502  503 -0.00000000000E+00 -0.00000000000E+00 -0.35454057139E+03  0.35454057139E+03  0.00000000000E+00 0. -1.
         -6    2    1    2    0  503  0.96278331538E+02  0.44590518777E+02 -0.29348650888E+03  0.35558652465E+03  0.17043947351E+03 0.  0.
        -24    2    3    3    0    0  0.12818686804E+03  0.60108198857E+02 -0.21841636749E+03  0.27242061081E+03  0.80389121764E+02 0.  0.
          6    2    1    2  501    0 -0.96278331538E+02 -0.44590518777E+02  0.31284681139E+03  0.37285492064E+03  0.17288676340E+03 0.  0.
         24    2    5    5    0    0 -0.35427826964E+01  0.94117729830E+01  0.72539929764E+02  0.10963330889E+03  0.81586078640E+02 0.  0.
          5    1    5    5  501    0 -0.92735548842E+02 -0.54002291760E+02  0.24030688163E+03  0.26322161175E+03  0.47000000000E+01 0. -1.
        -11    1    6    6    0    0  0.17968005315E+02 -0.25524372368E+02  0.58434179358E+02  0.66248744267E+02  0.00000000000E+00 0.  1.
         12    1    6    6    0    0 -0.21510788012E+02  0.34936145351E+02  0.14105750406E+02  0.43384564621E+02  0.00000000000E+00 0. -1.
         -5    1    3    3    0  503 -0.31908536503E+02 -0.15517680080E+02 -0.75070141397E+02  0.83165913848E+02  0.47000000000E+01 0.  1.
         13    1    4    4    0    0  0.71268166464E+02  0.11823358181E+02 -0.16650973413E+03  0.18150601894E+03  0.00000000000E+00 0. -1.
        -14    1    4    4    0    0  0.56918701577E+02  0.48284840677E+02 -0.51906633353E+02  0.90914591868E+02  0.00000000000E+00 0.  1.
</event>
<event>
12    1  0.8052519E-002  0.2291800E+03  0.7818608E-02  0.1127411E+00
         21   -1    0    0  501  502  0.00000000000E+00  0.00000000000E+00  0.58086307279E+03  0.58086307279E+03  0.00000000000E+00 0. -1.
         21   -1    0    0  502  503 -0.00000000000E+00 -0.00000000000E+00 -0.95351882524E+02  0.95351882524E+02  0.00000000000E+00 0. -1.
         -6    2    1    2    0  503 -0.56492912322E+02  0.14016460117E+03  0.32344547660E+03  0.39640943954E+03  0.17229597458E+03 0.  0.
        -24    2    3    3    0    0 -0.68085968350E+02  0.33698034253E+02  0.10375189230E+03  0.15195721557E+03  0.80964705950E+02 0.  0.
          6    2    1    2  501    0  0.56492912322E+02 -0.14016460117E+03  0.16206571367E+03  0.27980551578E+03  0.17084573904E+03 0.  0.
         24    2    5    5    0    0 -0.15565298103E+02 -0.39456607485E+02  0.11837678074E+03  0.14840803276E+03  0.78821187456E+02 0.  0.
          5    1    5    5  501    0  0.72058210425E+02 -0.10070799369E+03  0.43688932933E+02  0.13139748302E+03  0.47000000000E+01 0. -1.
        -13    1    6    6    0    0  0.27048352318E+02 -0.35213493210E+02  0.76851606865E+02  0.88756819147E+02  0.00000000000E+00 0.  1.
         14    1    6    6    0    0 -0.42613650421E+02 -0.42431142746E+01  0.41525173870E+02  0.59651213616E+02  0.00000000000E+00 0. -1.
         -5    1    3    3    0  503  0.11593056028E+02  0.10646656692E+03  0.21969358430E+03  0.24445222397E+03  0.47000000000E+01 0.  1.
         13    1    4    4    0    0  0.48493280331E+01  0.18102739447E+02  0.65515314571E+02  0.68143096504E+02  0.00000000000E+00 0. -1.
        -14    1    4    4    0    0 -0.72935296383E+02  0.15595294806E+02  0.38236577731E+02  0.83814119068E+02  0.00000000000E+00 0.  1.
</event>
<event>
12    1  0.8052519E-002  0.2287850E+03  0.7818608E-02  0.1127815E+00
         21   -1    0    0  503  502  0.00000000000E+00  0.00000000000E+00  0.19270042920E+03  0.19270042920E+03  0.00000000000E+00 0. -1.
         21   -1    0    0  501  503 -0.00000000000E+00 -0.00000000000E+00 -0.28563772555E+03  0.28563772555E+03  0.00000000000E+00 0.  1.
          6    2    1    2  501    0  0.14728495888E+03 -0.35650689249E+02  0.10527871806E+02  0.22724534491E+03  0.16901414124E+03 0.  0.
         24    2    3    3    0    0  0.14147300179E+03  0.25774889358E+02  0.18227220566E+02  0.16488950698E+03  0.78596200825E+02 0.  0.
         -6    2    1    2    0  502 -0.14728495888E+03  0.35650689249E+02 -0.10346516816E+03  0.25109280985E+03  0.17140223854E+03 0.  0.
        -24    2    5    5    0    0 -0.77547414229E+01  0.28318703648E+02 -0.35952645713E+02  0.95843106838E+02  0.83852390566E+02 0.  0.
          5    1    3    3  501    0  0.58119570910E+01 -0.61425578607E+02 -0.76993487604E+01  0.62355837929E+02  0.47000000000E+01 0. -1.
        -13    1    4    4    0    0  0.11312428083E+03  0.20050970989E+02 -0.20349321386E+02  0.11667578683E+03  0.00000000000E+00 0.  1.
         14    1    4    4    0    0  0.28348720964E+02  0.57239183693E+01  0.38576541953E+02  0.48213720151E+02  0.00000000000E+00 0. -1.
         -5    1    5    5    0  502 -0.13953021746E+03  0.73319856010E+01 -0.67512522446E+02  0.15524970301E+03  0.47000000000E+01 0.  1.
         13    1    6    6    0    0  0.28852964816E+02 -0.14446156904E+02 -0.94484233849E+01  0.33622280298E+02  0.00000000000E+00 0. -1.
        -14    1    6    6    0    0 -0.36607706239E+02  0.42764860552E+02 -0.26504222328E+02  0.62220826540E+02  0.00000000000E+00 0.  1.
</event>
<event>
12    1  0.8052519E-002  0.2290748E+03  0.7818608E-02  0.1127504E+00
         21   -1    0    0  501  502  0.00000000000E+00  0.00000000000E+00  0.35422493149E+03  0.35422493149E+03  0.00000000000E+00 0. -1.
         21   -1    0    0  502  503 -0.00000000000E+00 -0.00000000000E+00 -0.43874420717E+03  0.43874420717E+03  0.00000000000E+00 0. -1.
         -6    2    1    2    0  503  0.13896135581E+03  0.60603242046E+02 -0.36540178901E+03  0.43126990488E+03  0.17173308386E+03 0.  0.
        -24    2    3    3    0    0  0.58441183042E+02  0.52262654366E+02 -0.31953852333E+03  0.33811093986E+03  0.77893406923E+02 0.  0.
          6    2    1    2  501    0 -0.13896135581E+03 -0.60603242046E+02  0.28088251333E+03  0.36169923378E+03  0.17014211139E+03 0.  0.
         24    2    5    5    0    0  0.28214423668E+01 -0.26782492483E+02  0.74048388488E+02  0.10862088592E+03  0.74766774565E+02 0.  0.
          5    1    5    5  501    0 -0.14178279818E+03 -0.33820749563E+02  0.20683412484E+03  0.25307834787E+03  0.47000000000E+01 0. -1.
        -13    1    6    6    0    0 -0.16376365868E+02 -0.33889500937E+02  0.79045009980E+02  0.87548827722E+02  0.00000000000E+00 0.  1.
         14    1    6    6    0    0  0.19197808235E+02  0.71070084541E+01 -0.49966214926E+01  0.21072058194E+02  0.00000000000E+00 0. -1.
         -5    1    3    3    0  503  0.80520172768E+02  0.83405876794E+01 -0.45863265673E+02  0.93158965020E+02  0.47000000000E+01 0.  1.
         11    1    4    4    0    0  0.50203790469E+02  0.12937902502E+02 -0.26691177129E+03  0.27190017203E+03  0.00000000000E+00 0. -1.
        -12    1    4    4    0    0  0.82373925722E+01  0.39324751864E+02 -0.52626752046E+02  0.66210767829E+02  0.00000000000E+00 0.  1.
</event>
<event>
12    1  0.8052519E-002  0.2260707E+03  0.7818608E-02  0.1129710E+00
         21   -1    0    0  503  502  0.00000000000E+00  0.00000000000E+00  0.46430849249E+03  0.46430849249E+03  0.00000000000E+00 0.  1.
         21   -1    0    0  501  503 -0.00000000000E+00 -0.00000000000E+00 -0.12935194952E+03  0.12935194952E+03  0.00000000000E+00 0.  1.
          6    2    1    2  501    0 -0.14682543825E+03  0.25577235145E+01  0.50237847862E+02  0.23010478985E+03  0.16988267035E+03 0.  0.
         24    2    3    3    0    0 -0.47323073227E+02 -0.46235722644E+01 -0.34033795534E+02  0.99429269821E+02  0.80417844901E+02 0.  0.
         -6    2    1    2    0  502  0.14682543825E+03 -0.25577235145E+01  0.28471869510E+03  0.36355565217E+03  0.17188288343E+03 0.  0.
        -24    2    5    5    0    0  0.90731295932E+02  0.57647550686E+02  0.22319615297E+03  0.26070458978E+03  0.81209311481E+02 0.  0.
          5    1    3    3  501    0 -0.99502365018E+02  0.71812957789E+01  0.84271643396E+02  0.13067552003E+03  0.47000000000E+01 0. -1.
        -13    1    4    4    0    0 -0.50045401528E+02  0.18866344626E+02 -0.48086145851E+02  0.71921892331E+02  0.00000000000E+00 0.  1.
         14    1    4    4    0    0  0.27223283010E+01 -0.23489916891E+02  0.14052350318E+02  0.27507377490E+02  0.00000000000E+00 0. -1.
         -5    1    5    5    0  502  0.56094142314E+02 -0.60205274200E+02  0.61522542133E+02  0.10285106239E+03  0.47000000000E+01 0.  1.
         11    1    6    6    0    0  0.34835264397E+01  0.46263363870E+02  0.68408282513E+02  0.82656680973E+02  0.00000000000E+00 0. -1.
        -12    1    6    6    0    0  0.87247769492E+02  0.11384186816E+02  0.15478787046E+03  0.17804790881E+03  0.00000000000E+00 0.  1.
</event>
<event>
12    1  0.8052519E-002  0.2000877E+03  0.7818608E-02  0.1149780E+00
         21   -1    0    0  503  502  0.00000000000E+00  0.00000000000E+00  0.51641978656E+03  0.51641978656E+03  0.00000000000E+00 0. -1.
         21   -1    0    0  501  503 -0.00000000000E+00 -0.00000000000E+00 -0.83387079899E+02  0.83387079899E+02  0.00000000000E+00 0. -1.
          6    2    1    2  501    0  0.99243487610E+02 -0.19654735016E+02  0.13584824696E+03  0.24184674493E+03  0.17262538455E+03 0.  0.
         24    2    3    3    0    0 -0.16180697691E+02 -0.17853604491E+02  0.43719216273E+02  0.94077211810E+02  0.79740740775E+02 0.  0.
         -6    2    1    2    0  502 -0.99243487610E+02  0.19654735016E+02  0.29718445970E+03  0.35796012153E+03  0.17199205527E+03 0.  0.
        -24    2    5    5    0    0 -0.29685392341E+02  0.31411235658E+02  0.54571223024E+02  0.10525512250E+03  0.78947667383E+02 0.  0.
          5    1    3    3  501    0  0.11542418530E+03 -0.18011305250E+01  0.92129030684E+02  0.14776953312E+03  0.47000000000E+01 0. -1.
        -13    1    4    4    0    0  0.10007075625E+02  0.26113144355E+02  0.30173802965E+02  0.41139959359E+02  0.00000000000E+00 0.  1.
         14    1    4    4    0    0 -0.26187773316E+02 -0.43966748846E+02  0.13545413308E+02  0.52937252451E+02  0.00000000000E+00 0. -1.
         -5    1    5    5    0  502 -0.69558095269E+02 -0.11756500642E+02  0.24261323668E+03  0.25270499903E+03  0.47000000000E+01 0.  1.
         13    1    6    6    0    0 -0.14166088246E+02  0.55534398374E+02  0.50299436354E+02  0.76254709733E+02  0.00000000000E+00 0. -1.
        -14    1    6    6    0    0 -0.15519304095E+02 -0.24123162716E+02  0.42717866704E+01  0.29000412762E+02  0.00000000000E+00 0.  1.
</event>
<event>
12    1  0.8052519E-002  0.6262679E+03  0.7818608E-02  0.9853045E-01
         21   -1    0    0  501  502  0.00000000000E+00  0.00000000000E+00  0.38954196391E+03  0.38954196391E+03  0.00000000000E+00 0.  1.
         21   -1    0    0  502  503 -0.00000000000E+00 -0.00000000000E+00 -0.10612868260E+04  0.10612868260E+04  0.00000000000E+00 0. -1.
         -6    2    1    2    0  503  0.30156377704E+03  0.52041007018E+03 -0.50315352955E+03  0.80226534224E+03  0.16940735608E+03 0.  0.
        -24    2    3    3    0    0  0.78672677544E+02  0.11480961131E+03 -0.15353590345E+03  0.22222504282E+03  0.80249977989E+02 0.  0.
          6    2    1    2  501    0 -0.30156377704E+03 -0.52041007018E+03 -0.16859133250E+03  0.64856344762E+03  0.17448253616E+03 0.  0.
         24    2    5    5    0    0 -0.63156093798E+02 -0.21188409964E+03 -0.69618144341E+02  0.24626470302E+03  0.83162816632E+02 0.  0.
          5    1    5    5  501    0 -0.23840768325E+03 -0.30852597055E+03 -0.98973188156E+02  0.40229874460E+03  0.47000000000E+01 0. -1.
        -11    1    6    6    0    0 -0.77663269157E+02 -0.12411299324E+03 -0.33130433099E+02  0.15011077265E+03  0.00000000000E+00 0.  1.
         12    1    6    6    0    0  0.14507175359E+02 -0.87771106395E+02 -0.36487711241E+02  0.96153930374E+02  0.00000000000E+00 0. -1.
         -5    1    3    3    0  503  0.22289109950E+03  0.40560045887E+03 -0.34961762609E+03  0.58004029942E+03  0.47000000000E+01 0.  1.
         11    1    4    4    0    0  0.85018833557E+02  0.11183232393E+03 -0.11079727108E+03  0.17891535991E+03  0.00000000000E+00 0. -1.
        -12    1    4    4    0    0 -0.63461560131E+01  0.29772873800E+01 -0.42738632375E+02  0.43309682907E+02  0.00000000000E+00 0.  1.
</event>
<event>
12    1  0.8052519E-002  0.3572292E+03  0.7818608E-02  0.1059711E+00
         21   -1    0    0  501  502  0.00000000000E+00  0.00000000000E+00  0.67773719521E+03  0.67773719521E+03  0.00000000000E+00 0.  1.
         21   -1    0    0  502  503 -0.00000000000E+00 -0.00000000000E+00 -0.21268646073E+03  0.21268646073E+03  0.00000000000E+00 0. -1.
         -6    2    1    2    0  503  0.29870853164E+03 -0.92875458825E+02  0.81281407175E+02  0.36612262070E+03  0.17200717575E+03 0.  0.
        -24    2    3    3    0    0  0.19132840476E+03  0.26596092596E+01  0.15552901607E+02  0.20800947347E+03  0.80077564374E+02 0.  0.
          6    2    1    2  501    0 -0.29870853164E+03  0.92875458825E+02  0.38376932730E+03  0.52430103524E+03  0.17251098878E+03 0.  0.
         24    2    5    5    0    0 -0.68591104008E+02  0.21028858649E+01  0.14446310987E+03  0.18008708113E+03  0.82780462667E+02 0.  0.
          5    1    5    5  501    0 -0.23011742764E+03  0.90772572960E+02  0.23930621743E+03  0.34421395411E+03  0.47000000000E+01 0. -1.
        -13    1    6    6    0    0 -0.32269962764E+02  0.32391727602E+02  0.26151518729E+02  0.52673299172E+02  0.00000000000E+00 0.  1.
         14    1    6    6    0    0 -0.36321141244E+02 -0.30288841737E+02  0.11831159114E+03  0.12741378196E+03  0.00000000000E+00 0. -1.
         -5    1    3    3    0  503  0.10738012689E+03 -0.95535068085E+02  0.65728505568E+02  0.15811314723E+03  0.47000000000E+01 0.  1.
         11    1    4    4    0    0  0.82455399570E+02  0.73636703898E+01  0.46206198581E+02  0.94805745328E+02  0.00000000000E+00 0. -1.
        -12    1    4    4    0    0  0.10887300519E+03 -0.47040611301E+01 -0.30653296974E+02  0.11320372814E+03  0.00000000000E+00 0.  1.
</event>
<event>
12    1  0.8052519E-002  0.2365724E+03  0.7818608E-02  0.1124770E+00
         21   -1    0    0  503  502  0.00000000000E+00  0.00000000000E+00  0.19344407122E+03  0.19344407122E+03  0.00000000000E+00 0. -1.
         21   -1    0    0  501  503 -0.00000000000E+00 -0.00000000000E+00 -0.27702539216E+03  0.27702539216E+03  0.00000000000E+00 0.  1.
          6    2    1    2  501    0 -0.15243266532E+03  0.58183294004E+02 -0.85381952411E+01  0.23672641601E+03  0.17130523080E+03 0.  0.
         24    2    3    3    0    0 -0.10695502717E+03  0.43016159624E+02 -0.71784397875E+02  0.15722528593E+03  0.79227665179E+02 0.  0.
         -6    2    1    2    0  502  0.15243266532E+03 -0.58183294004E+02 -0.75043125700E+02  0.23374304738E+03  0.14961058894E+03 0.  0.
        -24    2    5    5    0    0  0.11869767432E+03  0.86557733187E+01 -0.28720885275E+02  0.14557644091E+03  0.78762621817E+02 0.  0.
          5    1    3    3  501    0 -0.45477638150E+02  0.15167134379E+02  0.63246202634E+02  0.79501130083E+02  0.47000000000E+01 0. -1.
        -11    1    4    4    0    0 -0.69723355783E+02  0.60115148570E+02 -0.25738801987E+02  0.95591125932E+02  0.00000000000E+00 0.  1.
         12    1    4    4    0    0 -0.37231671392E+02 -0.17098988945E+02 -0.46045595888E+02  0.61634159995E+02  0.00000000000E+00 0. -1.
         -5    1    5    5    0  502  0.33734991002E+02 -0.66839067322E+02 -0.46322240425E+02  0.88166606470E+02  0.47000000000E+01 0.  1.
         11    1    6    6    0    0  0.18103696745E+02  0.76465535173E+01  0.24786940128E+02  0.31632357127E+02  0.00000000000E+00 0. -1.
        -12    1    6    6    0    0  0.10059397758E+03  0.10092198014E+01 -0.53507825403E+02  0.11394408378E+03  0.00000000000E+00 0.  1.
</event>
<event>
12    1  0.8052519E-002  0.1832303E+03  0.7818608E-02  0.1165347E+00
         21   -1    0    0  501  502  0.00000000000E+00  0.00000000000E+00  0.40616190867E+03  0.40616190867E+03  0.00000000000E+00 0. -1.
         21   -1    0    0  502  503 -0.00000000000E+00 -0.00000000000E+00 -0.24402557456E+03  0.24402557456E+03  0.00000000000E+00 0. -1.
         -6    2    1    2    0  503 -0.55364731969E+02  0.64484050595E+01 -0.18406979717E+03  0.25972110225E+03  0.17454662771E+03 0.  0.
        -24    2    3    3    0    0 -0.71383054192E+02  0.40239602501E+02 -0.18876005117E+03  0.22174057890E+03  0.82606061374E+02 0.  0.
          6    2    1    2  501    0  0.55364731969E+02 -0.64484050595E+01  0.34620613128E+03  0.39046638098E+03  0.17175119755E+03 0.  0.
         24    2    5    5    0    0 -0.74950574164E+01 -0.42373752999E+02  0.10480563541E+03  0.13839838786E+03  0.79486990881E+02 0.  0.
          5    1    5    5  501    0  0.62859789385E+02  0.35925347940E+02  0.24140049587E+03  0.25206799311E+03  0.47000000000E+01 0. -1.
        -13    1    6    6    0    0  0.23198150198E+01 -0.51311700983E+02  0.24329625235E+02  0.56834873657E+02  0.00000000000E+00 0.  1.
         14    1    6    6    0    0 -0.98148724361E+01  0.89379479837E+01  0.80476010180E+02  0.81563514206E+02  0.00000000000E+00 0. -1.
         -5    1    3    3    0  503  0.16018322223E+02 -0.33791197442E+02  0.46902539967E+01  0.37980523350E+02  0.47000000000E+01 0.  1.
         13    1    4    4    0    0 -0.51113451487E+02  0.65937306305E+02 -0.12962878065E+03  0.15415555150E+03  0.00000000000E+00 0. -1.
        -14    1    4    4    0    0 -0.20269602705E+02 -0.25697703803E+02 -0.59131270519E+02  0.67585027394E+02  0.00000000000E+00 0.  1.
</event>
<event>
12    1  0.8052519E-002  0.2208757E+03  0.7818608E-02  0.1133432E+00
         21   -1    0    0  503  502  0.00000000000E+00  0.00000000000E+00  0.56610055816E+03  0.56610055816E+03  0.00000000000E+00 0. -1.
         21   -1    0    0  501  503 -0.00000000000E+00 -0.00000000000E+00 -0.19154172860E+03  0.19154172860E+03  0.00000000000E+00 0.  1.
          6    2    1    2  501    0  0.66988549930E+02  0.11897787535E+03 -0.94442898779E+02  0.23923252419E+03  0.17224847998E+03 0.  0.
         24    2    3    3    0    0  0.74718739346E+02  0.11186633731E+02 -0.58588014183E+02  0.12527476733E+03  0.80951721050E+02 0.  0.
         -6    2    1    2    0  502 -0.66988549930E+02 -0.11897787535E+03  0.46900172834E+03  0.51840976256E+03  0.17361699251E+03 0.  0.
        -24    2    5    5    0    0 -0.88096513959E+02 -0.25279431408E+02  0.27111252476E+03  0.29839346444E+03  0.84478477252E+02 0.  0.
          5    1    3    3  501    0 -0.77301894159E+01  0.10779124162E+03 -0.35854884596E+02  0.11395775686E+03  0.47000000000E+01 0. -1.
        -11    1    4    4    0    0  0.14797120471E+02  0.20831812540E+02 -0.59307218395E+02  0.64577591637E+02  0.00000000000E+00 0.  1.
         12    1    4    4    0    0  0.59921618875E+02 -0.96451788086E+01  0.71920421197E+00  0.60697175697E+02  0.00000000000E+00 0. -1.
         -5    1    5    5    0  502  0.21107964029E+02 -0.93698443946E+02  0.19788920358E+03  0.22001629812E+03  0.47000000000E+01 0.  1.
         13    1    6    6    0    0 -0.83588321154E+02 -0.51094684959E+02  0.22391495412E+03  0.24440863517E+03  0.00000000000E+00 0. -1.
        -14    1    6    6    0    0 -0.45081928052E+01  0.25815253552E+02  0.47197570632E+02  0.53984829275E+02  0.00000000000E+00 0.  1.
</event>
<event>
12    1  0.8052519E-002  0.2104990E+03  0.7818608E-02  0.1141540E+00
         21   -1    0    0  503  502  0.00000000000E+00  0.00000000000E+00  0.15130420406E+04  0.15130420406E+04  0.00000000000E+00 0. -1.
         21   -1    0    0  501  503 -0.00000000000E+00 -0.00000000000E+00 -0.55829200525E+02  0.55829200525E+02  0.00000000000E+00 0. -1.
          6    2    1    2  501    0 -0.48113610522E+02  0.10779374334E+03  0.18677560000E+03  0.28141594265E+03  0.17428539068E+03 0.  0.
         24    2    3    3    0    0  0.26653312756E+01  0.12857535723E+03  0.15713470511E+03  0.21887756199E+03  0.81715023793E+02 0.  0.
         -6    2    1    2    0  502  0.48113610522E+02 -0.10779374334E+03  0.12704372401E+04  0.12874552985E+04  0.17203474642E+03 0.  0.
        -24    2    5    5    0    0  0.44011381009E+02 -0.14212711831E+03  0.11430045108E+04  0.11553311167E+04  0.78699161613E+02 0.  0.
          5    1    3    3  501    0 -0.50778941798E+02 -0.20781613898E+02  0.29640894892E+02  0.62538380666E+02  0.47000000000E+01 0. -1.
        -13    1    4    4    0    0  0.32864306910E+02  0.28790871129E+02  0.24226767638E+02  0.49959115276E+02  0.00000000000E+00 0.  1.
         14    1    4    4    0    0 -0.30198975634E+02  0.99784486104E+02  0.13290793747E+03  0.16891844671E+03  0.00000000000E+00 0. -1.
         -5    1    5    5    0  502  0.41022295134E+01  0.34333374977E+02  0.12743272928E+03  0.13212418179E+03  0.47000000000E+01 0.  1.
         13    1    6    6    0    0 -0.49484960570E+01 -0.10913853451E+03  0.73156518728E+03  0.73967785594E+03  0.00000000000E+00 0. -1.
        -14    1    6    6    0    0  0.48959877066E+02 -0.32988583797E+02  0.41143932356E+03  0.41565326078E+03  0.00000000000E+00 0.  1.
</event>
<event>
12    1  0.8052519E-002  0.1929909E+03  0.7818608E-02  0.1155901E+00
         21   -1    0    0  503  502  0.00000000000E+00  0.00000000000E+00  0.22118677211E+03  0.22118677211E+03  0.00000000000E+00 0.  1.
         21   -1    0    0  501  503 -0.00000000000E+00 -0.00000000000E+00 -0.29791012221E+03  0.29791012221E+03  0.00000000000E+00 0.  1.
          6    2    1    2  501    0 -0.82072492114E+02 -0.29386790799E+02 -0.20975622275E+03  0.28469719025E+03  0.17162558001E+03 0.  0.
         24    2    3    3    0    0 -0.62317067199E+02  0.43384244212E+02 -0.16006516525E+03  0.19426936518E+03  0.79712731796E+02 0.  0.
         -6    2    1    2    0  502  0.82072492114E+02  0.29386790799E+02  0.13303287265E+03  0.23439970408E+03  0.17218013425E+03 0.  0.
        -24    2    5    5    0    0  0.68910539199E+02  0.36269511619E+02  0.11246349571E+02  0.11162081316E+03  0.79174400324E+02 0.  0.
          5    1    3    3  501    0 -0.19755424915E+02 -0.72771035011E+02 -0.49691057501E+02  0.90427825063E+02  0.47000000000E+01 0. -1.
        -11    1    4    4    0    0 -0.64624664233E+02  0.23950465297E+02 -0.57215904093E+02  0.89574726884E+02  0.00000000000E+00 0.  1.
         12    1    4    4    0    0  0.23075970342E+01  0.19433778915E+02 -0.10284926116E+03  0.10469463830E+03  0.00000000000E+00 0. -1.
         -5    1    5    5    0  502  0.13161952915E+02 -0.68827208204E+01  0.12178652308E+03  0.12277889091E+03  0.47000000000E+01 0.  1.
         13    1    6    6    0    0 -0.31403767333E+01 -0.17599292988E+02 -0.80602779271E+01  0.19610332989E+02  0.00000000000E+00 0. -1.
        -14    1    6    6    0    0  0.72050915932E+02  0.53868804607E+02  0.19306627498E+02  0.92010480174E+02  0.00000000000E+00 0.  1.
</event>
<event>
12    1  0.8052519E-002  0.2764544E+03  0.7818608E-02  0.1097666E+00
         21   -1    0    0  501  502  0.00000000000E+00  0.00000000000E+00  0.14428781405E+03  0.14428781405E+03  0.00000000000E+00 0. -1.
         21   -1    0    0  502  503 -0.00000000000E+00 -0.00000000000E+00 -0.72689172721E+03  0.72689172721E+03  0.00000000000E+00 0.  1.
         -6    2    1    2    0  503 -0.20492923814E+03 -0.71498191435E+02 -0.51845044835E+03  0.58755247480E+03  0.17122809126E+03 0.  0.
        -24    2    3    3    0    0 -0.11880242532E+03 -0.96897680332E+02 -0.42044872694E+03  0.45455101120E+03  0.79600961570E+02 0.  0.
          6    2    1    2  501    0  0.20492923814E+03  0.71498191435E+02 -0.64153464817E+02  0.28362706646E+03  0.17094052111E+03 0.  0.
         24    2    5    5    0    0  0.12501487635E+03 -0.23254209001E+02 -0.57870654914E+02  0.15942607488E+03  0.76799629603E+02 0.  0.
          5    1    5    5  501    0  0.79914361789E+02  0.94752400436E+02 -0.62828099038E+01  0.12420099158E+03  0.47000000000E+01 0. -1.
        -11    1    6    6    0    0  0.88824837714E+02  0.11056492185E+02 -0.62756220738E+02  0.10931807287E+03  0.00000000000E+00 0.  1.
         12    1    6    6    0    0  0.36190038633E+02 -0.34310701186E+02  0.48855658243E+01  0.50108002011E+02  0.00000000000E+00 0. -1.
         -5    1    3    3    0  503 -0.86126812815E+02  0.25399488897E+02 -0.98001721411E+02  0.13300146361E+03  0.47000000000E+01 0.  1.
         11    1    4    4    0    0  0.71164068222E+01 -0.10392579647E+02 -0.85212393163E+01  0.15207250812E+02  0.00000000000E+00 0. -1.
        -12    1    4    4    0    0 -0.12591883214E+03 -0.86505100684E+02 -0.41192748762E+03  0.43934376039E+03  0.00000000000E+00 0.  1.
</event>
<event>
12    1  0.8052519E-002  0.1840874E+03  0.7818608E-02  0.1164961E+00
         21   -1    0    0  503  502  0.00000000000E+00  0.00000000000E+00  0.20241876186E+03  0.20241876186E+03  0.00000000000E+00 0. -1.
         21   -1    0    0  501  503 -0.00000000000E+00 -0.00000000000E+00 -0.17863445119E+03  0.17863445119E+03  0.00000000000E+00 0. -1.
          6    2    1    2  501    0  0.23399110960E+02 -0.57718450344E+02 -0.43867688079E+02  0.18492830276E+03  0.16850865022E+03 0.  0.
         24    2    3    3    0    0  0.72796572185E+02 -0.71458584323E+02 -0.34180134250E+02  0.13253709017E+03  0.77408839921E+02 0.  0.
         -6    2    1    2    0  502 -0.23399110960E+02  0.57718450344E+02  0.67651998749E+02  0.19612491028E+03  0.17323177998E+03 0.  0.
        -24    2    5    5    0    0 -0.62204571764E+02  0.32583873594E+02  0.99463319041E+02  0.13980741003E+03  0.68717119387E+02 0.  0.
          5    1    3    3  501    0 -0.49397461225E+02  0.13740133979E+02 -0.96875538298E+01  0.52391212588E+02  0.47000000000E+01 0. -1.
        -11    1    4    4    0    0  0.70589541805E+02 -0.23538816541E+02 -0.13774708375E+01  0.74423495768E+02  0.00000000000E+00 0.  1.
         12    1    4    4    0    0  0.22070303802E+01 -0.47919767782E+02 -0.32802663412E+02  0.58113594402E+02  0.00000000000E+00 0. -1.
         -5    1    5    5    0  502  0.38805460804E+02  0.25134576750E+02 -0.31811320292E+02  0.56317500258E+02  0.47000000000E+01 0.  1.
         13    1    6    6    0    0 -0.16041680256E+02  0.47064769530E+02  0.54220754709E+02  0.73568459801E+02  0.00000000000E+00 0. -1.
        -14    1    6    6    0    0 -0.46162891508E+02 -0.14480895936E+02  0.45242564332E+02  0.66238950225E+02  0.00000000000E+00 0.  1.
</event>
<event>
12    1  0.8052519E-002  0.2216515E+03  0.7818608E-02  0.1132956E+00
         21   -1    0    0  503  502  0.00000000000E+00  0.00000000000E+00  0.52112884260E+03  0.52112884260E+03  0.00000000000E+00 0. -1.
         21   -1    0    0  501  503 -0.00000000000E+00 -0.00000000000E+00 -0.93894793825E+02  0.93894793825E+02  0.00000000000E+00 0.  1.
          6    2    1    2  501    0 -0.12305514125E+03  0.60268601403E+02  0.19691617400E+03  0.29648838127E+03  0.17422545319E+03 0.  0.
         24    2    3    3    0    0 -0.41704477613E+02  0.33984185639E+02  0.18718274064E+03  0.21031628189E+03  0.79381179806E+02 0.  0.
         -6    2    1    2    0  502  0.12305514125E+03 -0.60268601403E+02  0.23031787477E+03  0.31853525516E+03  0.17217291668E+03 0.  0.
        -24    2    5    5    0    0 -0.11984955976E+02 -0.21632206924E+02  0.67898000234E+02  0.10375419342E+03  0.74452687462E+02 0.  0.
          5    1    3    3  501    0 -0.81350663635E+02  0.26284415763E+02  0.97334333619E+01  0.86172099376E+02  0.47000000000E+01 0. -1.
        -11    1    4    4    0    0  0.12544107648E+00 -0.17546411955E+02  0.80927533287E+01  0.19323171696E+02  0.00000000000E+00 0.  1.
         12    1    4    4    0    0 -0.41829918690E+02  0.51530597594E+02  0.17908998731E+03  0.19099311019E+03  0.00000000000E+00 0. -1.
         -5    1    5    5    0  502  0.13504009722E+03 -0.38636394478E+02  0.16241987454E+03  0.21478106174E+03  0.47000000000E+01 0.  1.
         11    1    6    6    0    0 -0.50517147472E+01  0.26757223555E+02  0.36942667848E+02  0.45893676492E+02  0.00000000000E+00 0. -1.
        -12    1    6    6    0    0 -0.69332412284E+01 -0.48389430479E+02  0.30955332386E+02  0.57860516928E+02  0.00000000000E+00 0.  1.
</event>
<event>
12    1  0.8052519E-002  0.3018886E+03  0.7818608E-02  0.1084318E+00
         21   -1    0    0  501  502  0.00000000000E+00  0.00000000000E+00  0.48039788450E+03  0.48039788450E+03  0.00000000000E+00 0.  1.
         21   -1    0    0  502  503 -0.00000000000E+00 -0.00000000000E+00 -0.20415310881E+03  0.20415310881E+03  0.00000000000E+00 0. -1.
         -6    2    1    2    0  503 -0.22542097615E+03 -0.10352854124E+03  0.46832835463E+02  0.30549965596E+03  0.17205798434E+03 0.  0.
        -24    2    3    3    0    0 -0.13579058470E+03 -0.67979951835E+02 -0.31816780332E+02  0.18097993324E+03  0.93172270457E+02 0.  0.
          6    2    1    2  501    0  0.22542097615E+03  0.10352854124E+03  0.22941194022E+03  0.37905133735E+03  0.17180600307E+03 0.  0.
         24    2    5    5    0    0  0.46952551951E+02  0.52669811403E+02  0.13427407676E+03  0.17045869151E+03  0.77768802562E+02 0.  0.
          5    1    5    5  501    0  0.17846842420E+03  0.50858729834E+02  0.95137863458E+02  0.20859264584E+03  0.47000000000E+01 0. -1.
        -11    1    6    6    0    0  0.38071173572E+02 -0.11840846671E+02  0.52554246067E+02  0.65966420903E+02  0.00000000000E+00 0.  1.
         12    1    6    6    0    0  0.88813783791E+01  0.64510658075E+02  0.81719830696E+02  0.10449227060E+03  0.00000000000E+00 0. -1.
         -5    1    3    3    0  503 -0.89630391451E+02 -0.35548589402E+02  0.78649615795E+02  0.12451972271E+03  0.47000000000E+01 0.  1.
         13    1    4    4    0    0 -0.99170987426E+02 -0.11753770839E+02  0.12384208124E+02  0.10063003770E+03  0.00000000000E+00 0. -1.
        -14    1    4    4    0    0 -0.36619597270E+02 -0.56226180997E+02 -0.44200988456E+02  0.80349895545E+02  0.00000000000E+00 0.  1.
</event>
<event>
12    1  0.8052519E-002  0.1917355E+03  0.7818608E-02  0.1156944E+00
         21   -1    0    0  501  502  0.00000000000E+00  0.00000000000E+00  0.11867403732E+03  0.11867403732E+03  0.00000000000E+00 0. -1.
         21   -1    0    0  502  503 -0.00000000000E+00 -0.00000000000E+00 -0.66837969630E+03  0.66837969630E+03  0.00000000000E+00 0.  1.
         -6    2    1    2    0  503  0.66591087635E+02 -0.53372700670E+02 -0.56327327561E+03  0.59501200216E+03  0.17169589852E+03 0.  0.
        -24    2    3    3    0    0  0.27126728733E+02 -0.71375655371E+02 -0.52652757849E+03  0.53796922647E+03  0.79682207090E+02 0.  0.
          6    2    1    2  501    0 -0.66591087635E+02  0.53372700670E+02  0.13567616633E+02  0.19204173146E+03  0.17150197746E+03 0.  0.
         24    2    5    5    0    0  0.45454112817E+01 -0.16282612962E+02 -0.25142547853E+02  0.85117314090E+02  0.79542599887E+02 0.  0.
          5    1    5    5  501    0 -0.71136498917E+02  0.69655313632E+02  0.38710164486E+02  0.10692441737E+03  0.47000000000E+01 0. -1.
        -11    1    6    6    0    0  0.32453587656E+02  0.80133468897E+01  0.91606181130E+01  0.34660727118E+02  0.00000000000E+00 0.  1.
         12    1    6    6    0    0 -0.27908176374E+02 -0.24295959851E+02 -0.34303165966E+02  0.50456586973E+02  0.00000000000E+00 0. -1.
         -5    1    3    3    0  503  0.39464358902E+02  0.18002954701E+02 -0.36745697122E+02  0.57042775691E+02  0.47000000000E+01 0.  1.
         13    1    4    4    0    0 -0.12208519955E+02  0.11037571475E+02 -0.13138075788E+03  0.13240762624E+03  0.00000000000E+00 0. -1.
        -14    1    4    4    0    0  0.39335248688E+02 -0.82413226846E+02 -0.39514682060E+03  0.40556160023E+03  0.00000000000E+00 0.  1.
</event>
<event>
12    1  0.8052519E-002  0.1806538E+03  0.7818608E-02  0.1167291E+00
         21   -1    0    0  503  502  0.00000000000E+00  0.00000000000E+00  0.44740462618E+03  0.44740462618E+03  0.00000000000E+00 0.  1.
         21   -1    0    0  501  503 -0.00000000000E+00 -0.00000000000E+00 -0.13415178070E+03  0.13415178070E+03  0.00000000000E+00 0.  1.
          6    2    1    2  501    0  0.14389733013E+02 -0.47878026227E+02  0.35347156865E+03  0.39696090304E+03  0.17359849910E+03 0.  0.
         24    2    3    3    0    0  0.64748015269E+02 -0.65530538815E+02  0.13546796288E+03  0.17247208390E+03  0.53930452975E+02 0.  0.
         -6    2    1    2    0  502 -0.14389733013E+02  0.47878026227E+02 -0.40218723167E+02  0.18459550384E+03  0.17308548331E+03 0.  0.
        -24    2    5    5    0    0 -0.38957719809E+02 -0.14903505325E+02  0.22126676677E+02  0.92649076169E+02  0.79714760807E+02 0.  0.
          5    1    3    3  501    0 -0.50358282256E+02  0.17652512588E+02  0.21800360577E+03  0.22448881915E+03  0.47000000000E+01 0. -1.
        -11    1    4    4    0    0  0.41900205474E+02 -0.51896608252E+01  0.54445986150E+02  0.68897933249E+02  0.00000000000E+00 0.  1.
         12    1    4    4    0    0  0.22847809795E+02 -0.60340877990E+02  0.81021976730E+02  0.10357415065E+03  0.00000000000E+00 0. -1.
         -5    1    5    5    0  502  0.24567986796E+02  0.62781531552E+02 -0.62345399844E+02  0.91946427668E+02  0.47000000000E+01 0.  1.
         13    1    6    6    0    0 -0.24581898133E+02  0.20490721318E+02  0.39369625291E+02  0.50735655820E+02  0.00000000000E+00 0. -1.
        -14    1    6    6    0    0 -0.14375821677E+02 -0.35394226642E+02 -0.17242948614E+02  0.41913420350E+02  0.00000000000E+00 0.  1.
</event>
<event>
12    1  0.8052519E-002  0.1959494E+03  0.7818608E-02  0.1153424E+00
         21   -1    0    0  503  502  0.00000000000E+00  0.00000000000E+00  0.98218015222E+03  0.98218015222E+03  0.00000000000E+00 0. -1.
         21   -1    0    0  501  503 -0.00000000000E+00 -0.00000000000E+00 -0.41186744939E+02  0.41186744939E+02  0.00000000000E+00 0. -1.
          6    2    1    2  501    0  0.71581292786E+02  0.60249924532E+02  0.34848182344E+03  0.39929467005E+03  0.17100502150E+03 0.  0.
         24    2    3    3    0    0  0.47585731830E+02  0.50541029558E+02  0.35647452294E+03  0.37179880068E+03  0.79633316788E+02 0.  0.
         -6    2    1    2    0  502 -0.71581292786E+02 -0.60249924532E+02  0.59251158384E+03  0.62407222711E+03  0.17216919811E+03 0.  0.
        -24    2    5    5    0    0  0.27844222464E+02 -0.14355957564E+02  0.24132744304E+03  0.25618083004E+03  0.80051787447E+02 0.  0.
          5    1    3    3  501    0  0.23995560956E+02  0.97088949736E+01 -0.79926994951E+01  0.27495869370E+02  0.47000000000E+01 0. -1.
        -11    1    4    4    0    0 -0.17614606845E+02 -0.36397099975E+01  0.10203915616E+03  0.10361231227E+03  0.00000000000E+00 0.  1.
         12    1    4    4    0    0  0.65200338675E+02  0.54180739556E+02  0.25443536678E+03  0.26818648841E+03  0.00000000000E+00 0. -1.
         -5    1    5    5    0  502 -0.99425515250E+02 -0.45893966969E+02  0.35118414080E+03  0.36789139707E+03  0.47000000000E+01 0.  1.
         11    1    6    6    0    0 -0.13438549035E+02 -0.46377888424E+01  0.18563355755E+03  0.18617712366E+03  0.00000000000E+00 0. -1.
        -12    1    6    6    0    0  0.41282771499E+02 -0.97181687211E+01  0.55693885489E+02  0.70003706379E+02  0.00000000000E+00 0.  1.
</event>
<event>
12    1  0.8052519E-002  0.2371548E+03  0.7818608E-02  0.1121773E+00
         21   -1    0    0  503  502  0.00000000000E+00  0.00000000000E+00  0.22404367556E+03  0.22404367556E+03  0.00000000000E+00 0.  1.
         21   -1    0    0  501  503 -0.00000000000E+00 -0.00000000000E+00 -0.61988951767E+03  0.61988951767E+03  0.00000000000E+00 0.  1.
          6    2    1    2  501    0  0.14002698742E+03  0.82784507544E+02 -0.52368509847E+03  0.57488128571E+03  0.17257340003E+03 0.  0.
         24    2    3    3    0    0  0.16254151311E+03  0.70739978869E+02 -0.50966307681E+03  0.54537397086E+03  0.79072296854E+02 0.  0.
         -6    2    1    2    0  502 -0.14002698742E+03 -0.82784507544E+02  0.12783925636E+03  0.26905190753E+03  0.17200355107E+03 0.  0.
        -24    2    5    5    0    0 -0.39633177866E+02  0.78518108456E+01  0.92481441399E+02  0.12917294453E+03  0.80625013953E+02 0.  0.
          5    1    3    3  501    0 -0.22514525689E+02  0.12044528675E+02 -0.14022021658E+02  0.29507314846E+02  0.47000000000E+01 0. -1.
        -13    1    4    4    0    0  0.29557293798E+02  0.22205991221E+02 -0.21867358500E+03  0.22177663637E+03  0.00000000000E+00 0.  1.
         14    1    4    4    0    0  0.13298421932E+03  0.48533987648E+02 -0.29098949182E+03  0.32359733449E+03  0.00000000000E+00 0. -1.
         -5    1    5    5    0  502 -0.10039380956E+03 -0.90636318389E+02  0.35357814961E+02  0.13987896299E+03  0.47000000000E+01 0.  1.
         11    1    6    6    0    0 -0.36939793163E+02 -0.16227881147E+02  0.78012168010E+01  0.41094420899E+02  0.00000000000E+00 0. -1.
        -12    1    6    6    0    0 -0.26933847026E+01  0.24079691993E+02  0.84680224598E+02  0.88078523635E+02  0.00000000000E+00 0.  1.
</event>
<event>
12    1  0.8052519E-002  0.1791180E+03  0.7818608E-02  0.1169413E+00
         21   -1    0    0  503  502  0.00000000000E+00  0.00000000000E+00  0.10496896236E+04  0.10496896236E+04  0.00000000000E+00 0. -1.
         21   -1    0    0  501  503 -0.00000000000E+00 -0.00000000000E+00 -0.79087179943E+02  0.79087179943E+02  0.00000000000E+00 0. -1.
          6    2    1    2  501    0  0.67676536689E+01  0.51759535627E+02  0.39274874913E+02  0.18038115229E+03  0.16813683010E+03 0.  0.
         24    2    3    3    0    0 -0.54738854121E+02  0.59105638993E+02  0.34438491050E+02  0.11807147131E+03  0.79152030670E+02 0.  0.
         -6    2    1    2    0  502 -0.67676536689E+01 -0.51759535627E+02  0.93132756870E+03  0.94839565122E+03  0.17134299039E+03 0.  0.
        -24    2    5    5    0    0  0.37757797973E+02  0.40524890005E+02  0.39596729333E+03  0.40329782008E+03  0.52831016259E+02 0.  0.
          5    1    3    3  501    0  0.61506507790E+02 -0.73461033664E+01  0.48363838631E+01  0.62309680982E+02  0.47000000000E+01 0. -1.
        -11    1    4    4    0    0 -0.24467926324E+02  0.54912491202E+02  0.54803209428E+02  0.81347728132E+02  0.00000000000E+00 0.  1.
         12    1    4    4    0    0 -0.30270927797E+02  0.41931477912E+01 -0.20364718378E+02  0.36723743174E+02  0.00000000000E+00 0. -1.
         -5    1    5    5    0  502 -0.44525451642E+02 -0.92284425632E+02  0.53536027537E+03  0.54509783113E+03  0.47000000000E+01 0.  1.
         13    1    6    6    0    0  0.21131310502E+02 -0.87209694757E+01  0.85184344666E+02  0.88198413639E+02  0.00000000000E+00 0. -1.
        -14    1    6    6    0    0  0.16626487471E+02  0.49245859481E+02  0.31078294867E+03  0.31509940645E+03  0.00000000000E+00 0.  1.
</event>
<event>
12    1  0.8052519E-002  0.1797700E+03  0.7818608E-02  0.1168332E+00
         21   -1    0    0  501  502  0.00000000000E+00  0.00000000000E+00  0.71520770113E+02  0.71520770113E+02  0.00000000000E+00 0. -1.
         21   -1    0    0  502  503 -0.00000000000E+00 -0.00000000000E+00 -0.51788508897E+03  0.51788508897E+03  0.00000000000E+00 0. -1.
         -6    2    1    2    0  503 -0.22874377902E+02  0.40998624685E+02 -0.11614985183E+03  0.21402814513E+03  0.17353136441E+03 0.  0.
        -24    2    3    3    0    0 -0.79643141976E+02  0.45907387661E+02 -0.90681022149E+02  0.15143789178E+03  0.79119333816E+02 0.  0.
          6    2    1    2  501    0  0.22874377902E+02 -0.40998624685E+02 -0.33021446702E+03  0.37537771395E+03  0.17222865474E+03 0.  0.
         24    2    5    5    0    0  0.71364389810E+02 -0.43055026985E+02 -0.15204864075E+03  0.19065992462E+03  0.79283076510E+02 0.  0.
          5    1    5    5  501    0 -0.48490011908E+02  0.20564023003E+01 -0.17816582627E+03  0.18471778933E+03  0.47000000000E+01 0. -1.
        -11    1    6    6    0    0  0.47814151788E+02  0.12554611527E+02 -0.97338081085E+02  0.10917194425E+03  0.00000000000E+00 0.  1.
         12    1    6    6    0    0  0.23550238022E+02 -0.55609638512E+02 -0.54710559670E+02  0.81487980376E+02  0.00000000000E+00 0. -1.
         -5    1    3    3    0  503  0.56768764074E+02 -0.49087629761E+01 -0.25468829686E+02  0.62590253346E+02  0.47000000000E+01 0.  1.
         11    1    4    4    0    0  0.14079037518E+02 -0.20080895070E+01 -0.20411986880E+02  0.24877719535E+02  0.00000000000E+00 0. -1.
        -12    1    4    4    0    0 -0.93722179494E+02  0.47915477168E+02 -0.70269035269E+02  0.12656017225E+03  0.00000000000E+00 0.  1.
</event>
<event>
12    1  0.8052519E-002  0.2313789E+03  0.7818608E-02  0.1126283E+00
         21   -1    0    0  501  502  0.00000000000E+00  0.00000000000E+00  0.16439562741E+03  0.16439562741E+03  0.00000000000E+00 0. -1.
         21   -1    0    0  502  503 -0.00000000000E+00 -0.00000000000E+00 -0.47738935762E+03  0.47738935762E+03  0.00000000000E+00 0. -1.
         -6    2    1    2    0  503 -0.35798869658E+02 -0.15025798533E+03 -0.33948642766E+03  0.40889431875E+03  0.16758433135E+03 0.  0.
        -24    2    3    3    0    0 -0.56552858439E+02 -0.16931679943E+03 -0.26626666116E+03  0.33029921297E+03  0.79581598886E+02 0.  0.
          6    2    1    2  501    0  0.35798869658E+02  0.15025798533E+03  0.26492697457E+02  0.23289066628E+03  0.17227065391E+03 0.  0.
         24    2    5    5    0    0 -0.24472761586E+02  0.59985043214E+02  0.57100969392E+02  0.12001538147E+03  0.83342963796E+02 0.  0.
          5    1    5    5  501    0  0.60271631244E+02  0.90272942117E+02 -0.30608271935E+02  0.11287528482E+03  0.47000000000E+01 0. -1.
        -13    1    6    6    0    0 -0.31266916649E+02  0.74099721243E+01 -0.10774426681E+02  0.33891238307E+02  0.00000000000E+00 0.  1.
         14    1    6    6    0    0  0.67941550636E+01  0.52575071090E+02  0.67875396073E+02  0.86124143161E+02  0.00000000000E+00 0. -1.
         -5    1    3    3    0  503  0.20753988781E+02  0.19058814094E+02 -0.73219766503E+02  0.78595105775E+02  0.47000000000E+01 0.  1.
         11    1    4    4    0    0 -0.13546887933E+02 -0.10691237007E+03 -0.97627858817E+02  0.14541310761E+03  0.00000000000E+00 0. -1.
        -12    1    4    4    0    0 -0.43005970506E+02 -0.62404429353E+02 -0.16863880234E+03  0.18488610536E+03  0.00000000000E+00 0.  1.
</event>
<event>
12    1  0.8052519E-002  0.2114032E+03  0.7818608E-02  0.1141077E+00
         21   -1    0    0  503  502  0.00000000000E+00  0.00000000000E+00  0.56148131288E+02  0.56148131288E+02  0.00000000000E+00 0.  1.
         21   -1    0    0  501  503 -0.00000000000E+00 -0.00000000000E+00 -0.11375254966E+04  0.11375254966E+04  0.00000000000E+00 0.  1.
          6    2    1    2  501    0  0.11398919430E+03  0.45037778034E+02 -0.87051817305E+03  0.89508875174E+03  0.16840441212E+03 0.  0.
         24    2    3    3    0    0  0.32582615996E+02  0.77299511861E+02 -0.58688253242E+03  0.59820642304E+03  0.79893531086E+02 0.  0.
         -6    2    1    2    0  502 -0.11398919430E+03 -0.45037778034E+02 -0.21085919222E+03  0.29858487610E+03  0.17224805203E+03 0.  0.
        -24    2    5    5    0    0 -0.85717293311E+02  0.31166207226E+02 -0.16715855407E+03  0.20618258430E+03  0.79060034317E+02 0.  0.
          5    1    3    3  501    0  0.81406578299E+02 -0.32261733827E+02 -0.28363564063E+03  0.29688232870E+03  0.47000000000E+01 0. -1.
        -11    1    4    4    0    0  0.52717072259E+02  0.23583561928E+02 -0.26096602841E+03  0.26727989466E+03  0.00000000000E+00 0.  1.
         12    1    4    4    0    0 -0.20134456263E+02  0.53715949933E+02 -0.32591650400E+03  0.33092652838E+03  0.00000000000E+00 0. -1.
         -5    1    5    5    0  502 -0.28271900985E+02 -0.76203985260E+02 -0.43700638152E+02  0.92402291799E+02  0.47000000000E+01 0.  1.
         13    1    6    6    0    0  0.68938257677E+01  0.81355857270E+01  0.30107661431E+01  0.11080491939E+02  0.00000000000E+00 0. -1.
        -14    1    6    6    0    0 -0.92611119078E+02  0.23030621499E+02 -0.17016932021E+03  0.19510209236E+03  0.00000000000E+00 0.  1.
</event>
<event>
12    1  0.8052519E-002  0.2717685E+03  0.7818608E-02  0.1100413E+00
         21   -1    0    0  501  502  0.00000000000E+00  0.00000000000E+00  0.44980252075E+02  0.44980252075E+02  0.00000000000E+00 0. -1.
         21   -1    0    0  502  503 -0.00000000000E+00 -0.00000000000E+00 -0.16563797738E+04  0.16563797738E+04  0.00000000000E+00 0.  1.
         -6    2    1    2    0  503  0.13292480395E+03 -0.16182081343E+03 -0.70991843170E+03  0.75980477384E+03  0.17165120309E+03 0.  0.
        -24    2    3    3    0    0  0.13200717320E+03 -0.73321551202E+02 -0.50551978578E+03  0.53701819903E+03  0.10018157831E+03 0.  0.
          6    2    1    2  501    0 -0.13292480395E+03  0.16182081343E+03 -0.90148109005E+03  0.94155525206E+03  0.17321419628E+03 0.  0.
         24    2    5    5    0    0 -0.13132631038E+03  0.18963641220E+03 -0.79927686337E+03  0.83551725572E+03  0.77698208784E+02 0.  0.
          5    1    5    5  501    0 -0.15984935753E+01 -0.27815598776E+02 -0.10220422668E+03  0.10603799634E+03  0.47000000000E+01 0. -1.
        -11    1    6    6    0    0 -0.32765780421E+02  0.40820971563E+02 -0.31651695313E+03  0.32081603717E+03  0.00000000000E+00 0.  1.
         12    1    6    6    0    0 -0.98560529954E+02  0.14881544064E+03 -0.48275991024E+03  0.51470121855E+03  0.00000000000E+00 0. -1.
         -5    1    3    3    0  503  0.91763074861E+00 -0.88499262223E+02 -0.20439864592E+03  0.22278657481E+03  0.47000000000E+01 0.  1.
         11    1    4    4    0    0  0.12828317595E+03 -0.77729169200E+02 -0.34259924179E+03  0.37399550459E+03  0.00000000000E+00 0. -1.
        -12    1    4    4    0    0  0.37239972568E+01  0.44076179974E+01 -0.16292054399E+03  0.16302269445E+03  0.00000000000E+00 0.  1.
</event>
<event>
12    1  0.8052519E-002  0.1827451E+03  0.7818608E-02  0.1165305E+00
         21   -1    0    0  501  502  0.00000000000E+00  0.00000000000E+00  0.58873855364E+03  0.58873855364E+03  0.00000000000E+00 0.  1.
         21   -1    0    0  502  503 -0.00000000000E+00 -0.00000000000E+00 -0.13973481884E+03  0.13973481884E+03  0.00000000000E+00 0. -1.
         -6    2    1    2    0  503  0.39714020872E+02 -0.45316294202E+02 -0.56387080629E+02  0.19124666641E+03  0.17252540270E+03 0.  0.
        -24    2    3    3    0    0  0.43215217593E+02 -0.84496708363E+02 -0.78261333972E+02  0.14599253741E+03  0.78624015601E+02 0.  0.
          6    2    1    2  501    0 -0.39714020872E+02  0.45316294202E+02  0.50539081542E+03  0.53722670606E+03  0.17193570722E+03 0.  0.
         24    2    5    5    0    0 -0.10864633832E+02 -0.10751406637E+02  0.10971260797E+03  0.13652830569E+03  0.79809077762E+02 0.  0.
          5    1    5    5  501    0 -0.28849387040E+02  0.56067700839E+02  0.39567820745E+03  0.40069840037E+03  0.47000000000E+01 0. -1.
        -13    1    6    6    0    0 -0.54633267891E+01  0.34859879213E+02  0.49906558273E+02  0.61120566727E+02  0.00000000000E+00 0.  1.
         14    1    6    6    0    0 -0.54013070426E+01 -0.45611285850E+02  0.59806049702E+02  0.75407738964E+02  0.00000000000E+00 0. -1.
         -5    1    3    3    0  503 -0.35011967216E+01  0.39180414161E+02  0.21874253343E+02  0.45254129001E+02  0.47000000000E+01 0.  1.
         11    1    4    4    0    0  0.53084873618E+02 -0.19830317123E+02 -0.26410780018E+02  0.62520193421E+02  0.00000000000E+00 0. -1.
        -12    1    4    4    0    0 -0.98696560247E+01 -0.64666391241E+02 -0.51850553954E+02  0.83472343991E+02  0.00000000000E+00 0.  1.
</event>
<event>
12    1  0.8052519E-002  0.2041431E+03  0.7818608E-02  0.1146378E+00
         21   -1    0    0  503  502  0.00000000000E+00  0.00000000000E+00  0.31913578280E+03  0.31913578280E+03  0.00000000000E+00 0.  1.
         21   -1    0    0  501  503 -0.00000000000E+00 -0.00000000000E+00 -0.22060650695E+03  0.22060650695E+03  0.00000000000E+00 0.  1.
          6    2    1    2  501    0  0.68196748261E+02  0.86637162348E+02 -0.12336041495E+03  0.23852081303E+03  0.17180684473E+03 0.  0.
         24    2    3    3    0    0  0.62516353038E+02 -0.10724307549E+02 -0.88426073089E+02  0.13481921732E+03  0.79584833905E+02 0.  0.
         -6    2    1    2    0  502 -0.68196748261E+02 -0.86637162348E+02  0.22188969080E+03  0.30122147672E+03  0.17129666892E+03 0.  0.
        -24    2    5    5    0    0 -0.10493450485E+03 -0.66345175157E+02  0.12121208103E+03  0.19204502041E+03  0.82316393881E+02 0.  0.
          5    1    3    3  501    0  0.56803952228E+01  0.97361469897E+02 -0.34934341865E+02  0.10370159571E+03  0.47000000000E+01 0. -1.
        -13    1    4    4    0    0  0.74727566684E+02 -0.16143368809E+02 -0.43525352354E+02  0.87973142928E+02  0.00000000000E+00 0.  1.
         14    1    4    4    0    0 -0.12211213645E+02  0.54190612599E+01 -0.44900720735E+02  0.46846074394E+02  0.00000000000E+00 0. -1.
         -5    1    5    5    0  502  0.36737756593E+02 -0.20291987191E+02  0.10067760977E+03  0.10917645631E+03  0.47000000000E+01 0.  1.
         13    1    6    6    0    0 -0.58374150470E+01 -0.31072313568E+02  0.79641794016E-01  0.31615983738E+02  0.00000000000E+00 0. -1.
        -14    1    6    6    0    0 -0.99097089807E+02 -0.35272861589E+02  0.12113243923E+03  0.16042903667E+03  0.00000000000E+00 0.  1.
</event>
<event>
12    1  0.8052519E-002  0.1804077E+03  0.7818608E-02  0.1169096E+00
         21   -1    0    0  501  502  0.00000000000E+00  0.00000000000E+00  0.38498768468E+02  0.38498768468E+02  0.00000000000E+00 0.  1.
         21   -1    0    0  502  503 -0.00000000000E+00 -0.00000000000E+00 -0.83447106138E+03  0.83447106138E+03  0.00000000000E+00 0.  1.
         -6    2    1    2    0  503  0.35754985499E+02 -0.26651026462E+02 -0.33649652594E+03  0.38180736060E+03  0.17480918866E+03 0.  0.
        -24    2    3    3    0    0  0.16654475391E+02  0.31363315873E+02 -0.29383039865E+03  0.30715495394E+03  0.82139110194E+02 0.  0.
          6    2    1    2  501    0 -0.35754985499E+02  0.26651026462E+02 -0.45947576698E+03  0.49116246925E+03  0.16773161468E+03 0.  0.
         24    2    5    5    0    0  0.32191424655E+02 -0.17867560017E+02 -0.28407097362E+03  0.29780386270E+03  0.81457259119E+02 0.  0.
          5    1    5    5  501    0 -0.67946410154E+02  0.44518586479E+02 -0.17540479336E+03  0.19335860655E+03  0.47000000000E+01 0. -1.
        -11    1    6    6    0    0 -0.19014833388E+02 -0.12918994041E+02 -0.26217901231E+02  0.34868935183E+02  0.00000000000E+00 0.  1.
         12    1    6    6    0    0  0.51206258043E+02 -0.49485659756E+01 -0.25785307238E+03  0.26293492751E+03  0.00000000000E+00 0. -1.
         -5    1    3    3    0  503  0.19100510108E+02 -0.58014342335E+02 -0.42666127287E+02  0.74652406663E+02  0.47000000000E+01 0.  1.
         13    1    4    4    0    0  0.27125750885E+02  0.56145914441E+02 -0.19492135799E+03  0.20465215824E+03  0.00000000000E+00 0. -1.
        -14    1    4    4    0    0 -0.10471275494E+02 -0.24782598568E+02 -0.98909040659E+02  0.10250279570E+03  0.00000000000E+00 0.  1.
</event>
<event>
12    1  0.8052519E-002  0.2230946E+03  0.7818608E-02  0.1131660E+00
         21   -1    0    0  501  502  0.00000000000E+00  0.00000000000E+00  0.35606831621E+03  0.35606831621E+03  0.00000000000E+00 0.  1.
         21   -1    0    0  502  503 -0.00000000000E+00 -0.00000000000E+00 -0.38333862188E+03  0.38333862188E+03  0.00000000000E+00 0. -1.
         -6    2    1    2    0  503  0.30123087240E+02  0.13821246143E+03 -0.30845103238E+03  0.38047266130E+03  0.17206778242E+03 0.  0.
        -24    2    3    3    0    0  0.55009160894E+02  0.54430138239E+02 -0.25442871788E+03  0.27761696236E+03  0.79677836190E+02 0.  0.
          6    2    1    2  501    0 -0.30123087240E+02 -0.13821246143E+03  0.28118072670E+03  0.35893427679E+03  0.17251414176E+03 0.  0.
         24    2    5    5    0    0 -0.16094314385E+02 -0.19881658178E+02  0.19392163729E+03  0.21116681031E+03  0.79570805436E+02 0.  0.
          5    1    5    5  501    0 -0.14028772854E+02 -0.11833080325E+03  0.87259089409E+02  0.14776746648E+03  0.47000000000E+01 0. -1.
        -11    1    6    6    0    0 -0.38890194794E+02 -0.30230507855E+02  0.75640264190E+02  0.90265056489E+02  0.00000000000E+00 0.  1.
         12    1    6    6    0    0  0.22795880408E+02  0.10348849678E+02  0.11828137310E+03  0.12090175382E+03  0.00000000000E+00 0. -1.
         -5    1    3    3    0  503 -0.24886073654E+02  0.83782323187E+02 -0.54022314497E+02  0.10285569894E+03  0.47000000000E+01 0.  1.
         11    1    4    4    0    0  0.10270520265E+02  0.44915773158E+02 -0.49415062068E+02  0.67562997447E+02  0.00000000000E+00 0. -1.
        -12    1    4    4    0    0  0.44738640629E+02  0.95143650808E+01 -0.20501365581E+03  0.21005396492E+03  0.00000000000E+00 0.  1.
</event>
<event>
12    1  0.8052519E-002  0.2110800E+03  0.7818608E-02  0.1141522E+00
         21   -1    0    0  501  502  0.00000000000E+00  0.00000000000E+00  0.11069024578E+03  0.11069024578E+03  0.00000000000E+00 0.  1.
         21   -1    0    0  502  503 -0.00000000000E+00 -0.00000000000E+00 -0.74376960181E+03  0.74376960181E+03  0.00000000000E+00 0. -1.
         -6    2    1    2    0  503 -0.30511907403E+01 -0.11137801655E+03 -0.61080948438E+03  0.64625303667E+03  0.17927740755E+03 0.  0.
        -24    2    3    3    0    0 -0.67383207507E+02 -0.49733127068E+02 -0.41834829780E+03  0.43411605470E+03  0.80172127891E+02 0.  0.
          6    2    1    2  501    0  0.30511907403E+01  0.11137801655E+03 -0.22269871640E+02  0.20820681092E+03  0.17446993035E+03 0.  0.
         24    2    5    5    0    0 -0.47915725489E+02  0.21374984131E+02 -0.37622379774E+02  0.10353608005E+03  0.80941149713E+02 0.  0.
          5    1    5    5  501    0  0.50966916229E+02  0.90003032416E+02  0.15352508135E+02  0.10467073087E+03  0.47000000000E+01 0. -1.
        -13    1    6    6    0    0  0.77347449274E+01  0.36540568465E+02 -0.62281484728E+01  0.37865937942E+02  0.00000000000E+00 0.  1.
         14    1    6    6    0    0 -0.55650470416E+02 -0.15165584334E+02 -0.31394231302E+02  0.65670142110E+02  0.00000000000E+00 0. -1.
         -5    1    3    3    0  503  0.64332016767E+02 -0.61644889478E+02 -0.19246118658E+03  0.21213698197E+03  0.47000000000E+01 0.  1.
         11    1    4    4    0    0 -0.58023372832E+02 -0.68115209144E+02 -0.27246014758E+03  0.28677678695E+03  0.00000000000E+00 0. -1.
        -12    1    4    4    0    0 -0.93598346757E+01  0.18382082076E+02 -0.14588815022E+03  0.14733926775E+03  0.00000000000E+00 0.  1.
</event>
<event>
12    1  0.8052519E-002  0.3393568E+03  0.7818608E-02  0.1067083E+00
         21   -1    0    0  503  502  0.00000000000E+00  0.00000000000E+00  0.78988256982E+03  0.78988256982E+03  0.00000000000E+00 0. -1.
         21   -1    0    0  501  503 -0.00000000000E+00 -0.00000000000E+00 -0.14624156080E+03  0.14624156080E+03  0.00000000000E+00 0.  1.
          6    2    1    2  501    0 -0.68259396736E+02  0.28424131140E+03  0.29466927275E+03  0.44943631402E+03  0.17236749030E+03 0.  0.
         24    2    3    3    0    0  0.29289889591E+02  0.14160652030E+03  0.12216417097E+03  0.20522196753E+03  0.79256968545E+02 0.  0.
         -6    2    1    2    0  502  0.68259396736E+02 -0.28424131140E+03  0.34897173627E+03  0.48668781660E+03  0.17213741534E+03 0.  0.
        -24    2    5    5    0    0  0.48251930707E+02 -0.25722447057E+03  0.35908056459E+03  0.45126908151E+03  0.78817859547E+02 0.  0.
          5    1    3    3  501    0 -0.97549286327E+02  0.14263479109E+03  0.17250510177E+03  0.24421434649E+03  0.47000000000E+01 0. -1.
        -11    1    4    4    0    0 -0.23667485457E+02  0.52214139156E+02  0.23560537612E+02  0.61980360827E+02  0.00000000000E+00 0.  1.
         12    1    4    4    0    0  0.52957375048E+02  0.89392381148E+02  0.98603633362E+02  0.14324160671E+03  0.00000000000E+00 0. -1.
         -5    1    5    5    0  502  0.20007466030E+02 -0.27016840825E+02 -0.10108828319E+02  0.35418735086E+02  0.47000000000E+01 0.  1.
         13    1    6    6    0    0  0.15564003212E+02 -0.32878853346E+02  0.10308042609E+03  0.10931071053E+03  0.00000000000E+00 0. -1.
        -14    1    6    6    0    0  0.32687927495E+02 -0.22434561723E+03  0.25600013849E+03  0.34195837098E+03  0.00000000000E+00 0.  1.
</event>
<event>
12    1  0.8052519E-002  0.2404520E+03  0.7818608E-02  0.1119564E+00
         21   -1    0    0  503  502  0.00000000000E+00  0.00000000000E+00  0.11725927268E+04  0.11725927268E+04  0.00000000000E+00 0. -1.
         21   -1    0    0  501  503 -0.00000000000E+00 -0.00000000000E+00 -0.61097408288E+02  0.61097408288E+02  0.00000000000E+00 0. -1.
          6    2    1    2  501    0  0.15996399396E+03 -0.48701236331E+02  0.28334755046E+03  0.37134108981E+03  0.17218618076E+03 0.  0.
         24    2    3    3    0    0  0.54274153940E+02 -0.84112239310E+02  0.13147333830E+03  0.18289441901E+03  0.78387353788E+02 0.  0.
         -6    2    1    2    0  502 -0.15996399396E+03  0.48701236331E+02  0.82814776804E+03  0.86234904527E+03  0.17279137820E+03 0.  0.
        -24    2    5    5    0    0 -0.78440900659E+02  0.44250298224E+02  0.70184902643E+03  0.71188546920E+03  0.77960256322E+02 0.  0.
          5    1    3    3  501    0  0.10568984002E+03  0.35411002979E+02  0.15187421216E+03  0.18844667080E+03  0.47000000000E+01 0. -1.
        -11    1    4    4    0    0 -0.14579381167E+02  0.34697881760E+01  0.97173276712E+01  0.17861249740E+02  0.00000000000E+00 0.  1.
         12    1    4    4    0    0  0.68853535107E+02 -0.87582027486E+02  0.12175601063E+03  0.16503316927E+03  0.00000000000E+00 0. -1.
         -5    1    5    5    0  502 -0.81523093301E+02  0.44509381072E+01  0.12629874161E+03  0.15046357607E+03  0.47000000000E+01 0.  1.
         13    1    6    6    0    0 -0.66503366748E+02  0.50420238123E+02  0.35122423571E+03  0.36100327139E+03  0.00000000000E+00 0. -1.
        -14    1    6    6    0    0 -0.11937533910E+02 -0.61699398987E+01  0.35062479072E+03  0.35088219781E+03  0.00000000000E+00 0.  1.
</event>
<event>
12    1  0.8052519E-002  0.1942652E+03  0.7818608E-02  0.1154847E+00
         21   -1    0    0  501  502  0.00000000000E+00  0.00000000000E+00  0.96751545573E+02  0.96751545573E+02  0.00000000000E+00 0. -1.
         21   -1    0    0  502  503 -0.00000000000E+00 -0.00000000000E+00 -0.40705050274E+03  0.40705050274E+03  0.00000000000E+00 0.  1.
         -6    2    1    2    0  503  0.64840399892E+02 -0.64024918811E+02 -0.20931214040E+03  0.28557054742E+03  0.17156776430E+03 0.  0.
        -24    2    3    3    0    0  0.61277431739E+02 -0.63833041834E+01 -0.52648339362E+02  0.11853496129E+03  0.86504446111E+02 0.  0.
          6    2    1    2  501    0 -0.64840399892E+02  0.64024918811E+02 -0.10098681677E+03  0.21823150089E+03  0.17065515854E+03 0.  0.
         24    2    5    5    0    0 -0.67450540017E+02 -0.21659846522E+02 -0.55364433750E+02  0.12100915946E+03  0.80989331700E+02 0.  0.
          5    1    5    5  501    0  0.26101401249E+01  0.85684765332E+02 -0.45622383018E+02  0.97222341433E+02  0.47000000000E+01 0. -1.
        -11    1    6    6    0    0 -0.79385642836E+02 -0.14030374966E+01 -0.26332153450E+02  0.83650649178E+02  0.00000000000E+00 0.  1.
         12    1    6    6    0    0  0.11935102818E+02 -0.20256809025E+02 -0.29032280300E+02  0.37358510283E+02  0.00000000000E+00 0. -1.
         -5    1    3    3    0  503  0.35629681535E+01 -0.57641614627E+02 -0.15666380104E+03  0.16703558613E+03  0.47000000000E+01 0.  1.
         11    1    4    4    0    0  0.50206774315E+02 -0.28842690915E+02  0.25131186453E+01  0.57956335043E+02  0.00000000000E+00 0. -1.
        -12    1    4    4    0    0  0.11070657424E+02  0.22459386731E+02 -0.55161458007E+02  0.60578626244E+02  0.00000000000E+00 0.  1.
</event>
<event>
12    1  0.8052519E-002  0.1764161E+03  0.7818608E-02  0.1171517E+00
         21   -1    0    0  503  502  0.00000000000E+00  0.00000000000E+00  0.17600296225E+03  0.17600296225E+03  0.00000000000E+00 0. -1.
         21   -1    0    0  501  503 -0.00000000000E+00 -0.00000000000E+00 -0.18094856128E+03  0.18094856128E+03  0.00000000000E+00 0. -1.
          6    2    1    2  501    0 -0.49661569367E+01 -0.36249817918E+02 -0.31906588502E+02  0.17927816063E+03  0.17258017406E+03 0.  0.
         24    2    3    3    0    0 -0.50109210312E+02 -0.34595023933E+02  0.24370496328E+02  0.10696057019E+03  0.84491975031E+02 0.  0.
         -6    2    1    2    0  502  0.49661569367E+01  0.36249817918E+02  0.26960989467E+02  0.17767336290E+03  0.17176209394E+03 0.  0.
        -24    2    5    5    0    0  0.11931903016E+02  0.85735847244E+02 -0.27266074755E+01  0.11935670894E+03  0.82131502892E+02 0.  0.
          5    1    3    3  501    0  0.45143053375E+02 -0.16547939853E+01 -0.56277084830E+02  0.72317590447E+02  0.47000000000E+01 0. -1.
        -11    1    4    4    0    0  0.24013529285E+02 -0.65562194309E+01  0.63189851308E+01  0.25681962056E+02  0.00000000000E+00 0.  1.
         12    1    4    4    0    0 -0.74122739597E+02 -0.28038804502E+02  0.18051511197E+02  0.81278608131E+02  0.00000000000E+00 0. -1.
         -5    1    5    5    0  502 -0.69657460798E+01 -0.49486029326E+02  0.29687596943E+02  0.58316653961E+02  0.47000000000E+01 0.  1.
         11    1    6    6    0    0  0.36473133385E+02  0.86676685091E+02  0.32003056320E+01  0.94092396895E+02  0.00000000000E+00 0. -1.
        -12    1    6    6    0    0 -0.24541230369E+02 -0.94083784743E+00 -0.59269131075E+01  0.25264312040E+02  0.00000000000E+00 0.  1.
</event>
<event>
12    1  0.8052519E-002  0.2089442E+03  0.7818608E-02  0.1142506E+00
         21   -1    0    0  503  502  0.00000000000E+00  0.00000000000E+00  0.40503628744E+03  0.40503628744E+03  0.00000000000E+00 0. -1.
         21   -1    0    0  501  503 -0.00000000000E+00 -0.00000000000E+00 -0.14653203782E+03  0.14653203782E+03  0.00000000000E+00 0.  1.
          6    2    1    2  501    0  0.10299030014E+03  0.55684681352E+02 -0.12920411165E+02  0.20934325951E+03  0.17306032942E+03 0.  0.
         24    2    3    3    0    0  0.71858425366E+02  0.83576206558E+02 -0.58562156023E+02  0.14727563769E+03  0.78179100402E+02 0.  0.
         -6    2    1    2    0  502 -0.10299030014E+03 -0.55684681352E+02  0.27142466078E+03  0.34222506575E+03  0.17244959695E+03 0.  0.
        -24    2    5    5    0    0 -0.86717030983E+02 -0.92552762194E+02  0.25967408330E+03  0.29998479178E+03  0.80463584983E+02 0.  0.
          5    1    3    3  501    0  0.31131874771E+02 -0.27891525206E+02  0.45641744859E+02  0.62067621824E+02  0.47000000000E+01 0. -1.
        -11    1    4    4    0    0 -0.84771740131E+01  0.32743597012E+02  0.30953822004E+01  0.33964496397E+02  0.00000000000E+00 0.  1.
         12    1    4    4    0    0  0.80335599379E+02  0.50832609546E+02 -0.61657538224E+02  0.11331114129E+03  0.00000000000E+00 0. -1.
         -5    1    5    5    0  502 -0.16273269154E+02  0.36868080842E+02  0.11750577475E+02  0.42240273969E+02  0.47000000000E+01 0.  1.
         13    1    6    6    0    0  0.73191468513E+01 -0.27470820143E+02  0.97384112671E+02  0.10144890966E+03  0.00000000000E+00 0. -1.
        -14    1    6    6    0    0 -0.94036177835E+02 -0.65081942051E+02  0.16228997063E+03  0.19853588212E+03  0.00000000000E+00 0.  1.
</event>
<event>
12    1  0.8052519E-002  0.1789501E+03  0.7818608E-02  0.1169351E+00
         21   -1    0    0  503  502  0.00000000000E+00  0.00000000000E+00  0.11600782374E+03  0.11600782374E+03  0.00000000000E+00 0.  1.
         21   -1    0    0  501  503 -0.00000000000E+00 -0.00000000000E+00 -0.27720297940E+03  0.27720297940E+03  0.00000000000E+00 0.  1.
          6    2    1    2  501    0  0.24362322333E+02  0.44270240187E+02 -0.56109456277E+02  0.18754041743E+03  0.17166758626E+03 0.  0.
         24    2    3    3    0    0  0.63270308317E+02  0.56106460967E+02  0.15270732205E+01  0.11684397461E+03  0.80617092314E+02 0.  0.
         -6    2    1    2    0  502 -0.24362322333E+02 -0.44270240187E+02 -0.10508569938E+03  0.20567038571E+03  0.16942233155E+03 0.  0.
        -24    2    5    5    0    0  0.26464385358E+02  0.18302391254E+01 -0.10761162055E+03  0.13684394685E+03  0.80263886308E+02 0.  0.
          5    1    3    3  501    0 -0.38907985984E+02 -0.11836220780E+02 -0.57636529498E+02  0.70696442826E+02  0.47000000000E+01 0. -1.
        -11    1    4    4    0    0  0.32347322386E+02 -0.13573125390E+02  0.17117351152E+02  0.39033097608E+02  0.00000000000E+00 0.  1.
         12    1    4    4    0    0  0.30922985931E+02  0.69679586357E+02 -0.15590277931E+02  0.77810877001E+02  0.00000000000E+00 0. -1.
         -5    1    5    5    0  502 -0.50826707691E+02 -0.46100479312E+02  0.25259211691E+01  0.68826438854E+02  0.47000000000E+01 0.  1.
         13    1    6    6    0    0  0.16193743837E+02  0.40928476924E+01  0.95304941068E+01  0.19230680165E+02  0.00000000000E+00 0. -1.
        -14    1    6    6    0    0  0.10270641521E+02 -0.22626085670E+01 -0.11714211466E+03  0.11761326669E+03  0.00000000000E+00 0.  1.
</event>
<event>
12    1  0.8052519E-002  0.2201472E+03  0.7818608E-02  0.1133844E+00
         21   -1    0    0  501  502  0.00000000000E+00  0.00000000000E+00  0.17600670361E+03  0.17600670361E+03  0.00000000000E+00 0. -1.
         21   -1    0    0  502  503 -0.00000000000E+00 -0.00000000000E+00 -0.10086542145E+04  0.10086542145E+04  0.00000000000E+00 0. -1.
         -6    2    1    2    0  503  0.13693311013E+03 -0.35559765615E+01 -0.92163275678E+03  0.94756094132E+03  0.17234116606E+03 0.  0.
        -24    2    3    3    0    0  0.12185386097E+02 -0.30493928168E+02 -0.48407565196E+03  0.49174742915E+03  0.80049571972E+02 0.  0.
          6    2    1    2  501    0 -0.13693311013E+03  0.35559765615E+01  0.88985245893E+02  0.23709997678E+03  0.17185663614E+03 0.  0.
         24    2    5    5    0    0 -0.13797211618E+03  0.47031639075E+02  0.97938071095E+02  0.19245184308E+03  0.78724622686E+02 0.  0.
          5    1    5    5  501    0  0.10390060471E+01 -0.43475662513E+02 -0.89528252024E+01  0.44648133708E+02  0.47000000000E+01 0. -1.
        -11    1    6    6    0    0 -0.85828255483E+01  0.33196836150E+02  0.11220878682E+02  0.36077734728E+02  0.00000000000E+00 0.  1.
         12    1    6    6    0    0 -0.12938929063E+03  0.13834802925E+02  0.86717192414E+02  0.15637410835E+03  0.00000000000E+00 0. -1.
         -5    1    3    3    0  503  0.12474772403E+03  0.26937951606E+02 -0.43755710483E+03  0.45581351217E+03  0.47000000000E+01 0.  1.
         13    1    4    4    0    0  0.46560723983E+02 -0.18203229257E+02 -0.28550816292E+03  0.28985197889E+03  0.00000000000E+00 0. -1.
        -14    1    4    4    0    0 -0.34375337886E+02 -0.12290698910E+02 -0.19856748904E+03  0.20189545026E+03  0.00000000000E+00 0.  1.
</event>
<event>
12    1  0.8052519E-002  0.2622678E+03  0.7818608E-02  0.1105822E+00
         21   -1    0    0  503  502  0.00000000000E+00  0.00000000000E+00  0.93377973929E+02  0.93377973929E+02  0.00000000000E+00 0.  1.
         21   -1    0    0  501  503 -0.00000000000E+00 -0.00000000000E+00 -0.73605080192E+03  0.73605080192E+03  0.00000000000E+00 0. -1.
          6    2    1    2  501    0 -0.13507492604E+03 -0.14506933514E+03 -0.32481581134E+03  0.41733961784E+03  0.17139631757E+03 0.  0.
         24    2    3    3    0    0 -0.13923172474E+03 -0.52147320263E+02 -0.20962197283E+03  0.26920626489E+03  0.80161246106E+02 0.  0.
         -6    2    1    2    0  502  0.13507492604E+03  0.14506933514E+03 -0.31785701665E+03  0.41208915801E+03  0.17173829939E+03 0.  0.
        -24    2    5    5    0    0  0.13902844217E+03  0.15072244231E+03 -0.33054854630E+03  0.39689860715E+03  0.78866980080E+02 0.  0.
          5    1    3    3  501    0  0.41567987013E+01 -0.92922014875E+02 -0.11519383851E+03  0.14813335295E+03  0.47000000000E+01 0. -1.
        -13    1    4    4    0    0 -0.56759293698E+02 -0.57098561667E+02 -0.68640293397E+02  0.10579864386E+03  0.00000000000E+00 0.  1.
         14    1    4    4    0    0 -0.82472431046E+02  0.49512414045E+01 -0.14098167943E+03  0.16340762103E+03  0.00000000000E+00 0. -1.
         -5    1    5    5    0  502 -0.39535161319E+01 -0.56531071733E+01  0.12691529653E+02  0.15190550861E+02  0.47000000000E+01 0.  1.
         13    1    6    6    0    0  0.32308173197E+02  0.77818757608E+02 -0.17817782056E+03  0.19709620197E+03  0.00000000000E+00 0. -1.
        -14    1    6    6    0    0  0.10672026898E+03  0.72903684703E+02 -0.15237072574E+03  0.19980240519E+03  0.00000000000E+00 0.  1.
</event>
<event>
12    1  0.8052519E-002  0.1784831E+03  0.7818608E-02  0.1169486E+00
         21   -1    0    0  503  502  0.00000000000E+00  0.00000000000E+00  0.48845634448E+03  0.48845634448E+03  0.00000000000E+00 0.  1.
         21   -1    0    0  501  503 -0.00000000000E+00 -0.00000000000E+00 -0.28097835618E+03  0.28097835618E+03  0.00000000000E+00 0.  1.
          6    2    1    2  501    0 -0.45153310766E+02  0.11023606132E+02 -0.23368282009E+03  0.29353651613E+03  0.17145169737E+03 0.  0.
         24    2    3    3    0    0 -0.63923369012E+02  0.67514525889E+02 -0.16816866336E+03  0.20489265659E+03  0.71104803476E+02 0.  0.
         -6    2    1    2    0  502  0.45153310766E+02 -0.11023606132E+02  0.44116080839E+03  0.47589818454E+03  0.17232493095E+03 0.  0.
        -24    2    5    5    0    0  0.64163664716E+01 -0.48647176778E+02  0.12620761876E+03  0.15631457173E+03  0.78090746794E+02 0.  0.
          5    1    3    3  501    0  0.18770058246E+02 -0.56490919758E+02 -0.65514156725E+02  0.88643859533E+02  0.47000000000E+01 0. -1.
        -13    1    4    4    0    0 -0.76656838142E+01  0.37786937779E+02 -0.11716151734E+03  0.12334276031E+03  0.00000000000E+00 0.  1.
         14    1    4    4    0    0 -0.56257685198E+02  0.29727588110E+02 -0.51007146017E+02  0.81549896281E+02  0.00000000000E+00 0. -1.
         -5    1    5    5    0  502  0.38736944294E+02  0.37623570646E+02  0.31495318963E+03  0.31958361281E+03  0.47000000000E+01 0.  1.
         11    1    6    6    0    0  0.31072463225E+02 -0.30756137943E+02  0.24444576262E+02  0.50089672595E+02  0.00000000000E+00 0. -1.
        -12    1    6    6    0    0 -0.24656096754E+02 -0.17891038835E+02  0.10176304250E+03  0.10622489914E+03  0.00000000000E+00 0.  1.
</event>
<event>
12    1  0.8052519E-002  0.1791356E+03  0.7818608E-02  0.1169771E+00
         21   -1    0    0  501  502  0.00000000000E+00  0.00000000000E+00  0.13152467913E+03  0.13152467913E+03  0.00000000000E+00 0.  1.
         21   -1    0    0  502  503 -0.00000000000E+00 -0.00000000000E+00 -0.24219705013E+03  0.24219705013E+03  0.00000000000E+00 0.  1.
         -6    2    1    2    0  503 -0.25875986595E+02 -0.40641800812E+02 -0.79834093916E+02  0.19195111273E+03  0.16778088232E+03 0.  0.
        -24    2    3    3    0    0  0.28950248259E+02 -0.64397312170E+02 -0.78395070931E+02  0.13199778809E+03  0.79325268522E+02 0.  0.
          6    2    1    2  501    0  0.25875986595E+02  0.40641800812E+02 -0.30838277084E+02  0.18177061653E+03  0.17253473576E+03 0.  0.
         24    2    5    5    0    0 -0.19024767334E+02  0.64011587157E+02  0.23728681104E+02  0.10719268720E+03  0.80422613859E+02 0.  0.
          5    1    5    5  501    0  0.44900753929E+02 -0.23369786346E+02 -0.54566958188E+02  0.74577929329E+02  0.47000000000E+01 0. -1.
        -11    1    6    6    0    0  0.24349480483E+02  0.54848318259E+01 -0.10035068057E+02  0.26901360019E+02  0.00000000000E+00 0.  1.
         12    1    6    6    0    0 -0.43374247817E+02  0.58526755332E+02  0.33763749161E+02  0.80291327182E+02  0.00000000000E+00 0. -1.
         -5    1    3    3    0  503 -0.54826234854E+02  0.23755511359E+02 -0.14390229841E+01  0.59953324640E+02  0.47000000000E+01 0.  1.
         13    1    4    4    0    0  0.55419027215E+02 -0.32870118960E+02 -0.40917303717E+02  0.76327839229E+02  0.00000000000E+00 0. -1.
        -14    1    4    4    0    0 -0.26468778956E+02 -0.31527193210E+02 -0.37477767214E+02  0.55669948864E+02  0.00000000000E+00 0.  1.
</event>
<event>
12    1  0.8052519E-002  0.1820315E+03  0.7818608E-02  0.1166039E+00
         21   -1    0    0  503  502  0.00000000000E+00  0.00000000000E+00  0.80128498961E+03  0.80128498961E+03  0.00000000000E+00 0.  1.
         21   -1    0    0  501  503 -0.00000000000E+00 -0.00000000000E+00 -0.92012332028E+02  0.92012332028E+02  0.00000000000E+00 0. -1.
          6    2    1    2  501    0  0.47671166971E+02  0.33061758737E+02  0.22297480221E+02  0.18261429591E+03  0.17171250216E+03 0.  0.
         24    2    3    3    0    0  0.80968267390E+02  0.33629061505E+02  0.59256475074E+02  0.13264354418E+03  0.79976283180E+02 0.  0.
         -6    2    1    2    0  502 -0.47671166971E+02 -0.33061758737E+02  0.68697517736E+03  0.71068302573E+03  0.17253941200E+03 0.  0.
        -24    2    5    5    0    0 -0.19819595400E+02  0.35302290692E+02  0.21092799185E+03  0.22892336975E+03  0.79222619126E+02 0.  0.
          5    1    3    3  501    0 -0.33297100419E+02 -0.56730276729E+00 -0.36958994853E+02  0.49970751738E+02  0.47000000000E+01 0. -1.
        -13    1    4    4    0    0  0.67935873329E+02 -0.10985733343E+02  0.19625294119E+02  0.71562010811E+02  0.00000000000E+00 0.  1.
         14    1    4    4    0    0  0.13032394061E+02  0.44614794848E+02  0.39631180955E+02  0.61081533364E+02  0.00000000000E+00 0. -1.
         -5    1    5    5    0  502 -0.27851571571E+02 -0.68364049430E+02  0.47604718551E+03  0.48175965598E+03  0.47000000000E+01 0.  1.
         11    1    6    6    0    0 -0.24089566242E+01  0.34642781502E+02  0.26521741375E+02  0.43695859618E+02  0.00000000000E+00 0. -1.
        -12    1    6    6    0    0 -0.17410638776E+02  0.65950919042E+00  0.18440625047E+03  0.18522751013E+03  0.00000000000E+00 0.  1.
</event>
<event>
12    1  0.8052519E-002  0.1828546E+03  0.7818608E-02  0.1165172E+00
         21   -1    0    0  503  502  0.00000000000E+00  0.00000000000E+00  0.13361723565E+02  0.13361723565E+02  0.00000000000E+00 0.  1.
         21   -1    0    0  501  503 -0.00000000000E+00 -0.00000000000E+00 -0.27357485532E+04  0.27357485532E+04  0.00000000000E+00 0.  1.
          6    2    1    2  501    0 -0.61263224229E+02 -0.62446339921E+01 -0.17692216341E+04  0.17786458302E+04  0.17217322900E+03 0.  0.
         24    2    3    3    0    0 -0.61024947424E+02  0.55655984706E+02 -0.86763212431E+03  0.87492160376E+03  0.76685570687E+02 0.  0.
         -6    2    1    2    0  502  0.61263224229E+02  0.62446339921E+01 -0.95316519553E+03  0.97046444651E+03  0.17171247445E+03 0.  0.
        -24    2    5    5    0    0  0.19289872207E+02  0.72934640768E+02 -0.46873857093E+03  0.47964822439E+03  0.68227635781E+02 0.  0.
          5    1    3    3  501    0 -0.23827680510E+00 -0.61900618698E+02 -0.90158950978E+03  0.90372422647E+03  0.47000000000E+01 0. -1.
        -13    1    4    4    0    0 -0.39681431367E+02  0.74027819292E+02 -0.61015191380E+03  0.61590591159E+03  0.00000000000E+00 0.  1.
         14    1    4    4    0    0 -0.21343516056E+02 -0.18371834586E+02 -0.25748021051E+03  0.25901569217E+03  0.00000000000E+00 0. -1.
         -5    1    5    5    0  502  0.41973352022E+02 -0.66690006776E+02 -0.48442662460E+03  0.49081622213E+03  0.47000000000E+01 0.  1.
         11    1    6    6    0    0 -0.25420777431E+02  0.27369640797E+02 -0.19720071344E+03  0.20070733555E+03  0.00000000000E+00 0. -1.
        -12    1    6    6    0    0  0.44710649638E+02  0.45564999971E+02 -0.27153785749E+03  0.27894088883E+03  0.00000000000E+00 0.  1.
</event>
<event>
12    1  0.8052519E-002  0.2228838E+03  0.7818608E-02  0.1131818E+00
         21   -1    0    0  503  502  0.00000000000E+00  0.00000000000E+00  0.35437589888E+03  0.35437589888E+03  0.00000000000E+00 0.  1.
         21   -1    0    0  501  503 -0.00000000000E+00 -0.00000000000E+00 -0.34505056300E+03  0.34505056300E+03  0.00000000000E+00 0. -1.
          6    2    1    2  501    0 -0.11672799185E+03 -0.81099569907E+02 -0.26495892561E+03  0.34600174353E+03  0.17120575324E+03 0.  0.
         24    2    3    3    0    0 -0.22807941236E+02 -0.28612095298E+02 -0.40511799872E+02  0.97054935655E+02  0.80247120979E+02 0.  0.
         -6    2    1    2    0  502  0.11672799185E+03  0.81099569907E+02  0.27428426148E+03  0.35342471836E+03  0.17168171460E+03 0.  0.
        -24    2    5    5    0    0  0.61130521133E+02 -0.92993114258E+01  0.70045715742E+02  0.12321066565E+03  0.80318416503E+02 0.  0.
          5    1    3    3  501    0 -0.93920050616E+02 -0.52487474608E+02 -0.22444712574E+03  0.24894680787E+03  0.47000000000E+01 0. -1.
        -11    1    4    4    0    0  0.23338486705E+02  0.34601250840E+01 -0.32691671126E+02  0.40316284406E+02  0.00000000000E+00 0.  1.
         12    1    4    4    0    0 -0.46146427941E+02 -0.32072220382E+02 -0.78201287458E+01  0.56738651249E+02  0.00000000000E+00 0. -1.
         -5    1    5    5    0  502  0.55597470719E+02  0.90398881332E+02  0.20423854574E+03  0.23021405271E+03  0.47000000000E+01 0.  1.
         13    1    6    6    0    0 -0.35111221328E+01  0.25746308969E+02  0.85527922043E+01  0.27355998586E+02  0.00000000000E+00 0. -1.
        -14    1    6    6    0    0  0.64641643266E+02 -0.35045620395E+02  0.61492923537E+02  0.95854667065E+02  0.00000000000E+00 0.  1.
</event>
<event>
12    1  0.8052519E-002  0.1838005E+03  0.7818608E-02  0.1164274E+00
         21   -1    0    0  503  502  0.00000000000E+00  0.00000000000E+00  0.45965463912E+03  0.45965463912E+03  0.00000000000E+00 0.  1.
         21   -1    0    0  501  503 -0.00000000000E+00 -0.00000000000E+00 -0.90186775969E+02  0.90186775969E+02  0.00000000000E+00 0.  1.
          6    2    1    2  501    0  0.11097282110E+02 -0.63431491599E+02  0.66042307428E+02  0.19530540415E+03  0.17215083713E+03 0.  0.
         24    2    3    3    0    0 -0.11657763304E+02 -0.10498205977E+03  0.27107299504E+02  0.13380526879E+03  0.77536494310E+02 0.  0.
         -6    2    1    2    0  502 -0.11097282110E+02  0.63431491599E+02  0.30342555572E+03  0.35453601094E+03  0.17170326552E+03 0.  0.
        -24    2    5    5    0    0 -0.33942318607E+02  0.10442636858E+03  0.21923898909E+03  0.25803759835E+03  0.80378606465E+02 0.  0.
          5    1    3    3  501    0  0.22755045413E+02  0.41550568174E+02  0.38935007923E+02  0.61500135360E+02  0.47000000000E+01 0. -1.
        -11    1    4    4    0    0  0.18394972613E+02  0.95608361472E+00 -0.50280502830E+01  0.19093726796E+02  0.00000000000E+00 0.  1.
         12    1    4    4    0    0 -0.30052735916E+02 -0.10593814339E+03  0.32135349787E+02  0.11471154199E+03  0.00000000000E+00 0. -1.
         -5    1    5    5    0  502  0.22845036498E+02 -0.40994876979E+02  0.84186566630E+02  0.96498412588E+02  0.47000000000E+01 0.  1.
         13    1    6    6    0    0 -0.64027814585E+01  0.10410410163E+03  0.19590623245E+03  0.22194123434E+03  0.00000000000E+00 0. -1.
        -14    1    6    6    0    0 -0.27539537149E+02  0.32226694719E+00  0.23332756643E+02  0.36096364012E+02  0.00000000000E+00 0.  1.
</event>
<event>
12    1  0.8052519E-002  0.1778092E+03  0.7818608E-02  0.1170798E+00
         21   -1    0    0  501  502  0.00000000000E+00  0.00000000000E+00  0.13340391448E+03  0.13340391448E+03  0.00000000000E+00 0.  1.
         21   -1    0    0  502  503 -0.00000000000E+00 -0.00000000000E+00 -0.28538432981E+03  0.28538432981E+03  0.00000000000E+00 0.  1.
         -6    2    1    2    0  503 -0.22953940090E+01  0.25037418772E+02 -0.16680477681E+03  0.24380311801E+03  0.17602268493E+03 0.  0.
        -24    2    3    3    0    0  0.22964298451E+02 -0.31186036884E+02 -0.15681688634E+03  0.18118541296E+03  0.82077342368E+02 0.  0.
          6    2    1    2  501    0  0.22953940090E+01 -0.25037418772E+02  0.14824361485E+02  0.17498512627E+03  0.17253374033E+03 0.  0.
         24    2    5    5    0    0  0.39917046499E+02 -0.42681121810E+02 -0.39616784218E+02  0.10633662055E+03  0.79516907116E+02 0.  0.
          5    1    5    5  501    0 -0.37621652490E+02  0.17643703038E+02  0.54441145703E+02  0.68648505726E+02  0.47000000000E+01 0. -1.
        -11    1    6    6    0    0  0.52718960187E+01 -0.38225458661E+02  0.15086930138E+02  0.41431799845E+02  0.00000000000E+00 0.  1.
         12    1    6    6    0    0  0.34645150480E+02 -0.44556631493E+01 -0.54703714355E+02  0.64904820701E+02  0.00000000000E+00 0. -1.
         -5    1    3    3    0  503 -0.25259692460E+02  0.56223455656E+02 -0.99878904772E+01  0.62617705046E+02  0.47000000000E+01 0.  1.
         13    1    4    4    0    0  0.19956464390E+02 -0.58171632022E+02 -0.89445390675E+02  0.10854804077E+03  0.00000000000E+00 0. -1.
        -14    1    4    4    0    0  0.30078340613E+01  0.26985595138E+02 -0.67371495663E+02  0.72637372189E+02  0.00000000000E+00 0.  1.
</event>
<event>
12    1  0.8052519E-002  0.1948751E+03  0.7818608E-02  0.1155773E+00
         21   -1    0    0  503  502  0.00000000000E+00  0.00000000000E+00  0.28214509189E+03  0.28214509189E+03  0.00000000000E+00 0.  1.
         21   -1    0    0  501  503 -0.00000000000E+00 -0.00000000000E+00 -0.17121458774E+03  0.17121458774E+03  0.00000000000E+00 0.  1.
          6    2    1    2  501    0 -0.85895807563E+02 -0.32780579193E+02 -0.57120283047E+02  0.19603235333E+03  0.16344204076E+03 0.  0.
         24    2    3    3    0    0 -0.10937720136E+03 -0.14972007061E+02 -0.80385092265E+02  0.15819239504E+03  0.79846963724E+02 0.  0.
         -6    2    1    2    0  502  0.85895807563E+02  0.32780579193E+02  0.16805078720E+03  0.25732732630E+03  0.17182441518E+03 0.  0.
        -24    2    5    5    0    0  0.36442711604E+02  0.82651344430E+02  0.12879650607E+03  0.17673147955E+03  0.80536699235E+02 0.  0.
          5    1    3    3  501    0  0.23481393797E+02 -0.17808572133E+02  0.23264809218E+02  0.37839958298E+02  0.47000000000E+01 0. -1.
        -11    1    4    4    0    0 -0.32178830510E+02 -0.41616733117E+02 -0.18641040476E+02  0.55811450423E+02  0.00000000000E+00 0.  1.
         12    1    4    4    0    0 -0.77198370849E+02  0.26644726056E+02 -0.61744051789E+02  0.10238094461E+03  0.00000000000E+00 0. -1.
         -5    1    5    5    0  502  0.49453095960E+02 -0.49870765237E+02  0.39254281126E+02  0.80595846741E+02  0.47000000000E+01 0.  1.
         11    1    6    6    0    0 -0.16045401370E+02 -0.57348649072E+01  0.27904566912E+02  0.32695694444E+02  0.00000000000E+00 0. -1.
        -12    1    6    6    0    0  0.52488112974E+02  0.88386209337E+02  0.10089193916E+03  0.14403578511E+03  0.00000000000E+00 0.  1.
</event>
<event>
12    1  0.8052519E-002  0.1894287E+03  0.7818608E-02  0.1159209E+00
         21   -1    0    0  503  502  0.00000000000E+00  0.00000000000E+00  0.20487243923E+03  0.20487243923E+03  0.00000000000E+00 0.  1.
         21   -1    0    0  501  503 -0.00000000000E+00 -0.00000000000E+00 -0.25412371901E+03  0.25412371901E+03  0.00000000000E+00 0.  1.
          6    2    1    2  501    0 -0.73084882262E+02 -0.14893033326E+02 -0.15327934195E+03  0.24288258949E+03  0.17301500846E+03 0.  0.
         24    2    3    3    0    0 -0.94985882804E+02 -0.59415067282E+02 -0.12242474441E+03  0.18426551415E+03  0.80084290020E+02 0.  0.
         -6    2    1    2    0  502  0.73084882262E+02  0.14893033326E+02  0.10402806217E+03  0.21611356875E+03  0.17412648973E+03 0.  0.
        -24    2    5    5    0    0  0.46453862250E+01  0.69936233066E+02  0.69046426321E+02  0.12145881028E+03  0.71219220005E+02 0.  0.
          5    1    3    3  501    0  0.21901000541E+02  0.44522033955E+02 -0.30854597538E+02  0.58617075340E+02  0.47000000000E+01 0. -1.
        -13    1    4    4    0    0 -0.84514887521E+02 -0.78615724393E+02 -0.10794888698E+03  0.15803847802E+03  0.00000000000E+00 0.  1.
         14    1    4    4    0    0 -0.10470995283E+02  0.19200657111E+02 -0.14475857427E+02  0.26227036126E+02  0.00000000000E+00 0. -1.
         -5    1    5    5    0  502  0.68439496037E+02 -0.55043199740E+02  0.34981635845E+02  0.94654758474E+02  0.47000000000E+01 0.  1.
         13    1    6    6    0    0 -0.12349098976E+02  0.44781811128E+01 -0.10667813704E+02  0.16922074365E+02  0.00000000000E+00 0. -1.
        -14    1    6    6    0    0  0.16994485201E+02  0.65458051953E+02  0.79714240025E+02  0.10453673591E+03  0.00000000000E+00 0.  1.
</event>
<event>
12    1  0.8052519E-002  0.2283433E+03  0.7818608E-02  0.1127972E+00
         21   -1    0    0  501  502  0.00000000000E+00  0.00000000000E+00  0.22875707784E+03  0.22875707784E+03  0.00000000000E+00 0. -1.
         21   -1    0    0  502  503 -0.00000000000E+00 -0.00000000000E+00 -0.27881813449E+03  0.27881813449E+03  0.00000000000E+00 0.  1.
         -6    2    1    2    0  503  0.13526314304E+03 -0.64929573531E+02 -0.13444456767E+03  0.26498301221E+03  0.17212985680E+03 0.  0.
        -24    2    3    3    0    0  0.86020682404E+02  0.29469575065E+02 -0.76776766214E+02  0.14380675831E+03  0.80732262755E+02 0.  0.
          6    2    1    2  501    0 -0.13526314304E+03  0.64929573531E+02  0.84383511013E+02  0.24259220012E+03  0.17093399675E+03 0.  0.
         24    2    5    5    0    0 -0.12916100013E+03  0.33037095032E+01  0.19696680483E+02  0.15291801593E+03  0.79388172447E+02 0.  0.
          5    1    5    5  501    0 -0.61021429106E+01  0.61625864028E+02  0.64686830529E+02  0.89674184185E+02  0.47000000000E+01 0. -1.
        -13    1    6    6    0    0 -0.31231634760E+02 -0.30044376896E+02 -0.11551548096E+02  0.44849948230E+02  0.00000000000E+00 0.  1.
         14    1    6    6    0    0 -0.97929365365E+02  0.33348086399E+02  0.31248228579E+02  0.10806806770E+03  0.00000000000E+00 0. -1.
         -5    1    3    3    0  503  0.49242460631E+02 -0.94399148596E+02 -0.57667801452E+02  0.12117625390E+03  0.47000000000E+01 0.  1.
         13    1    4    4    0    0  0.96885048290E+02  0.38958791109E+02 -0.76378845783E+02  0.12937630413E+03  0.00000000000E+00 0. -1.
        -14    1    4    4    0    0 -0.10864365885E+02 -0.94892160438E+01 -0.39792043025E+00  0.14430454181E+02  0.00000000000E+00 0.  1.
</event>
<event>
12    1  0.8052519E-002  0.3019825E+03  0.7818608E-02  0.1084296E+00
         21   -1    0    0  503  502  0.00000000000E+00  0.00000000000E+00  0.58579248571E+03  0.58579248571E+03  0.00000000000E+00 0. -1.
         21   -1    0    0  501  503 -0.00000000000E+00 -0.00000000000E+00 -0.38087135157E+03  0.38087135157E+03  0.00000000000E+00 0.  1.
          6    2    1    2  501    0 -0.14291031313E+02  0.24819720469E+03 -0.26931370844E+03  0.40462734083E+03  0.17142731812E+03 0.  0.
         24    2    3    3    0    0 -0.64026635590E+02  0.18867723351E+03 -0.14392207689E+03  0.25710985520E+03  0.75454654701E+02 0.  0.
         -6    2    1    2    0  502  0.14291031313E+02 -0.24819720469E+03  0.47423484259E+03  0.56203649645E+03  0.17082228024E+03 0.  0.
        -24    2    5    5    0    0 -0.41792828877E+02 -0.20071022533E+03  0.40424845517E+03  0.46044615732E+03  0.81009969629E+02 0.  0.
          5    1    3    3  501    0  0.49735604277E+02  0.59519971182E+02 -0.12539163155E+03  0.14751748562E+03  0.47000000000E+01 0. -1.
        -11    1    4    4    0    0 -0.64716523366E+02  0.11641433437E+03 -0.12440230877E+03  0.18225383417E+03  0.00000000000E+00 0.  1.
         12    1    4    4    0    0  0.68988777603E+00  0.72262899141E+02 -0.19519768126E+02  0.74856021035E+02  0.00000000000E+00 0. -1.
         -5    1    5    5    0  502  0.56083860190E+02 -0.47486979361E+02  0.69986387415E+02  0.10159033914E+03  0.47000000000E+01 0.  1.
         13    1    6    6    0    0  0.14520900865E+02 -0.68123671857E+02  0.82830194719E+02  0.10822445374E+03  0.00000000000E+00 0. -1.
        -14    1    6    6    0    0 -0.56313729742E+02 -0.13258655347E+03  0.32141826045E+03  0.35222170358E+03  0.00000000000E+00 0.  1.
</event>
<event>
12    1  0.8052519E-002  0.2475168E+03  0.7818608E-02  0.1114893E+00
         21   -1    0    0  501  502  0.00000000000E+00  0.00000000000E+00  0.23280967685E+03  0.23280967685E+03  0.00000000000E+00 0. -1.
         21   -1    0    0  502  503 -0.00000000000E+00 -0.00000000000E+00 -0.35265858333E+03  0.35265858333E+03  0.00000000000E+00 0. -1.
         -6    2    1    2    0  503  0.16534123242E+03  0.62954972864E+02 -0.20744182423E+03  0.32290954750E+03  0.17302431528E+03 0.  0.
        -24    2    3    3    0    0  0.14198675401E+03  0.45619570230E+02 -0.22918238947E+03  0.28629411327E+03  0.84843197430E+02 0.  0.
          6    2    1    2  501    0 -0.16534123242E+03 -0.62954972864E+02  0.87592917742E+02  0.26255871268E+03  0.17309970138E+03 0.  0.
         24    2    5    5    0    0 -0.18698312239E+02 -0.17436960100E+02  0.56615463385E+02  0.10584965677E+03  0.85703936233E+02 0.  0.
          5    1    5    5  501    0 -0.14664292019E+03 -0.45518012764E+02  0.30977454357E+02  0.15670905591E+03  0.47000000000E+01 0. -1.
        -13    1    6    6    0    0 -0.91095074632E+01 -0.31727406276E+01 -0.22715151108E+02  0.24678482514E+02  0.00000000000E+00 0.  1.
         14    1    6    6    0    0 -0.95888047759E+01 -0.14264219472E+02  0.79330614493E+02  0.81171174256E+02  0.00000000000E+00 0. -1.
         -5    1    3    3    0  503  0.23354478418E+02  0.17335402634E+02  0.21740565241E+02  0.36615434227E+02  0.47000000000E+01 0.  1.
         11    1    4    4    0    0  0.19685469516E+02  0.27469693958E+02 -0.10802072362E+03  0.11318382626E+03  0.00000000000E+00 0. -1.
        -12    1    4    4    0    0  0.12230128449E+03  0.18149876272E+02 -0.12116166585E+03  0.17311028701E+03  0.00000000000E+00 0.  1.
</event>
<event>
12    1  0.8052519E-002  0.2009454E+03  0.7818608E-02  0.1149160E+00
         21   -1    0    0  501  502  0.00000000000E+00  0.00000000000E+00  0.17172395489E+03  0.17172395489E+03  0.00000000000E+00 0. -1.
         21   -1    0    0  502  503 -0.00000000000E+00 -0.00000000000E+00 -0.25670283070E+03  0.25670283070E+03  0.00000000000E+00 0. -1.
         -6    2    1    2    0  503  0.28358721979E+02 -0.97693580720E+02  0.21403986615E+02  0.20105842009E+03  0.17209911337E+03 0.  0.
        -24    2    3    3    0    0  0.17111194937E+02  0.98186075281E+01 -0.18884924276E+02  0.85599926136E+02  0.81126499638E+02 0.  0.
          6    2    1    2  501    0 -0.28358721979E+02  0.97693580720E+02 -0.10638286243E+03  0.22736836550E+03  0.17329399119E+03 0.  0.
         24    2    5    5    0    0  0.14963706223E+02  0.40324496181E+02  0.10088387648E+02  0.90416962650E+02  0.78888998431E+02 0.  0.
          5    1    5    5  501    0 -0.43322428202E+02  0.57369084540E+02 -0.11647125008E+03  0.13695140285E+03  0.47000000000E+01 0. -1.
        -11    1    6    6    0    0  0.13958529635E+02  0.55252659648E+02 -0.17000903796E+02  0.59470393286E+02  0.00000000000E+00 0.  1.
         12    1    6    6    0    0  0.10051765878E+01 -0.14928163467E+02  0.27089291444E+02  0.30946569364E+02  0.00000000000E+00 0. -1.
         -5    1    3    3    0  503  0.11247527042E+02 -0.10751218825E+03  0.40288910890E+02  0.11545849396E+03  0.47000000000E+01 0.  1.
         13    1    4    4    0    0  0.37645211655E+02 -0.23127490678E+02 -0.14654337887E+02  0.46548817434E+02  0.00000000000E+00 0. -1.
        -14    1    4    4    0    0 -0.20534016718E+02  0.32946098206E+02 -0.42305863886E+01  0.39051108701E+02  0.00000000000E+00 0.  1.
</event>
<event>
12    1  0.8052519E-002  0.1741581E+03  0.7818608E-02  0.1174112E+00
         21   -1    0    0  501  502  0.00000000000E+00  0.00000000000E+00  0.17245613638E+03  0.17245613638E+03  0.00000000000E+00 0.  1.
         21   -1    0    0  502  503 -0.00000000000E+00 -0.00000000000E+00 -0.77598094988E+03  0.77598094988E+03  0.00000000000E+00 0.  1.
         -6    2    1    2    0  503 -0.18282080979E+02 -0.15083036922E+02 -0.71911273262E+03  0.73941173207E+03  0.17042551105E+03 0.  0.
        -24    2    3    3    0    0 -0.31339295414E+02  0.49448087687E+02 -0.29420431088E+03  0.30940706493E+03  0.75824075840E+02 0.  0.
          6    2    1    2  501    0  0.18282080979E+02  0.15083036922E+02  0.11558791912E+03  0.20902535419E+03  0.17253781951E+03 0.  0.
         24    2    5    5    0    0 -0.57040769934E+02  0.10241428888E+02  0.78813066048E+02  0.12493342321E+03  0.77706657081E+02 0.  0.
          5    1    5    5  501    0  0.75322850912E+02  0.48416080339E+01  0.36774853072E+02  0.84091930983E+02  0.47000000000E+01 0. -1.
        -13    1    6    6    0    0  0.11366147421E+02 -0.15823148583E+02  0.33754141439E+02  0.38973111277E+02  0.00000000000E+00 0.  1.
         14    1    6    6    0    0 -0.68406917355E+02  0.26064577471E+02  0.45058924609E+02  0.85960311933E+02  0.00000000000E+00 0. -1.
         -5    1    3    3    0  503  0.13057214436E+02 -0.64531124609E+02 -0.42490842174E+03  0.43000466714E+03  0.47000000000E+01 0.  1.
         13    1    4    4    0    0  0.11220159421E+02  0.82919103965E+01 -0.60042759072E+01  0.15188781539E+02  0.00000000000E+00 0. -1.
        -14    1    4    4    0    0 -0.42559454836E+02  0.41156177291E+02 -0.28820003497E+03  0.29421828339E+03  0.00000000000E+00 0.  1.
</event>
<event>
12    1  0.8052519E-002  0.2694341E+03  0.7818608E-02  0.1101789E+00
         21   -1    0    0  501  502  0.00000000000E+00  0.00000000000E+00  0.51109169703E+03  0.51109169703E+03  0.00000000000E+00 0.  1.
         21   -1    0    0  502  503 -0.00000000000E+00 -0.00000000000E+00 -0.15153158436E+03  0.15153158436E+03  0.00000000000E+00 0. -1.
         -6    2    1    2    0  503  0.18174947475E+03 -0.94699185130E+02  0.94352209805E+02  0.28547692951E+03  0.17491120761E+03 0.  0.
        -24    2    3    3    0    0  0.13191703553E+03 -0.11359552737E+03  0.19069733952E+02  0.19311955341E+03  0.81396922892E+02 0.  0.
          6    2    1    2  501    0 -0.18174947475E+03  0.94699185130E+02  0.26520790286E+03  0.37714635188E+03  0.17292579842E+03 0.  0.
         24    2    5    5    0    0 -0.39643959606E+02  0.13183216779E+02  0.14988328893E+03  0.17674503674E+03  0.83835356355E+02 0.  0.
          5    1    5    5  501    0 -0.14210551515E+03  0.81515968350E+02  0.11532461394E+03  0.20040131514E+03  0.47000000000E+01 0. -1.
        -13    1    6    6    0    0 -0.40986536063E+02  0.42871941558E+02  0.12350178265E+03  0.13700580218E+03  0.00000000000E+00 0.  1.
         14    1    6    6    0    0  0.13425764574E+01 -0.29688724778E+02  0.26381506271E+02  0.39739234563E+02  0.00000000000E+00 0. -1.
         -5    1    3    3    0  503  0.49832439223E+02  0.18896342236E+02  0.75282475853E+02  0.92357376096E+02  0.47000000000E+01 0.  1.
         11    1    4    4    0    0  0.51158428234E+02 -0.10795758748E+02 -0.21065898862E+02  0.56369364740E+02  0.00000000000E+00 0. -1.
        -12    1    4    4    0    0  0.80758607297E+02 -0.10279976862E+03  0.40135632815E+02  0.13675018867E+03  0.00000000000E+00 0.  1.
</event>
<event>
12    1  0.8052519E-002  0.1737435E+03  0.7818608E-02  0.1174030E+00
         21   -1    0    0  501  502  0.00000000000E+00  0.00000000000E+00  0.59254330113E+02  0.59254330113E+02  0.00000000000E+00 0. -1.
         21   -1    0    0  502  503 -0.00000000000E+00 -0.00000000000E+00 -0.95701749162E+03  0.95701749162E+03  0.00000000000E+00 0. -1.
         -6    2    1    2    0  503  0.19761235718E+02 -0.19940645934E+02 -0.79659745233E+03  0.81532465928E+03  0.17146038368E+03 0.  0.
        -24    2    3    3    0    0 -0.18973691410E+01 -0.77936514522E+02 -0.53778095106E+03  0.54916552029E+03  0.79351855975E+02 0.  0.
          6    2    1    2  501    0 -0.19761235718E+02  0.19940645934E+02 -0.10116570918E+03  0.20094716246E+03  0.17133921206E+03 0.  0.
         24    2    5    5    0    0 -0.56663364644E+01  0.56010365412E+02 -0.13020733611E+03  0.15231387197E+03  0.55464374285E+02 0.  0.
          5    1    5    5  501    0 -0.14094899254E+02 -0.36069719478E+02  0.29041626935E+02  0.48633290483E+02  0.47000000000E+01 0. -1.
        -13    1    6    6    0    0 -0.17620989381E+02  0.42028607548E+02 -0.12521828664E+03  0.13325360193E+03  0.00000000000E+00 0.  1.
         14    1    6    6    0    0  0.11954652916E+02  0.13981757864E+02 -0.49890494747E+01  0.19060270040E+02  0.00000000000E+00 0. -1.
         -5    1    3    3    0  503  0.21658604859E+02  0.57995868588E+02 -0.25881650127E+03  0.26615913898E+03  0.47000000000E+01 0.  1.
         11    1    4    4    0    0 -0.30785243288E+02 -0.49370372145E+02 -0.18202989810E+03  0.19110219427E+03  0.00000000000E+00 0. -1.
        -12    1    4    4    0    0  0.28887874147E+02 -0.28566142377E+02 -0.35575105296E+03  0.35806332602E+03  0.00000000000E+00 0.  1.
</event>
<event>
12    1  0.8052519E-002  0.1796385E+03  0.7818608E-02  0.1168715E+00
         21   -1    0    0  503  502  0.00000000000E+00  0.00000000000E+00  0.10066811007E+03  0.10066811007E+03  0.00000000000E+00 0.  1.
         21   -1    0    0  501  503 -0.00000000000E+00 -0.00000000000E+00 -0.36312333420E+03  0.36312333420E+03  0.00000000000E+00 0.  1.
          6    2    1    2  501    0 -0.47625397487E+01  0.46435138803E+02 -0.21361024618E+03  0.27763072331E+03  0.17108646163E+03 0.  0.
         24    2    3    3    0    0 -0.55529904860E+02  0.63977857284E+02 -0.17969953345E+03  0.21393536422E+03  0.79370530963E+02 0.  0.
         -6    2    1    2    0  502  0.47625397487E+01 -0.46435138803E+02 -0.48844977962E+02  0.18616072096E+03  0.17346780178E+03 0.  0.
        -24    2    5    5    0    0  0.22646177447E+02 -0.34206684728E+02 -0.97422387497E+02  0.13276395792E+03  0.80325589339E+02 0.  0.
          5    1    3    3  501    0  0.50767365111E+02 -0.17542718481E+02 -0.33910712725E+02  0.63695359089E+02  0.47000000000E+01 0. -1.
        -11    1    4    4    0    0  0.18991983914E+02  0.20405965495E+02 -0.61940155460E+02  0.67924088063E+02  0.00000000000E+00 0.  1.
         12    1    4    4    0    0 -0.74521888773E+02  0.43571891789E+02 -0.11775937799E+03  0.14601127616E+03  0.00000000000E+00 0. -1.
         -5    1    5    5    0  502 -0.17883637698E+02 -0.12228454075E+02  0.48577409535E+02  0.53396763044E+02  0.47000000000E+01 0.  1.
         11    1    6    6    0    0  0.31984455537E+02  0.79088496805E+01 -0.86487415998E+01  0.34063999039E+02  0.00000000000E+00 0. -1.
        -12    1    6    6    0    0 -0.93382780905E+01 -0.42115534409E+02 -0.88773645897E+02  0.98699958876E+02  0.00000000000E+00 0.  1.
</event>
<event>
12    1  0.8052519E-002  0.2638863E+03  0.7818608E-02  0.1104923E+00
         21   -1    0    0  501  502  0.00000000000E+00  0.00000000000E+00  0.43249462991E+03  0.43249462991E+03  0.00000000000E+00 0. -1.
         21   -1    0    0  502  503 -0.00000000000E+00 -0.00000000000E+00 -0.17741389042E+03  0.17741389042E+03  0.00000000000E+00 0.  1.
         -6    2    1    2    0  503 -0.19849920527E+03 -0.27749910322E+02  0.33872495328E+02  0.26605133245E+03  0.17165073126E+03 0.  0.
        -24    2    3    3    0    0 -0.40958232476E+02 -0.49928988265E+02  0.32453987499E+02  0.10688107213E+03  0.78738945876E+02 0.  0.
          6    2    1    2  501    0  0.19849920527E+03  0.27749910322E+02  0.22120824417E+03  0.34385718788E+03  0.17068299960E+03 0.  0.
         24    2    5    5    0    0  0.18691131075E+03  0.63618748559E+02  0.22263911579E+03  0.30584416052E+03  0.70634916210E+02 0.  0.
          5    1    5    5  501    0  0.11587894514E+02 -0.35868838236E+02 -0.14308716161E+01  0.38013027363E+02  0.47000000000E+01 0. -1.
        -13    1    6    6    0    0  0.30549880698E+02  0.66585384840E+01  0.46747217521E+01  0.31614622706E+02  0.00000000000E+00 0.  1.
         14    1    6    6    0    0  0.15636143006E+03  0.56960210075E+02  0.21796439403E+03  0.27422953781E+03  0.00000000000E+00 0. -1.
         -5    1    3    3    0  503 -0.15754097279E+03  0.22179077943E+02  0.14185078288E+01  0.15917026032E+03  0.47000000000E+01 0.  1.
         11    1    4    4    0    0 -0.45047661818E+02 -0.23816747952E+01  0.37807465816E+02  0.58858887871E+02  0.00000000000E+00 0. -1.
        -12    1    4    4    0    0  0.40894293416E+01 -0.47547313470E+02 -0.53534783169E+01  0.48022184255E+02  0.00000000000E+00 0.  1.
</event>
<event>
12    1  0.8052519E-002  0.2110610E+03  0.7818608E-02  0.1141243E+00
         21   -1    0    0  503  502  0.00000000000E+00  0.00000000000E+00  0.22772371713E+03  0.22772371713E+03  0.00000000000E+00 0.  1.
         21   -1    0    0  501  503 -0.00000000000E+00 -0.00000000000E+00 -0.27121548167E+03  0.27121548167E+03  0.00000000000E+00 0.  1.
          6    2    1    2  501    0  0.11824369979E+03 -0.39961672467E+02 -0.15543032661E+03  0.26003128168E+03  0.16697057591E+03 0.  0.
         24    2    3    3    0    0  0.22758180266E+02  0.25995144775E+02 -0.43317134323E+02  0.98602523208E+02  0.81562253133E+02 0.  0.
         -6    2    1    2    0  502 -0.11824369979E+03  0.39961672467E+02  0.11193856207E+03  0.23890791711E+03  0.17020059746E+03 0.  0.
        -24    2    5    5    0    0 -0.82508473234E+02  0.88003678254E+02  0.52752015789E+02  0.15458604571E+03  0.81004782677E+02 0.  0.
          5    1    3    3  501    0  0.95485519520E+02 -0.65956817242E+02 -0.11211319229E+03  0.16142875848E+03  0.47000000000E+01 0. -1.
        -11    1    4    4    0    0  0.42777302835E+02 -0.13019646424E+02 -0.22690192901E+02  0.50142334257E+02  0.00000000000E+00 0.  1.
         12    1    4    4    0    0 -0.20019122569E+02  0.39014791199E+02 -0.20626941422E+02  0.48460188951E+02  0.00000000000E+00 0. -1.
         -5    1    5    5    0  502 -0.35735226552E+02 -0.48042005788E+02  0.59186546279E+02  0.84321871405E+02  0.47000000000E+01 0.  1.
         11    1    6    6    0    0 -0.29937442577E+00  0.26798808606E+02  0.44262853094E+02  0.51744235735E+02  0.00000000000E+00 0. -1.
        -12    1    6    6    0    0 -0.82209098808E+02  0.61204869649E+02  0.84891626949E+01  0.10284180997E+03  0.00000000000E+00 0.  1.
</event>
<event>
12    1  0.8052519E-002  0.1826211E+03  0.7818608E-02  0.1167319E+00
         21   -1    0    0  503  502  0.00000000000E+00  0.00000000000E+00  0.10000129161E+04  0.10000129161E+04  0.00000000000E+00 0.  1.
         21   -1    0    0  501  503 -0.00000000000E+00 -0.00000000000E+00 -0.43183669838E+02  0.43183669838E+02  0.00000000000E+00 0.  1.
          6    2    1    2  501    0 -0.26874195687E+02  0.10827006996E+02  0.21943605965E+03  0.28548669768E+03  0.18030813571E+03 0.  0.
         24    2    3    3    0    0 -0.59996762161E+02 -0.20115921864E+02  0.21678569108E+03  0.23983931320E+03  0.80762605936E+02 0.  0.
         -6    2    1    2    0  502  0.26874195687E+02 -0.10827006996E+02  0.73739318663E+03  0.75770988827E+03  0.17186074778E+03 0.  0.
        -24    2    5    5    0    0  0.41229635849E+02  0.50840915552E+02  0.33062119186E+03  0.34601272158E+03  0.78292716293E+02 0.  0.
          5    1    3    3  501    0  0.33122566475E+02  0.30942928860E+02  0.26503685722E+01  0.45647384480E+02  0.47000000000E+01 0. -1.
        -13    1    4    4    0    0 -0.54672455348E+02 -0.33560940430E+02  0.81195000079E+02  0.10347967015E+03  0.00000000000E+00 0.  1.
         14    1    4    4    0    0 -0.53243068133E+01  0.13445018566E+02  0.13559069100E+03  0.13635964305E+03  0.00000000000E+00 0. -1.
         -5    1    5    5    0  502 -0.14355440162E+02 -0.61667922548E+02  0.40677199477E+03  0.41169716669E+03  0.47000000000E+01 0.  1.
         11    1    6    6    0    0 -0.12597452094E+01 -0.31040463894E+01 -0.35371418926E+01  0.48716973169E+01  0.00000000000E+00 0. -1.
        -12    1    6    6    0    0  0.42489381058E+02  0.53944961941E+02  0.33415833375E+03  0.34114102426E+03  0.00000000000E+00 0.  1.
</event>
<event>
12    1  0.8052519E-002  0.2017710E+03  0.7818608E-02  0.1148273E+00
         21   -1    0    0  503  502  0.00000000000E+00  0.00000000000E+00  0.14365495345E+03  0.14365495345E+03  0.00000000000E+00 0.  1.
         21   -1    0    0  501  503 -0.00000000000E+00 -0.00000000000E+00 -0.40829837457E+03  0.40829837457E+03  0.00000000000E+00 0.  1.
          6    2    1    2  501    0 -0.91061760623E+02 -0.52596674104E+02 -0.28506416380E+03  0.34924649209E+03  0.17220011725E+03 0.  0.
         24    2    3    3    0    0  0.19893412927E+02 -0.42248777081E+02 -0.11199881861E+03  0.14335372093E+03  0.76327235583E+02 0.  0.
         -6    2    1    2    0  502  0.91061760623E+02  0.52596674104E+02  0.20420742677E+02  0.20270683593E+03  0.17208835007E+03 0.  0.
        -24    2    5    5    0    0  0.13510759108E+02  0.18264841313E+02 -0.46286155943E+02  0.94703442921E+02  0.79436696993E+02 0.  0.
          5    1    3    3  501    0 -0.11095517355E+03 -0.10347897022E+02 -0.17306534519E+03  0.20589277116E+03  0.47000000000E+01 0. -1.
        -11    1    4    4    0    0 -0.25942878646E+02  0.55890565668E+00 -0.24408070500E+02  0.35624419061E+02  0.00000000000E+00 0.  1.
         12    1    4    4    0    0  0.45836291573E+02 -0.42807682738E+02 -0.87590748115E+02  0.10772930187E+03  0.00000000000E+00 0. -1.
         -5    1    5    5    0  502  0.77551001515E+02  0.34331832791E+02  0.66706898620E+02  0.10800339301E+03  0.47000000000E+01 0.  1.
         11    1    6    6    0    0  0.22811027764E+01 -0.21361056427E+02 -0.48923964251E+02  0.53432690738E+02  0.00000000000E+00 0. -1.
        -12    1    6    6    0    0  0.11229656331E+02  0.39625897740E+02  0.26378083074E+01  0.41270752182E+02  0.00000000000E+00 0.  1.
</event>
<event>
12    1  0.8052519E-002  0.1759322E+03  0.7818608E-02  0.1171848E+00
         21   -1    0    0  501  502  0.00000000000E+00  0.00000000000E+00  0.11125217625E+03  0.11125217625E+03  0.00000000000E+00 0. -1.
         21   -1    0    0  502  503 -0.00000000000E+00 -0.00000000000E+00 -0.54456434877E+03  0.54456434877E+03  0.00000000000E+00 0. -1.
         -6    2    1    2    0  503 -0.28504292187E+02  0.21969128312E+02 -0.44605337937E+03  0.47942353661E+03  0.17201213020E+03 0.  0.
        -24    2    3    3    0    0 -0.80475144992E+02  0.36860230993E+01 -0.23246634288E+03  0.25879544766E+03  0.80278561455E+02 0.  0.
          6    2    1    2  501    0  0.28504292187E+02 -0.21969128312E+02  0.12741206844E+02  0.17639298841E+03  0.17221210973E+03 0.  0.
         24    2    5    5    0    0 -0.41884396947E+02  0.60082766291E+01  0.35044018811E+02  0.97292999999E+02  0.80295968135E+02 0.  0.
          5    1    5    5  501    0  0.70388689135E+02 -0.27977404941E+02 -0.22302811967E+02  0.79099988413E+02  0.47000000000E+01 0. -1.
        -11    1    6    6    0    0 -0.41126125312E+02 -0.11572403993E+01  0.59195887022E+02  0.72089183855E+02  0.00000000000E+00 0.  1.
         12    1    6    6    0    0 -0.75827163500E+00  0.71655170285E+01 -0.24151868211E+02  0.25203816144E+02  0.00000000000E+00 0. -1.
         -5    1    3    3    0  503  0.51970852805E+02  0.18283105213E+02 -0.21358703649E+03  0.22062808895E+03  0.47000000000E+01 0.  1.
         11    1    4    4    0    0 -0.60100432125E+02  0.18175348627E+02 -0.68455786167E+02  0.92890257288E+02  0.00000000000E+00 0. -1.
        -12    1    4    4    0    0 -0.20374712867E+02 -0.14489325528E+02 -0.16401055671E+03  0.16590519037E+03  0.00000000000E+00 0.  1.
</event>
<event>
12    1  0.8052519E-002  0.1796339E+03  0.7818608E-02  0.1168215E+00
         21   -1    0    0  501  502  0.00000000000E+00  0.00000000000E+00  0.11252144900E+03  0.11252144900E+03  0.00000000000E+00 0.  1.
         21   -1    0    0  502  503 -0.00000000000E+00 -0.00000000000E+00 -0.36582074725E+03  0.36582074725E+03  0.00000000000E+00 0.  1.
         -6    2    1    2    0  503 -0.45644097604E+02  0.14372294131E+02 -0.23815465442E+03  0.29830519647E+03  0.17314272822E+03 0.  0.
        -24    2    3    3    0    0 -0.85151958761E+02 -0.26268629470E+02 -0.13776798620E+03  0.18292699697E+03  0.80878743958E+02 0.  0.
          6    2    1    2  501    0  0.45644097604E+02 -0.14372294131E+02 -0.15144643831E+02  0.18003699977E+03  0.17289885646E+03 0.  0.
         24    2    5    5    0    0  0.25675653810E+02  0.38771479726E+02  0.40956696672E+02  0.10008420212E+03  0.78593445478E+02 0.  0.
          5    1    5    5  501    0  0.19968443794E+02 -0.53143773857E+02 -0.56101340503E+02  0.79952797659E+02  0.47000000000E+01 0. -1.
        -13    1    6    6    0    0 -0.11685825229E+02  0.82107874518E+01  0.49098889634E+02  0.51133907587E+02  0.00000000000E+00 0.  1.
         14    1    6    6    0    0  0.37361479039E+02  0.30560692274E+02 -0.81421929611E+01  0.48950294529E+02  0.00000000000E+00 0. -1.
         -5    1    3    3    0  503  0.39507861157E+02  0.40640923601E+02 -0.10038666822E+03  0.11537819950E+03  0.47000000000E+01 0.  1.
         13    1    4    4    0    0 -0.86471692243E+00 -0.34168775244E+02 -0.27258534905E+02  0.43718196008E+02  0.00000000000E+00 0. -1.
        -14    1    4    4    0    0 -0.84287241838E+02  0.79001457742E+01 -0.11050945130E+03  0.13920880096E+03  0.00000000000E+00 0.  1.
</event>
<event>
12    1  0.8052519E-002  0.2745340E+03  0.7818608E-02  0.1099009E+00
         21   -1    0    0  501  502  0.00000000000E+00  0.00000000000E+00  0.65015323804E+02  0.65015323804E+02  0.00000000000E+00 0.  1.
         21   -1    0    0  502  503 -0.00000000000E+00 -0.00000000000E+00 -0.11834117720E+04  0.11834117720E+04  0.00000000000E+00 0. -1.
         -6    2    1    2    0  503  0.72316828974E+02 -0.20192951848E+03 -0.66143866341E+03  0.71534233716E+03  0.16795326643E+03 0.  0.
        -24    2    3    3    0    0  0.11429560516E+03 -0.16399574659E+03 -0.53067495529E+03  0.57278559035E+03  0.80680444310E+02 0.  0.
          6    2    1    2  501    0 -0.72316828974E+02  0.20192951848E+03 -0.45695778480E+03  0.53308475865E+03  0.17135836317E+03 0.  0.
         24    2    5    5    0    0 -0.72192634027E+02  0.14254098220E+03 -0.43195835160E+03  0.46847767447E+03  0.85753168723E+02 0.  0.
          5    1    5    5  501    0 -0.12419494715E+00  0.59388536280E+02 -0.24999433201E+02  0.64607084180E+02  0.47000000000E+01 0. -1.
        -13    1    6    6    0    0 -0.50324247191E+02  0.10652810813E+03 -0.19519928302E+03  0.22799896441E+03  0.00000000000E+00 0.  1.
         14    1    6    6    0    0 -0.21868386836E+02  0.36012874071E+02 -0.23675906858E+03  0.24047871006E+03  0.00000000000E+00 0. -1.
         -5    1    3    3    0  503 -0.41978776181E+02 -0.37933771893E+02 -0.13076370812E+03  0.14255674681E+03  0.47000000000E+01 0.  1.
         11    1    4    4    0    0  0.50129883932E+02 -0.25000809113E+02 -0.87324974440E+02  0.10374823796E+03  0.00000000000E+00 0. -1.
        -12    1    4    4    0    0  0.64165721223E+02 -0.13899493747E+03 -0.44334998085E+03  0.46903735239E+03  0.00000000000E+00 0.  1.
</event>
<event>
12    1  0.8052519E-002  0.1891147E+03  0.7818608E-02  0.1161270E+00
         21   -1    0    0  501  502  0.00000000000E+00  0.00000000000E+00  0.34420081694E+03  0.34420081694E+03  0.00000000000E+00 0. -1.
         21   -1    0    0  502  503 -0.00000000000E+00 -0.00000000000E+00 -0.21718758596E+03  0.21718758596E+03  0.00000000000E+00 0. -1.
         -6    2    1    2    0  503 -0.30013031385E+02  0.68304879217E+02 -0.14401817922E+03  0.23090028954E+03  0.16433918943E+03 0.  0.
        -24    2    3    3    0    0  0.37514553134E+02  0.81904331383E+01 -0.89950966505E+02  0.12545326592E+03  0.78567936610E+02 0.  0.
          6    2    1    2  501    0  0.30013031385E+02 -0.68304879217E+02  0.27103141021E+03  0.33048811336E+03  0.17377580146E+03 0.  0.
         24    2    5    5    0    0  0.47041472393E+01 -0.63466868425E+01  0.40570253437E+02  0.90459381747E+02  0.80464556464E+02 0.  0.
          5    1    5    5  501    0  0.25308884146E+02 -0.61958192374E+02  0.23046115677E+03  0.24002873161E+03  0.47000000000E+01 0. -1.
        -11    1    6    6    0    0  0.33825737933E+02  0.19130901303E+02  0.75407584589E+01  0.39585792521E+02  0.00000000000E+00 0.  1.
         12    1    6    6    0    0 -0.29121590694E+02 -0.25477588145E+02  0.33029494978E+02  0.50873589226E+02  0.00000000000E+00 0. -1.
         -5    1    3    3    0  503 -0.67527584519E+02  0.60114446079E+02 -0.54067212718E+02  0.10544702362E+03  0.47000000000E+01 0.  1.
         13    1    4    4    0    0  0.27674579655E+01  0.42246291327E+01 -0.90337390487E+02  0.90478452876E+02  0.00000000000E+00 0. -1.
        -14    1    4    4    0    0  0.34747095168E+02  0.39658040056E+01  0.38642398163E+00  0.34974813045E+02  0.00000000000E+00 0.  1.
</event>
<event>
12    1  0.8052519E-002  0.4337923E+03  0.7818608E-02  0.1032681E+00
         21   -1    0    0  501  502  0.00000000000E+00  0.00000000000E+00  0.38049318433E+04  0.38049318433E+04  0.00000000000E+00 0. -1.
         21   -1    0    0  502  503 -0.00000000000E+00 -0.00000000000E+00 -0.49525781660E+02  0.49525781660E+02  0.00000000000E+00 0.  1.
         -6    2    1    2    0  503  0.91895808801E+02 -0.38767383600E+03  0.19592098663E+04  0.20066586730E+04  0.17158055604E+03 0.  0.
        -24    2    3    3    0    0  0.11248696138E+03 -0.27199115984E+03  0.11879376270E+04  0.12264731604E+04  0.80050608584E+02 0.  0.
          6    2    1    2  501    0 -0.91895808801E+02  0.38767383600E+03  0.17961961954E+04  0.18477989519E+04  0.17118513850E+03 0.  0.
         24    2    5    5    0    0 -0.12166747600E+03  0.34153696490E+03  0.14259816546E+04  0.14735051378E+04  0.79644453247E+02 0.  0.
          5    1    5    5  501    0  0.29771667202E+02  0.46136871102E+02  0.37021454079E+03  0.37429381408E+03  0.47000000000E+01 0. -1.
        -13    1    6    6    0    0 -0.12433857444E+02  0.13795410155E+03  0.60338479994E+03  0.61907927743E+03  0.00000000000E+00 0.  1.
         14    1    6    6    0    0 -0.10923361856E+03  0.20358286335E+03  0.82259685465E+03  0.85442586042E+03  0.00000000000E+00 0. -1.
         -5    1    3    3    0  503 -0.20591152580E+02 -0.11568267616E+03  0.77127223922E+03  0.78018551263E+03  0.47000000000E+01 0.  1.
         13    1    4    4    0    0  0.38918055113E+02 -0.15628115188E+03  0.76840352593E+03  0.78510024335E+03  0.00000000000E+00 0. -1.
        -14    1    4    4    0    0  0.73568906269E+02 -0.11571000797E+03  0.41953410112E+03  0.44137291706E+03  0.00000000000E+00 0.  1.
</event>
<event>
12    1  0.8052519E-002  0.2065921E+03  0.7818608E-02  0.1144352E+00
         21   -1    0    0  503  502  0.00000000000E+00  0.00000000000E+00  0.55173438689E+03  0.55173438689E+03  0.00000000000E+00 0.  1.
         21   -1    0    0  501  503 -0.00000000000E+00 -0.00000000000E+00 -0.19800395345E+03  0.19800395345E+03  0.00000000000E+00 0. -1.
          6    2    1    2  501    0  0.11174114914E+03 -0.23116220198E+02 -0.11593255322E+03  0.23664612248E+03  0.17187375117E+03 0.  0.
         24    2    3    3    0    0  0.12905751472E+03  0.17161793800E+02 -0.11818165861E+03  0.19249497976E+03  0.78339284709E+02 0.  0.
         -6    2    1    2    0  502 -0.11174114914E+03  0.23116220198E+02  0.46966298666E+03  0.51309221786E+03  0.17222037899E+03 0.  0.
        -24    2    5    5    0    0 -0.54376200723E+02 -0.34591138678E+02  0.37167212049E+03  0.38563565103E+03  0.80133464374E+02 0.  0.
          5    1    3    3  501    0 -0.17316365577E+02 -0.40278013998E+02  0.22491053912E+01  0.44151142720E+02  0.47000000000E+01 0. -1.
        -13    1    4    4    0    0  0.11680176368E+03  0.18146624922E+02 -0.59112767998E+02  0.13216002170E+03  0.00000000000E+00 0.  1.
         14    1    4    4    0    0  0.12255751037E+02 -0.98483112178E+00 -0.59068890616E+02  0.60334958062E+02  0.00000000000E+00 0. -1.
         -5    1    5    5    0  502 -0.57364948416E+02  0.57707358877E+02  0.97990866170E+02  0.12745656683E+03  0.47000000000E+01 0.  1.
         11    1    6    6    0    0 -0.71309981455E+02 -0.35767819719E+02  0.34434540488E+03  0.35346599305E+03  0.00000000000E+00 0. -1.
        -12    1    6    6    0    0  0.16933780732E+02  0.11766810402E+01  0.27326715616E+02  0.32169657980E+02  0.00000000000E+00 0.  1.
</event>
<event>
12    1  0.8052519E-002  0.2161321E+03  0.7818608E-02  0.1138694E+00
         21   -1    0    0  503  502  0.00000000000E+00  0.00000000000E+00  0.10944562048E+03  0.10944562048E+03  0.00000000000E+00 0. -1.
         21   -1    0    0  501  503 -0.00000000000E+00 -0.00000000000E+00 -0.43088952121E+03  0.43088952121E+03  0.00000000000E+00 0.  1.
          6    2    1    2  501    0 -0.15622479847E+02  0.11236023687E+03 -0.21962784291E+03  0.30142177743E+03  0.17248134340E+03 0.  0.
         24    2    3    3    0    0  0.44386501525E+02  0.10944284741E+03 -0.10734570747E+03  0.17398961138E+03  0.69292031200E+02 0.  0.
         -6    2    1    2    0  502  0.15622479847E+02 -0.11236023687E+03 -0.10181605782E+03  0.23891336426E+03  0.18396793548E+03 0.  0.
        -24    2    5    5    0    0  0.55761292932E+02 -0.65168293636E+02  0.30240469020E+01  0.11704564343E+03  0.79588375416E+02 0.  0.
          5    1    3    3  501    0 -0.60008981372E+02  0.29173894602E+01 -0.11228213544E+03  0.12743216605E+03  0.47000000000E+01 0. -1.
        -13    1    4    4    0    0  0.23121580247E+01  0.64584053075E+02 -0.88655597186E+02  0.10970989426E+03  0.00000000000E+00 0.  1.
         14    1    4    4    0    0  0.42074343501E+02  0.44858794331E+02 -0.18690110287E+02  0.64279717115E+02  0.00000000000E+00 0. -1.
         -5    1    5    5    0  502 -0.40138813085E+02 -0.47191943230E+02 -0.10484010472E+03  0.12186772083E+03  0.47000000000E+01 0.  1.
         13    1    6    6    0    0 -0.26417997852E+01 -0.43262528471E+02  0.26033934491E+02  0.50560767606E+02  0.00000000000E+00 0. -1.
        -14    1    6    6    0    0  0.58403092717E+02 -0.21905765165E+02 -0.23009887589E+02  0.66484875823E+02  0.00000000000E+00 0.  1.
</event>
<event>
12    1  0.8052519E-002  0.1898943E+03  0.7818608E-02  0.1159896E+00
         21   -1    0    0  503  502  0.00000000000E+00  0.00000000000E+00  0.40492578083E+03  0.40492578083E+03  0.00000000000E+00 0. -1.
         21   -1    0    0  501  503 -0.00000000000E+00 -0.00000000000E+00 -0.90535950108E+02  0.90535950108E+02  0.00000000000E+00 0. -1.
          6    2    1    2  501    0  0.31862551394E-02  0.62414253428E+02  0.10150846920E+03  0.21019286612E+03  0.17315176178E+03 0.  0.
         24    2    3    3    0    0  0.56499670994E+02  0.77298135060E+02  0.80294420389E+02  0.14785901827E+03  0.79043537579E+02 0.  0.
         -6    2    1    2    0  502 -0.31862551393E-02 -0.62414253428E+02  0.21288136152E+03  0.28526886482E+03  0.17934411646E+03 0.  0.
        -24    2    5    5    0    0  0.49280226279E+02 -0.26826011451E+02  0.20091563435E+03  0.22313476513E+03  0.79207674428E+02 0.  0.
          5    1    3    3  501    0 -0.56496484739E+02 -0.14883881632E+02  0.21214048812E+02  0.62333847846E+02  0.47000000000E+01 0. -1.
        -11    1    4    4    0    0  0.12499685710E+02  0.64537720771E+02  0.77974772469E+02  0.10198737513E+03  0.00000000000E+00 0.  1.
         12    1    4    4    0    0  0.43999985284E+02  0.12760414289E+02  0.23196479203E+01  0.45871643140E+02  0.00000000000E+00 0. -1.
         -5    1    5    5    0  502 -0.49283412534E+02 -0.35588241977E+02  0.11965727171E+02  0.62134099694E+02  0.47000000000E+01 0.  1.
         13    1    6    6    0    0  0.39775878870E+02  0.21300403456E+02  0.12350998477E+03  0.13149351339E+03  0.00000000000E+00 0. -1.
        -14    1    6    6    0    0  0.95043474090E+01 -0.48126414907E+02  0.77405649583E+02  0.91641251732E+02  0.00000000000E+00 0.  1.
</event>
<event>
12    1  0.8052519E-002  0.2123209E+03  0.7818608E-02  0.1139974E+00
         21   -1    0    0  503  502  0.00000000000E+00  0.00000000000E+00  0.44873547403E+02  0.44873547403E+02  0.00000000000E+00 0.  1.
         21   -1    0    0  501  503 -0.00000000000E+00 -0.00000000000E+00 -0.12026311090E+04  0.12026311090E+04  0.00000000000E+00 0. -1.
          6    2    1    2  501    0 -0.11583537595E+03  0.41908842702E+02 -0.83420321820E+03  0.86050649466E+03  0.17147079248E+03 0.  0.
         24    2    3    3    0    0 -0.74151080775E+01  0.35384011291E+02 -0.22342171604E+03  0.24012462734E+03  0.80221950712E+02 0.  0.
         -6    2    1    2    0  502  0.11583537595E+03 -0.41908842702E+02 -0.32355434337E+03  0.38699816172E+03  0.17293345149E+03 0.  0.
        -24    2    5    5    0    0  0.45067864092E+02 -0.12668398287E+02 -0.28805115096E+03  0.30246644581E+03  0.79503990993E+02 0.  0.
          5    1    3    3  501    0 -0.10842026787E+03  0.65248314104E+01 -0.61078150216E+03  0.62038186732E+03  0.47000000000E+01 0. -1.
        -11    1    4    4    0    0  0.32875913314E+02  0.34548073754E+02 -0.12037611408E+03  0.12947897095E+03  0.00000000000E+00 0.  1.
         12    1    4    4    0    0 -0.40291021392E+02  0.83593753716E+00 -0.10304560195E+03  0.11064565639E+03  0.00000000000E+00 0. -1.
         -5    1    5    5    0  502  0.70767511855E+02 -0.29240444415E+02 -0.35503192418E+02  0.84531715915E+02  0.47000000000E+01 0.  1.
         13    1    6    6    0    0  0.29669220784E+02 -0.98750389898E+01 -0.28086953106E+02  0.42031607057E+02  0.00000000000E+00 0. -1.
        -14    1    6    6    0    0  0.15398643308E+02 -0.27933592970E+01 -0.25996419785E+03  0.26043483875E+03  0.00000000000E+00 0.  1.
</event>
<event>
12    1  0.8052519E-002  0.1854529E+03  0.7818608E-02  0.1162734E+00
         21   -1    0    0  501  502  0.00000000000E+00  0.00000000000E+00  0.66962174617E+02  0.66962174617E+02  0.00000000000E+00 0. -1.
         21   -1    0    0  502  503 -0.00000000000E+00 -0.00000000000E+00 -0.70934697397E+03  0.70934697397E+03  0.00000000000E+00 0.  1.
         -6    2    1    2    0  503 -0.72713763853E+02  0.12667830683E+02 -0.52545716476E+03  0.55707215339E+03  0.16963604185E+03 0.  0.
        -24    2    3    3    0    0 -0.97661010282E+02  0.37188266318E+02 -0.48790568825E+03  0.50553750236E+03  0.81213087538E+02 0.  0.
          6    2    1    2  501    0  0.72713763853E+02 -0.12667830683E+02 -0.11692763459E+03  0.21923699519E+03  0.17013236889E+03 0.  0.
         24    2    5    5    0    0  0.75642533496E+02 -0.65438024967E+02 -0.99834896226E+02  0.16349183575E+03  0.82210983868E+02 0.  0.
          5    1    5    5  501    0 -0.29287696433E+01  0.52770194284E+02 -0.17092738360E+02  0.55745159441E+02  0.47000000000E+01 0. -1.
        -13    1    6    6    0    0  0.83261839654E+02 -0.30708053860E+02 -0.48753882370E+02  0.10125442983E+03  0.00000000000E+00 0.  1.
         14    1    6    6    0    0 -0.76193061577E+01 -0.34729971107E+02 -0.51081013855E+02  0.62237405922E+02  0.00000000000E+00 0. -1.
         -5    1    3    3    0  503  0.24947246429E+02 -0.24520435636E+02 -0.37551476515E+02  0.51534651028E+02  0.47000000000E+01 0.  1.
         13    1    4    4    0    0  0.31613333804E+01 -0.14171075912E+02 -0.24157183175E+02  0.28184799453E+02  0.00000000000E+00 0. -1.
        -14    1    4    4    0    0 -0.10082234366E+03  0.51359342231E+02 -0.46374850507E+03  0.47735270291E+03  0.00000000000E+00 0.  1.
</event>
<event>
12    1  0.8052519E-002  0.2081894E+03  0.7818608E-02  0.1143486E+00
         21   -1    0    0  501  502  0.00000000000E+00  0.00000000000E+00  0.48578427981E+02  0.48578427981E+02  0.00000000000E+00 0. -1.
         21   -1    0    0  502  503 -0.00000000000E+00 -0.00000000000E+00 -0.89223691093E+03  0.89223691093E+03  0.00000000000E+00 0.  1.
         -6    2    1    2    0  503 -0.71609233661E+02 -0.88060979312E+02 -0.36927595641E+03  0.42275972696E+03  0.17169285464E+03 0.  0.
        -24    2    3    3    0    0 -0.10378211830E+03 -0.94078876509E+02 -0.34776125177E+03  0.38330998541E+03  0.79794069942E+02 0.  0.
          6    2    1    2  501    0  0.71609233661E+02  0.88060979312E+02 -0.47438252655E+03  0.51805561196E+03  0.17452855688E+03 0.  0.
         24    2    5    5    0    0  0.27062566088E+02  0.12463220057E+03 -0.33626273999E+03  0.36831909252E+03  0.79503180462E+02 0.  0.
          5    1    5    5  501    0  0.44546667573E+02 -0.36571221259E+02 -0.13811978655E+03  0.14973651944E+03  0.47000000000E+01 0. -1.
        -13    1    6    6    0    0 -0.12886430998E+02 -0.25741668475E+01 -0.61834452453E+02  0.63215393292E+02  0.00000000000E+00 0.  1.
         14    1    6    6    0    0  0.39948997086E+02  0.12720636742E+03 -0.27442828754E+03  0.30510369923E+03  0.00000000000E+00 0. -1.
         -5    1    3    3    0  503  0.32172884638E+02  0.60178971967E+01 -0.21514704634E+02  0.39449741547E+02  0.47000000000E+01 0.  1.
         11    1    4    4    0    0 -0.46009488087E+02 -0.22920701495E+02 -0.49801731768E+02  0.71571251478E+02  0.00000000000E+00 0. -1.
        -12    1    4    4    0    0 -0.57772630212E+02 -0.71158175013E+02 -0.29795952001E+03  0.31173873393E+03  0.00000000000E+00 0.  1.
</event>
<event>
12    1  0.8052519E-002  0.1957685E+03  0.7818608E-02  0.1156063E+00
         21   -1    0    0  503  502  0.00000000000E+00  0.00000000000E+00  0.97848035746E+02  0.97848035746E+02  0.00000000000E+00 0. -1.
         21   -1    0    0  501  503 -0.00000000000E+00 -0.00000000000E+00 -0.37896367725E+03  0.37896367725E+03  0.00000000000E+00 0.  1.
          6    2    1    2  501    0  0.77579944578E+02 -0.53886472132E+02 -0.17686513917E+03  0.25501569639E+03  0.15757324732E+03 0.  0.
         24    2    3    3    0    0  0.65502951368E+02 -0.87827538254E+01 -0.41814687270E+02  0.11204397286E+03  0.80234720539E+02 0.  0.
         -6    2    1    2    0  502 -0.77579944578E+02  0.53886472132E+02 -0.10425050234E+03  0.22179601661E+03  0.17147275605E+03 0.  0.
        -24    2    5    5    0    0  0.25356957881E+02  0.19227394473E+02 -0.54118466020E+02  0.10207731040E+03  0.80487893019E+02 0.  0.
          5    1    3    3  501    0  0.12076993210E+02 -0.45103718307E+02 -0.13505045190E+03  0.14297172353E+03  0.47000000000E+01 0. -1.
        -13    1    4    4    0    0  0.17175459644E+02  0.45275247183E+01 -0.56971089945E+02  0.59675790599E+02  0.00000000000E+00 0.  1.
         14    1    4    4    0    0  0.48327491724E+02 -0.13310278544E+02  0.15156402675E+02  0.52368182260E+02  0.00000000000E+00 0. -1.
         -5    1    5    5    0  502 -0.10293690246E+03  0.34659077659E+02 -0.50132036315E+02  0.11971870621E+03  0.47000000000E+01 0.  1.
         11    1    6    6    0    0 -0.18948962337E+00 -0.36676360212E+01  0.20037388162E+02  0.20371165520E+02  0.00000000000E+00 0. -1.
        -12    1    6    6    0    0  0.25546447505E+02  0.22895030494E+02 -0.74155854182E+02  0.81706144879E+02  0.00000000000E+00 0.  1.
</event>
<event>
12    1  0.8052519E-002  0.2122905E+03  0.7818608E-02  0.1140483E+00
         21   -1    0    0  501  502  0.00000000000E+00  0.00000000000E+00  0.13343487733E+03  0.13343487733E+03  0.00000000000E+00 0. -1.
         21   -1    0    0  502  503 -0.00000000000E+00 -0.00000000000E+00 -0.10303353744E+04  0.10303353744E+04  0.00000000000E+00 0.  1.
         -6    2    1    2    0  503  0.91691366132E+02 -0.81163605409E+02 -0.92875390985E+03  0.95270723704E+03  0.17341400460E+03 0.  0.
        -24    2    3    3    0    0  0.84192248266E+02  0.14085652018E+02 -0.46576846561E+03  0.47994274029E+03  0.78217837767E+02 0.  0.
          6    2    1    2  501    0 -0.91691366132E+02  0.81163605409E+02  0.31853412807E+02  0.21106301466E+03  0.16893229053E+03 0.  0.
         24    2    5    5    0    0 -0.21121450147E+02 -0.16795092717E+02 -0.82701819210E+01  0.83752322122E+02  0.78853438455E+02 0.  0.
          5    1    5    5  501    0 -0.70569915985E+02  0.97958698125E+02  0.40123594728E+02  0.12731069254E+03  0.47000000000E+01 0. -1.
        -13    1    6    6    0    0 -0.24445685887E+02  0.34376810836E+01 -0.39389150373E+02  0.46485636242E+02  0.00000000000E+00 0.  1.
         14    1    6    6    0    0  0.33242357395E+01 -0.20232773800E+02  0.31118968452E+02  0.37266685880E+02  0.00000000000E+00 0. -1.
         -5    1    3    3    0  503  0.74991178665E+01 -0.95249257427E+02 -0.46298544424E+03  0.47276449675E+03  0.47000000000E+01 0.  1.
         13    1    4    4    0    0  0.28494884278E+02  0.79697224449E+01 -0.36285023987E+02  0.46819631263E+02  0.00000000000E+00 0. -1.
        -14    1    4    4    0    0  0.55697363987E+02  0.61159295731E+01 -0.42948344162E+03  0.43312310903E+03  0.00000000000E+00 0.  1.
</event>
<event>
12    1  0.8052519E-002  0.2371656E+03  0.7818608E-02  0.1121767E+00
         21   -1    0    0  503  502  0.00000000000E+00  0.00000000000E+00  0.97337988316E+03  0.97337988316E+03  0.00000000000E+00 0.  1.
         21   -1    0    0  501  503 -0.00000000000E+00 -0.00000000000E+00 -0.19424820025E+03  0.19424820025E+03  0.00000000000E+00 0. -1.
          6    2    1    2  501    0 -0.14626468278E+03 -0.68983383685E+02 -0.99846088848E+02  0.25732619333E+03  0.17348044173E+03 0.  0.
         24    2    3    3    0    0 -0.20688712487E+02 -0.38210685854E+02 -0.89971990336E+02  0.12757307750E+03  0.79321193378E+02 0.  0.
         -6    2    1    2    0  502  0.14626468278E+03  0.68983383685E+02  0.87897777176E+03  0.91030189007E+03  0.17290327692E+03 0.  0.
        -24    2    5    5    0    0  0.13689022028E+03  0.11035357917E+03  0.68463920994E+03  0.71133219331E+03  0.79660508445E+02 0.  0.
          5    1    3    3  501    0 -0.12557597030E+03 -0.30772697832E+02 -0.98740985128E+01  0.12975311584E+03  0.47000000000E+01 0. -1.
        -11    1    4    4    0    0  0.10025956796E+02 -0.44328758587E+02 -0.17639189618E+02  0.48751406727E+02  0.00000000000E+00 0.  1.
         12    1    4    4    0    0 -0.30714669283E+02  0.61180727330E+01 -0.72332800717E+02  0.78821670768E+02  0.00000000000E+00 0. -1.
         -5    1    5    5    0  502  0.93744625055E+01 -0.41370195480E+02  0.19433856182E+03  0.19896969676E+03  0.47000000000E+01 0.  1.
         11    1    6    6    0    0  0.12866494212E+03  0.68002860387E+02  0.58352817603E+03  0.60140185282E+03  0.00000000000E+00 0. -1.
        -12    1    6    6    0    0  0.82252781573E+01  0.42350718779E+02  0.10111103391E+03  0.10993034049E+03  0.00000000000E+00 0.  1.
</event>
<event>
12    1  0.8052519E-002  0.1968737E+03  0.7818608E-02  0.1152450E+00
         21   -1    0    0  501  502  0.00000000000E+00  0.00000000000E+00  0.22563007064E+03  0.22563007064E+03  0.00000000000E+00 0. -1.
         21   -1    0    0  502  503 -0.00000000000E+00 -0.00000000000E+00 -0.17199586555E+03  0.17199586555E+03  0.00000000000E+00 0. -1.
         -6    2    1    2    0  503  0.71453782147E+02 -0.63629476206E+02  0.36409180769E+02  0.20021211683E+03  0.17206077431E+03 0.  0.
        -24    2    3    3    0    0  0.39543213592E+02 -0.97277861377E+02  0.51631958765E+02  0.15117823895E+03  0.95720179230E+02 0.  0.
          6    2    1    2  501    0 -0.71453782147E+02  0.63629476206E+02  0.17225024327E+02  0.19741381936E+03  0.17181723250E+03 0.  0.
         24    2    5    5    0    0 -0.10988716302E+03  0.27114643206E+02  0.32321943190E+02  0.14209235198E+03  0.79593567620E+02 0.  0.
          5    1    5    5  501    0  0.38433380869E+02  0.36514833000E+02 -0.15096918863E+02  0.55321467381E+02  0.47000000000E+01 0. -1.
        -11    1    6    6    0    0 -0.51181145476E+02 -0.24999421765E+02  0.28007794423E+02  0.63473752759E+02  0.00000000000E+00 0.  1.
         12    1    6    6    0    0 -0.58706017540E+02  0.52114064971E+02  0.43141487667E+01  0.78618599216E+02  0.00000000000E+00 0. -1.
         -5    1    3    3    0  503  0.31910568555E+02  0.33648385171E+02 -0.15222777997E+02  0.49033877881E+02  0.47000000000E+01 0.  1.
         13    1    4    4    0    0  0.35671638574E+02  0.65697491622E+01  0.24513831870E+02  0.43778480508E+02  0.00000000000E+00 0. -1.
        -14    1    4    4    0    0  0.38715750178E+01 -0.10384761054E+03  0.27118126895E+02  0.10739975845E+03  0.00000000000E+00 0.  1.
</event>
<event>
12    1  0.8052519E-002  0.1879781E+03  0.7818608E-02  0.1160336E+00
         21   -1    0    0  501  502  0.00000000000E+00  0.00000000000E+00  0.18793925314E+03  0.18793925314E+03  0.00000000000E+00 0.  1.
         21   -1    0    0  502  503 -0.00000000000E+00 -0.00000000000E+00 -0.19238882979E+03  0.19238882979E+03  0.00000000000E+00 0.  1.
         -6    2    1    2    0  503 -0.23163732353E+02  0.73551363423E+02 -0.31431352573E+02  0.19058778382E+03  0.17143340357E+03 0.  0.
        -24    2    3    3    0    0 -0.57070776715E+02 -0.15757366489E+01  0.10904398617E+02  0.97807534565E+02  0.78662897275E+02 0.  0.
          6    2    1    2  501    0  0.23163732353E+02 -0.73551363423E+02  0.26981775914E+02  0.18974029911E+03  0.17125128706E+03 0.  0.
         24    2    5    5    0    0  0.31702416842E+02  0.83656506221E+01  0.56464401495E+02  0.10213538182E+03  0.78539036405E+02 0.  0.
          5    1    5    5  501    0 -0.85386844895E+01 -0.81917014045E+02 -0.29482625581E+02  0.87604917293E+02  0.47000000000E+01 0. -1.
        -11    1    6    6    0    0  0.21890079451E+01 -0.33122495542E+02  0.14793471745E+02  0.36341962977E+02  0.00000000000E+00 0.  1.
         12    1    6    6    0    0  0.29513408897E+02  0.41488146164E+02  0.41670929749E+02  0.65793418843E+02  0.00000000000E+00 0. -1.
         -5    1    3    3    0  503  0.33907044362E+02  0.75127100072E+02 -0.42335751190E+02  0.92780249253E+02  0.47000000000E+01 0.  1.
         13    1    4    4    0    0 -0.12706587530E+02 -0.99600833778E+01 -0.31798522108E+02  0.35662398066E+02  0.00000000000E+00 0. -1.
        -14    1    4    4    0    0 -0.44364189185E+02  0.83843467289E+01  0.42702920725E+02  0.62145136499E+02  0.00000000000E+00 0.  1.
</event>
<event>
12    1  0.8052519E-002  0.1984360E+03  0.7818608E-02  0.1151089E+00
         21   -1    0    0  503  502  0.00000000000E+00  0.00000000000E+00  0.23474841915E+03  0.23474841915E+03  0.00000000000E+00 0.  1.
         21   -1    0    0  501  503 -0.00000000000E+00 -0.00000000000E+00 -0.31069090633E+03  0.31069090633E+03  0.00000000000E+00 0. -1.
          6    2    1    2  501    0 -0.31550394942E+02 -0.93590730215E+02 -0.22301401858E+03  0.29844365052E+03  0.17198461515E+03 0.  0.
         24    2    3    3    0    0 -0.54764104281E+02 -0.12725752812E+02 -0.59026889162E+02  0.11407475540E+03  0.79798648315E+02 0.  0.
         -6    2    1    2    0  502  0.31550394942E+02  0.93590730215E+02  0.14707153140E+03  0.24699567496E+03  0.17211094067E+03 0.  0.
        -24    2    5    5    0    0  0.44120722201E+02 -0.70637198667E+01  0.10067599856E+03  0.13535353724E+03  0.78666314836E+02 0.  0.
          5    1    3    3  501    0  0.23213709339E+02 -0.80864977404E+02 -0.16398712942E+03  0.18436889512E+03  0.47000000000E+01 0. -1.
        -11    1    4    4    0    0 -0.24191092814E+02 -0.44697908774E+02 -0.18519500914E+02  0.54093289181E+02  0.00000000000E+00 0.  1.
         12    1    4    4    0    0 -0.30573011467E+02  0.31972155962E+02 -0.40507388248E+02  0.59981466219E+02  0.00000000000E+00 0. -1.
         -5    1    5    5    0  502 -0.12570327259E+02  0.10065445008E+03  0.46395532834E+02  0.11164213772E+03  0.47000000000E+01 0.  1.
         11    1    6    6    0    0  0.51989791883E+02 -0.19616736716E+02  0.30014503594E+02  0.63155563852E+02  0.00000000000E+00 0. -1.
        -12    1    6    6    0    0 -0.78690696823E+01  0.12553016849E+02  0.70661494967E+02  0.72197973384E+02  0.00000000000E+00 0.  1.
</event>
<event>
12    1  0.8052519E-002  0.3484281E+03  0.7818608E-02  0.1063355E+00
         21   -1    0    0  503  502  0.00000000000E+00  0.00000000000E+00  0.14876320725E+03  0.14876320725E+03  0.00000000000E+00 0. -1.
         21   -1    0    0  501  503 -0.00000000000E+00 -0.00000000000E+00 -0.14526996920E+04  0.14526996920E+04  0.00000000000E+00 0. -1.
          6    2    1    2  501    0 -0.30042807709E+03  0.36460764985E+02 -0.11833947879E+04  0.12336228752E+04  0.17267239856E+03 0.  0.
         24    2    3    3    0    0 -0.10232644390E+03 -0.35732264960E+02 -0.56586838832E+03  0.58107629842E+03  0.75466123589E+02 0.  0.
         -6    2    1    2    0  502  0.30042807709E+03 -0.36460764985E+02 -0.12054169683E+03  0.36784002407E+03  0.17084954125E+03 0.  0.
        -24    2    5    5    0    0  0.25151264199E+03 -0.41839724455E+02 -0.15358820250E+03  0.30837730859E+03  0.80610525878E+02 0.  0.
          5    1    3    3  501    0 -0.19810163319E+03  0.72193029945E+02 -0.61752639961E+03  0.65254657677E+03  0.47000000000E+01 0. -1.
        -13    1    4    4    0    0  0.58472119245E+01  0.11343252225E+02 -0.34904654707E+02  0.37164420869E+02  0.00000000000E+00 0.  1.
         14    1    4    4    0    0 -0.10817365583E+03 -0.47075517185E+02 -0.53096373361E+03  0.54391187755E+03  0.00000000000E+00 0. -1.
         -5    1    5    5    0  502  0.48915435093E+02  0.53789594703E+01  0.33046505664E+02  0.59462715477E+02  0.47000000000E+01 0.  1.
         13    1    6    6    0    0  0.12944922468E+03 -0.33445595371E+01 -0.11882922982E+03  0.17575173885E+03  0.00000000000E+00 0. -1.
        -14    1    6    6    0    0  0.12206341731E+03 -0.38495164918E+02 -0.34758972681E+02  0.13262556974E+03  0.00000000000E+00 0.  1.
</event>
<event>
12    1  0.8052519E-002  0.2219454E+03  0.7818608E-02  0.1132888E+00
         21   -1    0    0  503  502  0.00000000000E+00  0.00000000000E+00  0.46620895149E+03  0.46620895149E+03  0.00000000000E+00 0. -1.
         21   -1    0    0  501  503 -0.00000000000E+00 -0.00000000000E+00 -0.12874110497E+03  0.12874110497E+03  0.00000000000E+00 0.  1.
          6    2    1    2  501    0  0.46927722459E+02 -0.13169205884E+03  0.29852015162E+03  0.37198659974E+03  0.17237963907E+03 0.  0.
         24    2    3    3    0    0 -0.11163938661E+02 -0.46066314905E+02  0.55960824286E+02  0.10823761606E+03  0.79605456972E+02 0.  0.
         -6    2    1    2    0  502 -0.46927722459E+02  0.13169205884E+03  0.38947694898E+02  0.22296345673E+03  0.16926538513E+03 0.  0.
        -24    2    5    5    0    0 -0.44028433299E+00  0.14195935255E+03  0.28211518655E+00  0.16145234978E+03  0.76903381156E+02 0.  0.
          5    1    3    3  501    0  0.58091661120E+02 -0.85625743932E+02  0.24255932733E+03  0.26374898368E+03  0.47000000000E+01 0. -1.
        -11    1    4    4    0    0  0.87858787456E+01  0.20606624430E+02  0.83067666254E+01  0.23891986261E+02  0.00000000000E+00 0.  1.
         12    1    4    4    0    0 -0.19949817407E+02 -0.66672939336E+02  0.47654057660E+02  0.84345629796E+02  0.00000000000E+00 0. -1.
         -5    1    5    5    0  502 -0.46487438126E+02 -0.10267293713E+02  0.38665579711E+02  0.61511106949E+02  0.47000000000E+01 0.  1.
         11    1    6    6    0    0  0.40180623588E+01 -0.26692109325E+01  0.15238863043E+02  0.15984131474E+02  0.00000000000E+00 0. -1.
        -12    1    6    6    0    0 -0.44583466918E+01  0.14462856348E+03 -0.14956747857E+02  0.14546821830E+03  0.00000000000E+00 0.  1.
</event>
<event>
12    1  0.8052519E-002  0.1833564E+03  0.7818608E-02  0.1165160E+00
         21   -1    0    0  503  502  0.00000000000E+00  0.00000000000E+00  0.42560734472E+03  0.42560734472E+03  0.00000000000E+00 0.  1.
         21   -1    0    0  501  503 -0.00000000000E+00 -0.00000000000E+00 -0.77969908296E+02  0.77969908296E+02  0.00000000000E+00 0.  1.
          6    2    1    2  501    0  0.48610175444E+02 -0.22359746962E+02  0.17256401478E+03  0.25006145766E+03  0.17288575988E+03 0.  0.
         24    2    3    3    0    0  0.53706990337E+02 -0.70420022079E+02  0.15946524961E+03  0.19976796688E+03  0.81453388117E+02 0.  0.
         -6    2    1    2    0  502 -0.48610175444E+02  0.22359746962E+02  0.17507342163E+03  0.25351579535E+03  0.17537573403E+03 0.  0.
        -24    2    5    5    0    0 -0.88032469721E+02  0.77868333450E+01  0.63021683979E+02  0.13374865040E+03  0.78144854809E+02 0.  0.
          5    1    3    3  501    0 -0.50968148929E+01  0.48060275117E+02  0.13098765171E+02  0.50293490786E+02  0.47000000000E+01 0. -1.
        -13    1    4    4    0    0  0.36591231221E+02 -0.29358608348E+02  0.14590457299E+03  0.15326118395E+03  0.00000000000E+00 0.  1.
         14    1    4    4    0    0  0.17115759116E+02 -0.41061413732E+02  0.13560676622E+02  0.46506782927E+02  0.00000000000E+00 0. -1.
         -5    1    5    5    0  502  0.39422294277E+02  0.14572913617E+02  0.11205173766E+03  0.11976714495E+03  0.47000000000E+01 0.  1.
         13    1    6    6    0    0 -0.16849232545E+02  0.37283348063E+02  0.21349269217E+02  0.46149062572E+02  0.00000000000E+00 0. -1.
        -14    1    6    6    0    0 -0.71183237176E+02 -0.29496514718E+02  0.41672414762E+02  0.87599587827E+02  0.00000000000E+00 0.  1.
</event>
<event>
12    1  0.8052519E-002  0.1919690E+03  0.7818608E-02  0.1157939E+00
         21   -1    0    0  503  502  0.00000000000E+00  0.00000000000E+00  0.31074134061E+03  0.31074134061E+03  0.00000000000E+00 0. -1.
         21   -1    0    0  501  503 -0.00000000000E+00 -0.00000000000E+00 -0.26762712107E+03  0.26762712107E+03  0.00000000000E+00 0. -1.
          6    2    1    2  501    0  0.41365302086E+02  0.58472505195E+02 -0.19652470090E+03  0.27472538611E+03  0.17810659064E+03 0.  0.
         24    2    3    3    0    0  0.52723954108E+02  0.95650512564E+02 -0.19269470246E+03  0.23538098250E+03  0.79650001091E+02 0.  0.
         -6    2    1    2    0  502 -0.41365302086E+02 -0.58472505195E+02  0.23963892044E+03  0.30364307557E+03  0.17216905375E+03 0.  0.
        -24    2    5    5    0    0 -0.47935085393E+02  0.29345134923E+02  0.11894444165E+03  0.15416281875E+03  0.80370922165E+02 0.  0.
          5    1    3    3  501    0 -0.11358652022E+02 -0.37178007370E+02 -0.38299984366E+01  0.39344403614E+02  0.47000000000E+01 0. -1.
        -11    1    4    4    0    0 -0.19897403523E+02  0.85359555624E+01 -0.34516516657E+02  0.40745050330E+02  0.00000000000E+00 0.  1.
         12    1    4    4    0    0  0.72621357630E+02  0.87114557002E+02 -0.15817818581E+03  0.19463593217E+03  0.00000000000E+00 0. -1.
         -5    1    5    5    0  502  0.65697833074E+01 -0.87817640118E+02  0.12069447879E+03  0.14948025682E+03  0.47000000000E+01 0.  1.
         11    1    6    6    0    0 -0.52482365274E+02  0.17138442800E+02  0.27288033782E+02  0.61585401468E+02  0.00000000000E+00 0. -1.
        -12    1    6    6    0    0  0.45472798808E+01  0.12206692123E+02  0.91656407868E+02  0.92577417280E+02  0.00000000000E+00 0.  1.
</event>
<event>
12    1  0.8052519E-002  0.2556194E+03  0.7818608E-02  0.1109893E+00
         21   -1    0    0  501  502  0.00000000000E+00  0.00000000000E+00  0.41094478832E+03  0.41094478832E+03  0.00000000000E+00 0.  1.
         21   -1    0    0  502  503 -0.00000000000E+00 -0.00000000000E+00 -0.24995191439E+03  0.24995191439E+03  0.00000000000E+00 0.  1.
         -6    2    1    2    0  503 -0.16816412232E+03 -0.87609232396E+02 -0.11917122702E+03  0.28203379381E+03  0.17142558113E+03 0.  0.
        -24    2    3    3    0    0 -0.19004861096E+03 -0.73999622210E+02 -0.12943776188E+03  0.25389762366E+03  0.78201345776E+02 0.  0.
          6    2    1    2  501    0  0.16816412232E+03  0.87609232396E+02  0.28016410095E+03  0.37886290890E+03  0.17055975681E+03 0.  0.
         24    2    5    5    0    0  0.86322884814E+02  0.88320883248E+02  0.87272679902E+02  0.16927358446E+03  0.76057917929E+02 0.  0.
          5    1    5    5  501    0  0.81841237503E+02 -0.71165085170E+00  0.19289142105E+03  0.20958932444E+03  0.47000000000E+01 0. -1.
        -11    1    6    6    0    0  0.94449368587E+02  0.66364882976E+02  0.51222051835E+02  0.12628808144E+03  0.00000000000E+00 0.  1.
         12    1    6    6    0    0 -0.81264837730E+01  0.21956000272E+02  0.36050628067E+02  0.42985503027E+02  0.00000000000E+00 0. -1.
         -5    1    3    3    0  503  0.21884488647E+02 -0.13609610186E+02  0.10266534864E+02  0.28136170152E+02  0.47000000000E+01 0.  1.
         13    1    4    4    0    0 -0.26472372258E+02 -0.93641661687E+01  0.96215975784E+01  0.29682473633E+02  0.00000000000E+00 0. -1.
        -14    1    4    4    0    0 -0.16357623870E+03 -0.64635456042E+02 -0.13905935946E+03  0.22421515002E+03  0.00000000000E+00 0.  1.
</event>
<event>
12    1  0.8052519E-002  0.2573062E+03  0.7818608E-02  0.1109149E+00
         21   -1    0    0  503  502  0.00000000000E+00  0.00000000000E+00  0.25737088683E+03  0.25737088683E+03  0.00000000000E+00 0.  1.
         21   -1    0    0  501  503 -0.00000000000E+00 -0.00000000000E+00 -0.79267060198E+03  0.79267060198E+03  0.00000000000E+00 0.  1.
          6    2    1    2  501    0 -0.18645693658E+03 -0.21027485115E+02 -0.70054862693E+03  0.74630747169E+03  0.17606282766E+03 0.  0.
         24    2    3    3    0    0 -0.20151795766E+03  0.92799086831E+01 -0.64679487254E+03  0.68261344853E+03  0.83198010892E+02 0.  0.
         -6    2    1    2    0  502  0.18645693658E+03  0.21027485115E+02  0.16524891177E+03  0.30373401712E+03  0.17244943022E+03 0.  0.
        -24    2    5    5    0    0  0.11867337384E+03 -0.35537974007E+02  0.46105619261E+02  0.15537136450E+03  0.81659142302E+02 0.  0.
          5    1    3    3  501    0  0.15061021078E+02 -0.30307393799E+02 -0.53753754393E+02  0.63694023158E+02  0.47000000000E+01 0. -1.
        -13    1    4    4    0    0 -0.80701569812E+02 -0.35249850923E+02 -0.22569607498E+03  0.24226847427E+03  0.00000000000E+00 0.  1.
         14    1    4    4    0    0 -0.12081638784E+03  0.44529759606E+02 -0.42109879755E+03  0.44034497427E+03  0.00000000000E+00 0. -1.
         -5    1    5    5    0  502  0.67783562734E+02  0.56565459123E+02  0.11914329251E+03  0.14836265262E+03  0.47000000000E+01 0.  1.
         13    1    6    6    0    0 -0.10685828610E+02 -0.11084596523E+02  0.11591335728E+02  0.19272111382E+02  0.00000000000E+00 0. -1.
        -14    1    6    6    0    0  0.12935920245E+03 -0.24453377485E+02  0.34514283532E+02  0.13609925311E+03  0.00000000000E+00 0.  1.
</event>
<event>
12    1  0.8052519E-002  0.2271569E+03  0.7818608E-02  0.1129057E+00
         21   -1    0    0  501  502  0.00000000000E+00  0.00000000000E+00  0.68893345709E+03  0.68893345709E+03  0.00000000000E+00 0. -1.
         21   -1    0    0  502  503 -0.00000000000E+00 -0.00000000000E+00 -0.74202623384E+02  0.74202623384E+02  0.00000000000E+00 0.  1.
         -6    2    1    2    0  503  0.94829284811E+02 -0.11527241157E+03  0.29741757775E+03  0.37289519518E+03  0.16826553097E+03 0.  0.
        -24    2    3    3    0    0  0.76444843764E+02 -0.34405093361E+02  0.25426338719E+03  0.27929025413E+03  0.79533963803E+02 0.  0.
          6    2    1    2  501    0 -0.94829284811E+02  0.11527241157E+03  0.31731325596E+03  0.39024088529E+03  0.17123061647E+03 0.  0.
         24    2    5    5    0    0  0.12744459324E+02  0.18612337028E+02  0.11262012635E+03  0.13956849402E+03  0.79292063472E+02 0.  0.
          5    1    5    5  501    0 -0.10757374413E+03  0.96660074542E+02  0.20469312961E+03  0.25067239127E+03  0.47000000000E+01 0. -1.
        -11    1    6    6    0    0  0.18854058555E+02  0.19578347440E+02  0.40564905545E+00  0.27183667222E+02  0.00000000000E+00 0.  1.
         12    1    6    6    0    0 -0.61095992306E+01 -0.96601041182E+00  0.11221447730E+03  0.11238482680E+03  0.00000000000E+00 0. -1.
         -5    1    3    3    0  503  0.18384441046E+02 -0.80867318210E+02  0.43154190553E+02  0.93604941052E+02  0.47000000000E+01 0.  1.
         13    1    4    4    0    0  0.67497701392E+02 -0.10911835003E+02  0.89545419754E+02  0.11266494590E+03  0.00000000000E+00 0. -1.
        -14    1    4    4    0    0  0.89471423726E+01 -0.23493258358E+02  0.16471796744E+03  0.16662530823E+03  0.00000000000E+00 0.  1.
</event>
<event>
12    1  0.8052519E-002  0.1841369E+03  0.7818608E-02  0.1164365E+00
         21   -1    0    0  503  502  0.00000000000E+00  0.00000000000E+00  0.18510453303E+03  0.18510453303E+03  0.00000000000E+00 0.  1.
         21   -1    0    0  501  503 -0.00000000000E+00 -0.00000000000E+00 -0.30546313460E+03  0.30546313460E+03  0.00000000000E+00 0.  1.
          6    2    1    2  501    0  0.65675211085E+02 -0.74118293547E+00 -0.21650916529E+03  0.28283872394E+03  0.16972843723E+03 0.  0.
         24    2    3    3    0    0  0.74045595227E+02 -0.48762424100E+02 -0.19609580795E+03  0.22978311075E+03  0.80536872988E+02 0.  0.
         -6    2    1    2    0  502 -0.65675211085E+02  0.74118293547E+00  0.96150563712E+02  0.20772894369E+03  0.17202499946E+03 0.  0.
        -24    2    5    5    0    0 -0.72961036534E+02  0.89526849084E+01 -0.10392119294E+01  0.10980828955E+03  0.81567867901E+02 0.  0.
          5    1    3    3  501    0 -0.83703841420E+01  0.48021241165E+02 -0.20413357334E+02  0.53055613194E+02  0.47000000000E+01 0. -1.
        -13    1    4    4    0    0  0.46584096238E+02 -0.66786102138E+02 -0.10452386625E+03  0.13249792480E+03  0.00000000000E+00 0.  1.
         14    1    4    4    0    0  0.27461498989E+02  0.18023678038E+02 -0.91571941706E+02  0.97285185946E+02  0.00000000000E+00 0. -1.
         -5    1    5    5    0  502  0.72858254486E+01 -0.82115019729E+01  0.97189775641E+02  0.97920654135E+02  0.47000000000E+01 0.  1.
         13    1    6    6    0    0 -0.10162463917E+02  0.49279849941E+01 -0.36063374813E+02  0.37790577024E+02  0.00000000000E+00 0. -1.
        -14    1    6    6    0    0 -0.62798572618E+02  0.40246999143E+01  0.35024162883E+02  0.72017712529E+02  0.00000000000E+00 0.  1.
</event>
<event>
12    1  0.8052519E-002  0.1968823E+03  0.7818608E-02  0.1152901E+00
         21   -1    0    0  503  502  0.00000000000E+00  0.00000000000E+00  0.50906794148E+03  0.50906794148E+03  0.00000000000E+00 0.  1.
         21   -1    0    0  501  503 -0.00000000000E+00 -0.00000000000E+00 -0.10553652884E+03  0.10553652884E+03  0.00000000000E+00 0.  1.
          6    2    1    2  501    0 -0.83879381807E+02 -0.48028701553E+02  0.36280555772E+02  0.19790814803E+03  0.16884563797E+03 0.  0.
         24    2    3    3    0    0 -0.89755978641E+02 -0.69088591748E+02 -0.16876495499E+02  0.14023826451E+03  0.80948042100E+02 0.  0.
         -6    2    1    2    0  502  0.83879381807E+02  0.48028701553E+02  0.36725085687E+03  0.41669632229E+03  0.17152296136E+03 0.  0.
        -24    2    5    5    0    0  0.56472077652E+02  0.45298923950E+01  0.81198222985E+02  0.12602209558E+03  0.77966670314E+02 0.  0.
          5    1    3    3  501    0  0.58765968338E+01  0.21059890195E+02  0.53157051271E+02  0.57669883519E+02  0.47000000000E+01 0. -1.
        -13    1    4    4    0    0 -0.60923234537E+02 -0.46262567695E+02 -0.49469259464E+02  0.91099249767E+02  0.00000000000E+00 0.  1.
         14    1    4    4    0    0 -0.28832744104E+02 -0.22826024053E+02  0.32592763965E+02  0.49139014739E+02  0.00000000000E+00 0. -1.
         -5    1    5    5    0  502  0.27407304155E+02  0.43498809158E+02  0.28605263389E+03  0.29067422671E+03  0.47000000000E+01 0.  1.
         13    1    6    6    0    0  0.45656754743E+01  0.32553030043E+02  0.48463969948E+02  0.58560238563E+02  0.00000000000E+00 0. -1.
        -14    1    6    6    0    0  0.51906402178E+02 -0.28023137648E+02  0.32734253037E+02  0.67461857020E+02  0.00000000000E+00 0.  1.
</event>
<event>
12    1  0.8052519E-002  0.2212635E+03  0.7818608E-02  0.1133467E+00
         21   -1    0    0  501  502  0.00000000000E+00  0.00000000000E+00  0.30419017032E+03  0.30419017032E+03  0.00000000000E+00 0. -1.
         21   -1    0    0  502  503 -0.00000000000E+00 -0.00000000000E+00 -0.22402591893E+03  0.22402591893E+03  0.00000000000E+00 0. -1.
         -6    2    1    2    0  503 -0.18338299538E+02  0.13701431140E+03 -0.10248755307E+03  0.24130285594E+03  0.16915719019E+03 0.  0.
        -24    2    3    3    0    0 -0.69130510843E+02  0.54592825130E+02 -0.56275786907E+02  0.13392144479E+03  0.83717292708E+02 0.  0.
          6    2    1    2  501    0  0.18338299538E+02 -0.13701431140E+03  0.18265180446E+03  0.28691323331E+03  0.17276662587E+03 0.  0.
         24    2    5    5    0    0  0.53947618362E+00 -0.10164737181E+03  0.34319720178E+02  0.13331598152E+03  0.79138034501E+02 0.  0.
          5    1    5    5  501    0  0.17798823354E+02 -0.35366939592E+02  0.14833208428E+03  0.15359725179E+03  0.47000000000E+01 0. -1.
        -11    1    6    6    0    0  0.19915205944E+02 -0.55362597749E+01 -0.13031938216E+02  0.24435568619E+02  0.00000000000E+00 0.  1.
         12    1    6    6    0    0 -0.19375729761E+02 -0.96111112037E+02  0.47351658394E+02  0.10888041290E+03  0.00000000000E+00 0. -1.
         -5    1    3    3    0  503  0.50792211305E+02  0.82421486273E+02 -0.46211766163E+02  0.10738141115E+03  0.47000000000E+01 0.  1.
         11    1    4    4    0    0 -0.42488663454E+02  0.44728772385E+02 -0.77066070168E+02  0.98717418789E+02  0.00000000000E+00 0. -1.
        -12    1    4    4    0    0 -0.26641847389E+02  0.98640527450E+01  0.20790283261E+02  0.35204026004E+02  0.00000000000E+00 0.  1.
</event>
<event>
12    1  0.8052519E-002  0.2651455E+03  0.7818608E-02  0.1104124E+00
         21   -1    0    0  503  502  0.00000000000E+00  0.00000000000E+00  0.61512729667E+03  0.61512729667E+03  0.00000000000E+00 0. -1.
         21   -1    0    0  501  503 -0.00000000000E+00 -0.00000000000E+00 -0.29537532716E+03  0.29537532716E+03  0.00000000000E+00 0. -1.
          6    2    1    2  501    0 -0.10449885045E+03 -0.17191635019E+03 -0.19670279845E+03  0.32996178086E+03  0.17235876741E+03 0.  0.
         24    2    3    3    0    0 -0.78113653693E+02 -0.19502363810E+03 -0.18892904282E+03  0.29373131524E+03  0.80299066124E+02 0.  0.
         -6    2    1    2    0  502  0.10449885045E+03  0.17191635019E+03  0.51645476796E+03  0.58054084297E+03  0.17270466642E+03 0.  0.
        -24    2    5    5    0    0  0.81774596754E+02  0.70594868574E+02  0.41020014154E+03  0.43189841976E+03  0.81248807531E+02 0.  0.
          5    1    3    3  501    0 -0.26385196754E+02  0.23107287908E+02 -0.77737556211E+01  0.36230465615E+02  0.47000000000E+01 0. -1.
        -13    1    4    4    0    0 -0.81707145077E+01  0.71985784417E+01 -0.79485673024E+01  0.13481833307E+02  0.00000000000E+00 0.  1.
         14    1    4    4    0    0 -0.69942939185E+02 -0.20222221654E+03 -0.18098047552E+03  0.28024948194E+03  0.00000000000E+00 0. -1.
         -5    1    5    5    0  502  0.22724253693E+02  0.10132148162E+03  0.10625462641E+03  0.14864242321E+03  0.47000000000E+01 0.  1.
         13    1    6    6    0    0  0.41937645983E+02 -0.11790005184E+02  0.12463979484E+03  0.13203351405E+03  0.00000000000E+00 0. -1.
        -14    1    6    6    0    0  0.39836950771E+02  0.82384873758E+02  0.28556034670E+03  0.29986490571E+03  0.00000000000E+00 0.  1.
</event>
<event>
12    1  0.8052519E-002  0.2594353E+03  0.7818608E-02  0.1107681E+00
         21   -1    0    0  503  502  0.00000000000E+00  0.00000000000E+00  0.28585145123E+03  0.28585145123E+03  0.00000000000E+00 0.  1.
         21   -1    0    0  501  503 -0.00000000000E+00 -0.00000000000E+00 -0.23860041021E+03  0.23860041021E+03  0.00000000000E+00 0.  1.
          6    2    1    2  501    0 -0.18553309299E+03 -0.52693848422E+02 -0.11623498538E+02  0.25969557284E+03  0.17351517103E+03 0.  0.
         24    2    3    3    0    0 -0.15001309308E+03 -0.80005876069E+02  0.39120915535E+02  0.19183761231E+03  0.79789442678E+02 0.  0.
         -6    2    1    2    0  502  0.18553309299E+03  0.52693848422E+02  0.58874539554E+02  0.26475628860E+03  0.17155322990E+03 0.  0.
        -24    2    5    5    0    0  0.17960769047E+03  0.91964873076E+02  0.58061922743E+02  0.22475536213E+03  0.80170602949E+02 0.  0.
          5    1    3    3  501    0 -0.35519999907E+02  0.27312027647E+02 -0.50744414073E+02  0.67857960530E+02  0.47000000000E+01 0. -1.
        -11    1    4    4    0    0 -0.44740085346E+02  0.96094780049E+01 -0.65752401442E+01  0.46230413012E+02  0.00000000000E+00 0.  1.
         12    1    4    4    0    0 -0.10527300774E+03 -0.89615354074E+02  0.45696155679E+02  0.14560719930E+03  0.00000000000E+00 0. -1.
         -5    1    5    5    0  502  0.59254025210E+01 -0.39271024654E+02  0.81261681106E+00  0.40000926470E+02  0.47000000000E+01 0.  1.
         13    1    6    6    0    0 -0.65979297967E+01  0.29731526969E+01  0.10855839017E+02  0.13046898303E+02  0.00000000000E+00 0. -1.
        -14    1    6    6    0    0  0.18620562027E+03  0.88991720379E+02  0.47206083726E+02  0.21170846383E+03  0.00000000000E+00 0.  1.
</event>
<event>
12    1  0.8052519E-002  0.2130018E+03  0.7818608E-02  0.1141953E+00
         21   -1    0    0  501  502  0.00000000000E+00  0.00000000000E+00  0.98149737149E+02  0.98149737149E+02  0.00000000000E+00 0.  1.
         21   -1    0    0  502  503 -0.00000000000E+00 -0.00000000000E+00 -0.44178006977E+03  0.44178006977E+03  0.00000000000E+00 0.  1.
         -6    2    1    2    0  503  0.10298035460E+03 -0.59476980142E+01 -0.12857298169E+03  0.23724280221E+03  0.17062475505E+03 0.  0.
        -24    2    3    3    0    0  0.10458463348E+03 -0.39114435116E+02 -0.14706013642E+03  0.19894827192E+03  0.74066501065E+02 0.  0.
          6    2    1    2  501    0 -0.10298035460E+03  0.59476980142E+01 -0.21505735093E+03  0.30268700471E+03  0.18635833784E+03 0.  0.
         24    2    5    5    0    0 -0.82234938377E+02 -0.40949717281E+01 -0.35082666376E+02  0.12118162024E+03  0.81699680052E+02 0.  0.
          5    1    5    5  501    0 -0.20745416226E+02  0.10042669742E+02 -0.17997468456E+03  0.18150538447E+03  0.47000000000E+01 0. -1.
        -13    1    6    6    0    0 -0.55329915731E+02 -0.39388352153E+02 -0.61314408278E+01  0.68194108446E+02  0.00000000000E+00 0.  1.
         14    1    6    6    0    0 -0.26905022646E+02  0.35293380425E+02 -0.28951225548E+02  0.52987511794E+02  0.00000000000E+00 0. -1.
         -5    1    3    3    0  503 -0.16042788730E+01  0.33166737102E+02  0.18487154730E+02  0.38294530297E+02  0.47000000000E+01 0.  1.
         11    1    4    4    0    0  0.18840554800E+02 -0.79097507038E+01 -0.87803292139E+02  0.90149591080E+02  0.00000000000E+00 0. -1.
        -12    1    4    4    0    0  0.85744078676E+02 -0.31204684412E+02 -0.59256844283E+02  0.10879868084E+03  0.00000000000E+00 0.  1.
</event>
<event>
12    1  0.8052519E-002  0.1879840E+03  0.7818608E-02  0.1160538E+00
         21   -1    0    0  501  502  0.00000000000E+00  0.00000000000E+00  0.23803304363E+02  0.23803304363E+02  0.00000000000E+00 0.  1.
         21   -1    0    0  502  503 -0.00000000000E+00 -0.00000000000E+00 -0.14988737587E+04  0.14988737587E+04  0.00000000000E+00 0. -1.
         -6    2    1    2    0  503 -0.23220386089E+02  0.68852932725E+02 -0.82925143269E+03  0.85005519435E+03  0.17220912331E+03 0.  0.
        -24    2    3    3    0    0  0.94776153404E+01 -0.28521533247E+01 -0.63721482559E+03  0.64242348403E+03  0.81038502671E+02 0.  0.
          6    2    1    2  501    0  0.23220386089E+02 -0.68852932725E+02 -0.64581902162E+03  0.67262186868E+03  0.17337259550E+03 0.  0.
         24    2    5    5    0    0  0.48222832851E+02 -0.10282653460E+03 -0.39778300658E+03  0.42098069017E+03  0.78068452936E+02 0.  0.
          5    1    5    5  501    0 -0.25002446762E+02  0.33973601875E+02 -0.24803601503E+03  0.25164117851E+03  0.47000000000E+01 0. -1.
        -11    1    6    6    0    0  0.13056886601E+02 -0.74619520560E+02 -0.13901568921E+03  0.15831587723E+03  0.00000000000E+00 0.  1.
         12    1    6    6    0    0  0.35165946250E+02 -0.28207014040E+02 -0.25876731737E+03  0.26266481294E+03  0.00000000000E+00 0. -1.
         -5    1    3    3    0  503 -0.32698001429E+02  0.71705086050E+02 -0.19203660710E+03  0.20763171032E+03  0.47000000000E+01 0.  1.
         11    1    4    4    0    0 -0.16040514573E+02  0.25071204102E+02 -0.11327673666E+03  0.11712165662E+03  0.00000000000E+00 0. -1.
        -12    1    4    4    0    0  0.25518129913E+02 -0.27923357427E+02 -0.52393808893E+03  0.52530182741E+03  0.00000000000E+00 0.  1.
</event>
<event>
12    1  0.8052519E-002  0.2014356E+03  0.7818608E-02  0.1148581E+00
         21   -1    0    0  503  502  0.00000000000E+00  0.00000000000E+00  0.66162167532E+02  0.66162167532E+02  0.00000000000E+00 0. -1.
         21   -1    0    0  501  503 -0.00000000000E+00 -0.00000000000E+00 -0.74569859447E+03  0.74569859447E+03  0.00000000000E+00 0. -1.
          6    2    1    2  501    0 -0.25881247371E+02 -0.10223343769E+03 -0.51142892428E+03  0.54966884587E+03  0.17162395165E+03 0.  0.
         24    2    3    3    0    0  0.52096112219E+02 -0.27816959738E+02 -0.25663479163E+03  0.27297330772E+03  0.71869480967E+02 0.  0.
         -6    2    1    2    0  502  0.25881247371E+02  0.10223343769E+03 -0.16810750265E+03  0.26219191613E+03  0.17135621870E+03 0.  0.
        -24    2    5    5    0    0 -0.37271351745E+02  0.68797622917E+02 -0.13792729514E+03  0.18448001607E+03  0.94269141324E+02 0.  0.
          5    1    3    3  501    0 -0.77977359589E+02 -0.74416477953E+02 -0.25479413265E+03  0.27669553815E+03  0.47000000000E+01 0. -1.
        -11    1    4    4    0    0  0.39358993174E+02  0.86657087334E+01 -0.58078967612E+02  0.70692229632E+02  0.00000000000E+00 0.  1.
         12    1    4    4    0    0  0.12737119045E+02 -0.36482668471E+02 -0.19855582402E+03  0.20228107809E+03  0.00000000000E+00 0. -1.
         -5    1    5    5    0  502  0.63152599116E+02  0.33435814774E+02 -0.30180207518E+02  0.77711900058E+02  0.47000000000E+01 0.  1.
         11    1    6    6    0    0 -0.97088605957E+01  0.63296749902E+02 -0.26060948308E+02  0.69136918856E+02  0.00000000000E+00 0. -1.
        -12    1    6    6    0    0 -0.27562491150E+02  0.55008730145E+01 -0.11186634683E+03  0.11534309721E+03  0.00000000000E+00 0.  1.
</event>
<event>
12    1  0.8052519E-002  0.1894746E+03  0.7818608E-02  0.1159064E+00
         21   -1    0    0  503  502  0.00000000000E+00  0.00000000000E+00  0.78099809628E+03  0.78099809628E+03  0.00000000000E+00 0. -1.
         21   -1    0    0  501  503 -0.00000000000E+00 -0.00000000000E+00 -0.55343282683E+02  0.55343282683E+02  0.00000000000E+00 0.  1.
          6    2    1    2  501    0 -0.52891864574E+00 -0.78258832543E+02  0.18991025057E+03  0.26826574497E+03  0.17255689504E+03 0.  0.
         24    2    3    3    0    0  0.76939082756E+01 -0.87888573822E+01  0.74799728927E+02  0.13348364480E+03  0.10993836339E+03 0.  0.
         -6    2    1    2    0  502  0.52891864574E+00  0.78258832543E+02  0.53574456303E+03  0.56807563400E+03  0.17193883942E+03 0.  0.
        -24    2    5    5    0    0 -0.54422194525E+02  0.13735422516E+02  0.21423449837E+03  0.23554938397E+03  0.80228766089E+02 0.  0.
          5    1    3    3  501    0 -0.82228269213E+01 -0.69469975160E+02  0.11511052164E+03  0.13478210016E+03  0.47000000000E+01 0. -1.
        -13    1    4    4    0    0 -0.19399015275E+02 -0.54109647528E+02  0.43668229684E+02  0.72187880098E+02  0.00000000000E+00 0.  1.
         14    1    4    4    0    0  0.27092923550E+02  0.45320790146E+02  0.31131499243E+02  0.61295764707E+02  0.00000000000E+00 0. -1.
         -5    1    5    5    0  502  0.54951113171E+02  0.64523410027E+02  0.32151006466E+03  0.33252625002E+03  0.47000000000E+01 0.  1.
         11    1    6    6    0    0 -0.30461802149E+02  0.31791867472E+02  0.19500415390E+03  0.19991314181E+03  0.00000000000E+00 0. -1.
        -12    1    6    6    0    0 -0.23960392376E+02 -0.18056444956E+02  0.19230344469E+02  0.35636242165E+02  0.00000000000E+00 0.  1.
</event>
<event>
12    1  0.8052519E-002  0.1880585E+03  0.7818608E-02  0.1160390E+00
         21   -1    0    0  501  502  0.00000000000E+00  0.00000000000E+00  0.16276874491E+03  0.16276874491E+03  0.00000000000E+00 0. -1.
         21   -1    0    0  502  503 -0.00000000000E+00 -0.00000000000E+00 -0.22759722188E+03  0.22759722188E+03  0.00000000000E+00 0. -1.
         -6    2    1    2    0  503 -0.61982799347E+02 -0.42638023223E+02 -0.75688945006E+02  0.20271854652E+03  0.17235464679E+03 0.  0.
        -24    2    3    3    0    0 -0.77831430633E+02  0.24807909631E+02 -0.27639416012E+02  0.11827341517E+03  0.80941333348E+02 0.  0.
          6    2    1    2  501    0  0.61982799347E+02  0.42638023223E+02  0.10860468042E+02  0.18764742026E+03  0.17156263033E+03 0.  0.
         24    2    5    5    0    0  0.48505119061E+02 -0.34292984436E+02  0.34915304352E+02  0.10578929327E+03  0.80271668325E+02 0.  0.
          5    1    5    5  501    0  0.13477680286E+02  0.76931007659E+02 -0.24054836310E+02  0.81858126996E+02  0.47000000000E+01 0. -1.
        -13    1    6    6    0    0  0.17662491209E+02 -0.54202150594E+02  0.29021959215E+01  0.57081165597E+02  0.00000000000E+00 0.  1.
         14    1    6    6    0    0  0.30842627852E+02  0.19909166158E+02  0.32013108430E+02  0.48708127672E+02  0.00000000000E+00 0. -1.
         -5    1    3    3    0  503  0.15848631286E+02 -0.67445932854E+02 -0.48049528994E+02  0.84445131350E+02  0.47000000000E+01 0.  1.
         11    1    4    4    0    0 -0.27513322877E+02 -0.27805383170E+02  0.31187749193E+01  0.39240910106E+02  0.00000000000E+00 0. -1.
        -12    1    4    4    0    0 -0.50318107756E+02  0.52613292801E+02 -0.30758190931E+02  0.79032505066E+02  0.00000000000E+00 0.  1.
</event>
<event>
12    1  0.8052519E-002  0.2384666E+03  0.7818608E-02  0.1121068E+00
         21   -1    0    0  503  502  0.00000000000E+00  0.00000000000E+00  0.27764798514E+03  0.27764798514E+03  0.00000000000E+00 0.  1.
         21   -1    0    0  501  503 -0.00000000000E+00 -0.00000000000E+00 -0.30450799696E+03  0.30450799696E+03  0.00000000000E+00 0.  1.
          6    2    1    2  501    0 -0.15375586501E+03 -0.53862705031E+02 -0.18101021205E+03  0.29820419505E+03  0.17210167942E+03 0.  0.
         24    2    3    3    0    0 -0.16941750459E+03 -0.76252617323E+02 -0.17982100029E+03  0.27045353107E+03  0.79326967757E+02 0.  0.
         -6    2    1    2    0  502  0.15375586501E+03  0.53862705031E+02  0.15415020023E+03  0.28395178704E+03  0.17413866922E+03 0.  0.
        -24    2    5    5    0    0  0.13896675466E+03  0.91445286414E+02  0.15963630706E+03  0.24292307056E+03  0.76510576850E+02 0.  0.
          5    1    3    3  501    0  0.15661639578E+02  0.22389912292E+02 -0.11892117627E+01  0.27750663980E+02  0.47000000000E+01 0. -1.
        -13    1    4    4    0    0 -0.67709700247E+02 -0.14492132397E+02 -0.21703882434E+02  0.72565032362E+02  0.00000000000E+00 0.  1.
         14    1    4    4    0    0 -0.10170780434E+03 -0.61760484926E+02 -0.15811711785E+03  0.19788849871E+03  0.00000000000E+00 0. -1.
         -5    1    5    5    0  502  0.14789110354E+02 -0.37582581383E+02 -0.54861068316E+01  0.41028716488E+02  0.47000000000E+01 0.  1.
         11    1    6    6    0    0  0.15597578431E+02 -0.89016009916E+01  0.40234761874E+02  0.44060855827E+02  0.00000000000E+00 0. -1.
        -12    1    6    6    0    0  0.12336917623E+03  0.10034688741E+03  0.11940154519E+03  0.19886221473E+03  0.00000000000E+00 0.  1.
</event>
<event>
12    1  0.8052519E-002  0.2039899E+03  0.7818608E-02  0.1146683E+00
         21   -1    0    0  501  502  0.00000000000E+00  0.00000000000E+00  0.84622222655E+02  0.84622222655E+02  0.00000000000E+00 0. -1.
         21   -1    0    0  502  503 -0.00000000000E+00 -0.00000000000E+00 -0.57628558313E+03  0.57628558313E+03  0.00000000000E+00 0. -1.
         -6    2    1    2    0  503 -0.10347357087E+03  0.31627114041E+02 -0.37538779002E+03  0.42723282916E+03  0.17293016858E+03 0.  0.
        -24    2    3    3    0    0  0.20452708305E+02  0.34029574770E+02 -0.12082220705E+03  0.14405581646E+03  0.67659051900E+02 0.  0.
          6    2    1    2  501    0  0.10347357087E+03 -0.31627114041E+02 -0.11627557045E+03  0.23367497662E+03  0.17139700173E+03 0.  0.
         24    2    5    5    0    0  0.11790725117E+03  0.23020697778E+02 -0.98460106560E+02  0.17422587892E+03  0.78918894424E+02 0.  0.
          5    1    5    5  501    0 -0.14433680301E+02 -0.54647811819E+02 -0.17815463895E+02  0.59449097701E+02  0.47000000000E+01 0. -1.
        -13    1    6    6    0    0  0.24244585341E+02  0.27142625847E+02  0.24608730516E+01  0.36477088047E+02  0.00000000000E+00 0.  1.
         14    1    6    6    0    0  0.93662665833E+02 -0.41219280692E+01 -0.10092097961E+03  0.13774879088E+03  0.00000000000E+00 0. -1.
         -5    1    3    3    0  503 -0.12392627918E+03 -0.24024607289E+01 -0.25456558297E+03  0.28317701270E+03  0.47000000000E+01 0.  1.
         13    1    4    4    0    0  0.82966208262E+01  0.12543330448E+02  0.49894925609E+01  0.15845002110E+02  0.00000000000E+00 0. -1.
        -14    1    4    4    0    0  0.12156087479E+02  0.21486244322E+02 -0.12581169961E+03  0.12821081435E+03  0.00000000000E+00 0.  1.
</event>
<event>
12    1  0.8052519E-002  0.1842436E+03  0.7818608E-02  0.1164253E+00
         21   -1    0    0  503  502  0.00000000000E+00  0.00000000000E+00  0.53108817977E+03  0.53108817977E+03  0.00000000000E+00 0.  1.
         21   -1    0    0  501  503 -0.00000000000E+00 -0.00000000000E+00 -0.63720298499E+02  0.63720298499E+02  0.00000000000E+00 0.  1.
          6    2    1    2  501    0  0.50459894212E+02 -0.32322425765E+02  0.26206344853E+03  0.32034819453E+03  0.17422621661E+03 0.  0.
         24    2    3    3    0    0  0.91111099966E+02 -0.45573478221E+02  0.13657003486E+03  0.18768773397E+03  0.78721894087E+02 0.  0.
         -6    2    1    2    0  502 -0.50459894212E+02  0.32322425765E+02  0.20530443275E+03  0.27446028374E+03  0.17201045641E+03 0.  0.
        -24    2    5    5    0    0  0.19977805666E+02 -0.53789425527E-01  0.16978897704E+03  0.18906048007E+03  0.80724548835E+02 0.  0.
          5    1    3    3  501    0 -0.40651205754E+02  0.13251052456E+02  0.12549341367E+03  0.13266046056E+03  0.47000000000E+01 0. -1.
        -13    1    4    4    0    0  0.51077981736E+01  0.12466687193E+02  0.52341687119E+02  0.54047757606E+02  0.00000000000E+00 0.  1.
         14    1    4    4    0    0  0.86003301793E+02 -0.58040165415E+02  0.84228347737E+02  0.13363997637E+03  0.00000000000E+00 0. -1.
         -5    1    5    5    0  502 -0.70437699878E+02  0.32376215190E+02  0.35515455702E+02  0.85399803676E+02  0.47000000000E+01 0.  1.
         11    1    6    6    0    0  0.43422327153E+02  0.19069554833E+02  0.68247487325E+02  0.83107556473E+02  0.00000000000E+00 0. -1.
        -12    1    6    6    0    0 -0.23444521487E+02 -0.19123344258E+02  0.10154148972E+03  0.10595292359E+03  0.00000000000E+00 0.  1.
</event>
<event>
12    1  0.8052519E-002  0.1816681E+03  0.7818608E-02  0.1166456E+00
         21   -1    0    0  501  502  0.00000000000E+00  0.00000000000E+00  0.69473576643E+02  0.69473576643E+02  0.00000000000E+00 0.  1.
         21   -1    0    0  502  503 -0.00000000000E+00 -0.00000000000E+00 -0.78625659329E+03  0.78625659329E+03  0.00000000000E+00 0.  1.
         -6    2    1    2    0  503  0.22757833221E+02  0.49332456917E+02 -0.62942112934E+03  0.65511391715E+03  0.17335419263E+03 0.  0.
        -24    2    3    3    0    0 -0.27033936611E+02 -0.93028074834E+01 -0.17705241278E+03  0.19622737311E+03  0.79625681357E+02 0.  0.
          6    2    1    2  501    0 -0.22757833221E+02 -0.49332456917E+02 -0.87361887303E+02  0.20061625278E+03  0.17222999521E+03 0.  0.
         24    2    5    5    0    0  0.15477505159E+02 -0.55704574243E+02  0.73072794705E+01  0.98210754307E+02  0.79053166734E+02 0.  0.
          5    1    5    5  501    0 -0.38235338380E+02  0.63721173262E+01 -0.94669166774E+02  0.10240549847E+03  0.47000000000E+01 0. -1.
        -13    1    6    6    0    0 -0.17749741265E+02  0.61847013230E+01 -0.15492779706E+02  0.24358367524E+02  0.00000000000E+00 0.  1.
         14    1    6    6    0    0  0.33227246424E+02 -0.61889275566E+02  0.22800059177E+02  0.73852386782E+02  0.00000000000E+00 0. -1.
         -5    1    3    3    0  503  0.49791769832E+02  0.58635264400E+02 -0.45236871657E+03  0.45888654404E+03  0.47000000000E+01 0.  1.
         13    1    4    4    0    0 -0.28493240551E+02 -0.42439188383E+02 -0.11553199629E+03  0.12633523513E+03  0.00000000000E+00 0. -1.
        -14    1    4    4    0    0  0.14593039400E+01  0.33136380900E+02 -0.61520416486E+02  0.69892137982E+02  0.00000000000E+00 0.  1.
</event>
<event>
12    1  0.8052519E-002  0.3891918E+03  0.7818608E-02  0.1047599E+00
         21   -1    0    0  503  502  0.00000000000E+00  0.00000000000E+00  0.11470692226E+03  0.11470692226E+03  0.00000000000E+00 0.  1.
         21   -1    0    0  501  503 -0.00000000000E+00 -0.00000000000E+00 -0.26430151116E+04  0.26430151116E+04  0.00000000000E+00 0.  1.
          6    2    1    2  501    0  0.97285711837E+02 -0.33502710856E+03 -0.22397755633E+04  0.22733378154E+04  0.17251833529E+03 0.  0.
         24    2    3    3    0    0  0.50340414248E+02 -0.17670543111E+03 -0.16031775017E+04  0.16156533953E+04  0.79992655943E+02 0.  0.
         -6    2    1    2    0  502 -0.97285711837E+02  0.33502710856E+03 -0.28853262605E+03  0.48438421842E+03  0.17224784923E+03 0.  0.
        -24    2    5    5    0    0 -0.35523077802E+02  0.59832833385E+02 -0.91380994024E+02  0.14023691266E+03  0.80461472751E+02 0.  0.
          5    1    3    3  501    0  0.46945297589E+02 -0.15832167744E+03 -0.63659806159E+03  0.65768442017E+03  0.47000000000E+01 0. -1.
        -11    1    4    4    0    0  0.22323878732E+02 -0.47176051358E+02 -0.21842481062E+03  0.22457367004E+03  0.00000000000E+00 0.  1.
         12    1    4    4    0    0  0.28016535516E+02 -0.12952937975E+03 -0.13847526911E+04  0.13910797252E+04  0.00000000000E+00 0. -1.
         -5    1    5    5    0  502 -0.61762634035E+02  0.27519427517E+03 -0.19715163203E+03  0.34414730576E+03  0.47000000000E+01 0.  1.
         13    1    6    6    0    0 -0.18888909738E+02  0.44513417977E+02 -0.10374727490E+03  0.11446279894E+03  0.00000000000E+00 0. -1.
        -14    1    6    6    0    0 -0.16634168064E+02  0.15319415407E+02  0.12366280878E+02  0.25774113726E+02  0.00000000000E+00 0.  1.
</event>
<event>
12    1  0.8052519E-002  0.3581548E+03  0.7818608E-02  0.1059325E+00
         21   -1    0    0  501  502  0.00000000000E+00  0.00000000000E+00  0.15067704934E+03  0.15067704934E+03  0.00000000000E+00 0.  1.
         21   -1    0    0  502  503 -0.00000000000E+00 -0.00000000000E+00 -0.88520006619E+03  0.88520006619E+03  0.00000000000E+00 0. -1.
         -6    2    1    2    0  503 -0.22267104704E+03 -0.22118660882E+03 -0.46892195106E+03  0.59005310681E+03  0.17253684116E+03 0.  0.
        -24    2    3    3    0    0 -0.32105420701E+02 -0.96981203310E+02 -0.18855010264E+03  0.22898150160E+03  0.80282470291E+02 0.  0.
          6    2    1    2  501    0  0.22267104704E+03  0.22118660882E+03 -0.26560106579E+03  0.44582400871E+03  0.17236359675E+03 0.  0.
         24    2    5    5    0    0  0.59248381997E+02  0.39807899690E+02 -0.49718247432E+02  0.11989044978E+03  0.82503188873E+02 0.  0.
          5    1    5    5  501    0  0.16342266505E+03  0.18137870913E+03 -0.21588281835E+03  0.32593355893E+03  0.47000000000E+01 0. -1.
        -11    1    6    6    0    0  0.11100138066E+02  0.53176658021E+02 -0.43384038782E+02  0.69520823099E+02  0.00000000000E+00 0.  1.
         12    1    6    6    0    0  0.48148243931E+02 -0.13368758330E+02 -0.63342086501E+01  0.50369626683E+02  0.00000000000E+00 0. -1.
         -5    1    3    3    0  503 -0.19056562634E+03 -0.12420540551E+03 -0.28037184843E+03  0.36107160522E+03  0.47000000000E+01 0.  1.
         13    1    4    4    0    0 -0.32164004977E+02 -0.26104341945E+01 -0.27874758745E+02  0.42641995238E+02  0.00000000000E+00 0. -1.
        -14    1    4    4    0    0  0.58584276338E-01 -0.94370769115E+02 -0.16067534389E+03  0.18633950636E+03  0.00000000000E+00 0.  1.
</event>
<event>
12    1  0.8052519E-002  0.1898115E+03  0.7818608E-02  0.1158832E+00
         21   -1    0    0  501  502  0.00000000000E+00  0.00000000000E+00  0.15456095229E+03  0.15456095229E+03  0.00000000000E+00 0. -1.
         21   -1    0    0  502  503 -0.00000000000E+00 -0.00000000000E+00 -0.33031349212E+03  0.33031349212E+03  0.00000000000E+00 0.  1.
         -6    2    1    2    0  503 -0.55827945292E+02 -0.50426744181E+02 -0.21998483854E+03  0.28997725775E+03  0.17330281251E+03 0.  0.
        -24    2    3    3    0    0  0.17448240060E+02 -0.69700616021E+02 -0.98933978162E+02  0.14709170119E+03  0.81764415060E+02 0.  0.
          6    2    1    2  501    0  0.55827945292E+02  0.50426744181E+02  0.44232298716E+02  0.19489718666E+03  0.17426646583E+03 0.  0.
         24    2    5    5    0    0  0.17195489160E+02  0.61970084248E+02 -0.31375578285E+02  0.10908135810E+03  0.82330672188E+02 0.  0.
          5    1    5    5  501    0  0.38632456132E+02 -0.11543340067E+02  0.75607877001E+02  0.85815828559E+02  0.47000000000E+01 0. -1.
        -11    1    6    6    0    0  0.81400773168E+00 -0.13068210014E+02  0.14564678015E+02  0.19584957678E+02  0.00000000000E+00 0.  1.
         12    1    6    6    0    0  0.16381481429E+02  0.75038294262E+02 -0.45940256300E+02  0.89496400422E+02  0.00000000000E+00 0. -1.
         -5    1    3    3    0  503 -0.73276185352E+02  0.19273871839E+02 -0.12105086038E+03  0.14288555656E+03  0.47000000000E+01 0.  1.
         13    1    4    4    0    0  0.30099514335E+02 -0.76277025637E+02 -0.10356687959E+03  0.13209944720E+03  0.00000000000E+00 0. -1.
        -14    1    4    4    0    0 -0.12651274275E+02  0.65764096159E+01  0.46329014233E+01  0.14992253994E+02  0.00000000000E+00 0.  1.
</event>
<event>
12    1  0.8052519E-002  0.2411507E+03  0.7818608E-02  0.1119315E+00
         21   -1    0    0  503  502  0.00000000000E+00  0.00000000000E+00  0.36145798975E+03  0.36145798975E+03  0.00000000000E+00 0.  1.
         21   -1    0    0  501  503 -0.00000000000E+00 -0.00000000000E+00 -0.16757932744E+03  0.16757932744E+03  0.00000000000E+00 0. -1.
          6    2    1    2  501    0  0.12926105038E+03 -0.10745565863E+03  0.40048557117E+02  0.24445357254E+03  0.17291189803E+03 0.  0.
         24    2    3    3    0    0  0.15470503655E+03 -0.94117095802E+02  0.62311666261E+02  0.20780592978E+03  0.80677658882E+02 0.  0.
         -6    2    1    2    0  502 -0.12926105038E+03  0.10745565863E+03  0.15383010519E+03  0.28458374465E+03  0.17049653587E+03 0.  0.
        -24    2    5    5    0    0 -0.10376575337E+03  0.14451417890E+03  0.13226431989E+03  0.23447868313E+03  0.76385358882E+02 0.  0.
          5    1    3    3  501    0 -0.25443986174E+02 -0.13338562829E+02 -0.22263109145E+02  0.36647642756E+02  0.47000000000E+01 0. -1.
        -13    1    4    4    0    0  0.70580657304E+02  0.15597759117E+01  0.27186858605E+02  0.75651750589E+02  0.00000000000E+00 0.  1.
         14    1    4    4    0    0  0.84124379250E+02 -0.95676871714E+02  0.35124807656E+02  0.13215417919E+03  0.00000000000E+00 0. -1.
         -5    1    5    5    0  502 -0.25495297011E+02 -0.37058520273E+02  0.21565785300E+02  0.50105061522E+02  0.47000000000E+01 0.  1.
         13    1    6    6    0    0 -0.93371556916E+02  0.67096559689E+02  0.87141927050E+02  0.14427027210E+03  0.00000000000E+00 0. -1.
        -14    1    6    6    0    0 -0.10394196453E+02  0.77417619215E+02  0.45122392838E+02  0.90208411028E+02  0.00000000000E+00 0.  1.
</event>
<event>
12    1  0.8052519E-002  0.2012660E+03  0.7818608E-02  0.1148821E+00
         21   -1    0    0  503  502  0.00000000000E+00  0.00000000000E+00  0.67246894309E+03  0.67246894309E+03  0.00000000000E+00 0.  1.
         21   -1    0    0  501  503 -0.00000000000E+00 -0.00000000000E+00 -0.71159216547E+02  0.71159216547E+02  0.00000000000E+00 0.  1.
          6    2    1    2  501    0  0.31609659778E+02 -0.97692074430E+02  0.15317067010E+03  0.25236792044E+03  0.17229451845E+03 0.  0.
         24    2    3    3    0    0 -0.28630402921E+02 -0.88624802234E+01  0.29686776076E+02  0.88691642236E+02  0.78017044302E+02 0.  0.
         -6    2    1    2    0  502 -0.31609659778E+02  0.97692074430E+02  0.44813905644E+03  0.49126023920E+03  0.17310429433E+03 0.  0.
        -24    2    5    5    0    0 -0.71673683994E+02  0.10775774917E+03  0.28539656618E+03  0.32329103970E+03  0.79479852052E+02 0.  0.
          5    1    3    3  501    0  0.60240062699E+02 -0.88829594207E+02  0.12348389403E+03  0.16367627820E+03  0.47000000000E+01 0. -1.
        -11    1    4    4    0    0 -0.43425572465E+02 -0.13259091102E+01  0.47477962621E+02  0.64356004487E+02  0.00000000000E+00 0.  1.
         12    1    4    4    0    0  0.14795169544E+02 -0.75365711132E+01 -0.17791186545E+02  0.24335637749E+02  0.00000000000E+00 0. -1.
         -5    1    5    5    0  502  0.40064024217E+02 -0.10065674737E+02  0.16274249026E+03  0.16796919950E+03  0.47000000000E+01 0.  1.
         13    1    6    6    0    0 -0.58624748943E+02  0.35045358597E+02  0.19459955684E+03  0.20623778963E+03  0.00000000000E+00 0. -1.
        -14    1    6    6    0    0 -0.13048935051E+02  0.72712390570E+02  0.90797009341E+02  0.11705325008E+03  0.00000000000E+00 0.  1.
</event>
<event>
12    1  0.8052519E-002  0.1775052E+03  0.7818608E-02  0.1170541E+00
         21   -1    0    0  503  502  0.00000000000E+00  0.00000000000E+00  0.18804255293E+04  0.18804255293E+04  0.00000000000E+00 0.  1.
         21   -1    0    0  501  503 -0.00000000000E+00 -0.00000000000E+00 -0.24065792971E+02  0.24065792971E+02  0.00000000000E+00 0.  1.
          6    2    1    2  501    0  0.12658175563E+02  0.40712761488E+02  0.39704389019E+03  0.43441960998E+03  0.17105200507E+03 0.  0.
         24    2    3    3    0    0 -0.84342635615E+01 -0.41294994462E+02  0.17680682162E+03  0.19841829770E+03  0.79578610950E+02 0.  0.
         -6    2    1    2    0  502 -0.12658175563E+02 -0.40712761488E+02  0.14593158461E+04  0.14700717122E+04  0.17230885682E+03 0.  0.
        -24    2    5    5    0    0  0.59170791740E+01 -0.67913148123E+02  0.13742751002E+04  0.13787540273E+04  0.87655058363E+02 0.  0.
          5    1    3    3  501    0  0.21092439125E+02  0.82007755951E+02  0.22023706857E+03  0.23600131228E+03  0.47000000000E+01 0. -1.
        -13    1    4    4    0    0  0.64080543346E+01 -0.45874413611E+02  0.41403842802E+02  0.62127314309E+02  0.00000000000E+00 0.  1.
         14    1    4    4    0    0 -0.14842317896E+02  0.45794191487E+01  0.13540297882E+03  0.13629098339E+03  0.00000000000E+00 0. -1.
         -5    1    5    5    0  502 -0.18575254737E+02  0.27200386635E+02  0.85040745854E+02  0.91317684908E+02  0.47000000000E+01 0.  1.
         11    1    6    6    0    0  0.18011402037E+02 -0.47097185821E+02  0.29991689131E+03  0.30412612056E+03  0.00000000000E+00 0. -1.
        -12    1    6    6    0    0 -0.12094322863E+02 -0.20815962302E+02  0.10743582089E+04  0.10746279068E+04  0.00000000000E+00 0.  1.
</event>
<event>
12    1  0.8052519E-002  0.2437097E+03  0.7818608E-02  0.1117637E+00
         21   -1    0    0  501  502  0.00000000000E+00  0.00000000000E+00  0.76658072167E+02  0.76658072167E+02  0.00000000000E+00 0.  1.
         21   -1    0    0  502  503 -0.00000000000E+00 -0.00000000000E+00 -0.14544596674E+04  0.14544596674E+04  0.00000000000E+00 0.  1.
         -6    2    1    2    0  503  0.60145755622E+02 -0.16183487059E+03 -0.12157277372E+04  0.12399146496E+04  0.17200688980E+03 0.  0.
        -24    2    3    3    0    0 -0.87430954514E+01 -0.14145449562E+02 -0.38934617723E+03  0.39760448613E+03  0.78881849690E+02 0.  0.
          6    2    1    2  501    0 -0.60145755622E+02  0.16183487059E+03 -0.16207385809E+03  0.29120308998E+03  0.16947939957E+03 0.  0.
         24    2    5    5    0    0  0.52665880508E+01  0.19970916259E+02 -0.37829104444E+02  0.91545871093E+02  0.80765282921E+02 0.  0.
          5    1    5    5  501    0 -0.65412343673E+02  0.14186395434E+03 -0.12424475364E+03  0.19965721888E+03  0.47000000000E+01 0. -1.
        -11    1    6    6    0    0 -0.75900791104E+01  0.45541436396E+02 -0.27207237714E+01  0.46249692623E+02  0.00000000000E+00 0.  1.
         12    1    6    6    0    0  0.12856667161E+02 -0.25570520137E+02 -0.35108380672E+02  0.45296178470E+02  0.00000000000E+00 0. -1.
         -5    1    3    3    0  503  0.68888851073E+02 -0.14768942103E+03 -0.82638155995E+03  0.84231016349E+03  0.47000000000E+01 0.  1.
         11    1    4    4    0    0  0.21708275446E+02  0.18538784148E+01 -0.31425547853E+03  0.31500982822E+03  0.00000000000E+00 0. -1.
        -12    1    4    4    0    0 -0.30451370897E+02 -0.15999327977E+02 -0.75090698695E+02  0.82594657913E+02  0.00000000000E+00 0.  1.
</event>
<event>
12    1  0.8052519E-002  0.2060456E+03  0.7818608E-02  0.1145015E+00
         21   -1    0    0  503  502  0.00000000000E+00  0.00000000000E+00  0.72552622627E+03  0.72552622627E+03  0.00000000000E+00 0. -1.
         21   -1    0    0  501  503 -0.00000000000E+00 -0.00000000000E+00 -0.24091534794E+03  0.24091534794E+03  0.00000000000E+00 0.  1.
          6    2    1    2  501    0 -0.10075011788E+03  0.49574084641E+02 -0.17840647681E+03  0.27255031290E+03  0.17276176074E+03 0.  0.
         24    2    3    3    0    0 -0.11282455762E+03  0.82732227750E+02 -0.10654084367E+03  0.19235047639E+03  0.77934280570E+02 0.  0.
         -6    2    1    2    0  502  0.10075011788E+03 -0.49574084641E+02  0.66301735515E+03  0.69389126130E+03  0.17112829447E+03 0.  0.
        -24    2    5    5    0    0  0.64248230935E+02 -0.95949805958E+02  0.53238696500E+03  0.55047060690E+03  0.79043077654E+02 0.  0.
          5    1    3    3  501    0  0.12074439743E+02 -0.33158143109E+02 -0.71865633143E+02  0.80199836512E+02  0.47000000000E+01 0. -1.
        -13    1    4    4    0    0 -0.79402965564E+02  0.78160705828E+02 -0.11222700133E+03  0.15814179303E+03  0.00000000000E+00 0.  1.
         14    1    4    4    0    0 -0.33421592054E+02  0.45715219225E+01  0.56861576625E+01  0.34208683358E+02  0.00000000000E+00 0. -1.
         -5    1    5    5    0  502  0.36501886940E+02  0.46375721317E+02  0.13063039015E+03  0.14342065440E+03  0.47000000000E+01 0.  1.
         11    1    6    6    0    0  0.16908155615E+01 -0.34051983563E+02  0.30080318441E+03  0.30272917301E+03  0.00000000000E+00 0. -1.
        -12    1    6    6    0    0  0.62557415374E+02 -0.61897822395E+02  0.23158378059E+03  0.24774143389E+03  0.00000000000E+00 0.  1.
</event>
<event>
12    1  0.8052519E-002  0.1747660E+03  0.7818608E-02  0.1173349E+00
         21   -1    0    0  501  502  0.00000000000E+00  0.00000000000E+00  0.52767986210E+02  0.52767986210E+02  0.00000000000E+00 0.  1.
         21   -1    0    0  502  503 -0.00000000000E+00 -0.00000000000E+00 -0.72546516894E+03  0.72546516894E+03  0.00000000000E+00 0.  1.
         -6    2    1    2    0  503  0.15272424381E+02 -0.27101187497E+01 -0.51541050373E+03  0.54423444380E+03  0.17407627861E+03 0.  0.
        -24    2    3    3    0    0  0.44426897435E+02  0.18292551042E+02 -0.14241436683E+03  0.16948212081E+03  0.78319670315E+02 0.  0.
          6    2    1    2  501    0 -0.15272424381E+02  0.27101187497E+01 -0.15728667900E+03  0.23399871135E+03  0.17255638450E+03 0.  0.
         24    2    5    5    0    0 -0.73893995783E+02 -0.11743817576E+02 -0.96816533166E+02  0.14841756012E+03  0.84000542815E+02 0.  0.
          5    1    5    5  501    0  0.58621571402E+02  0.14453936326E+02 -0.60470145835E+02  0.85581151232E+02  0.47000000000E+01 0. -1.
        -11    1    6    6    0    0  0.40077765663E+01 -0.31416593727E+02 -0.33677446023E+02  0.46230239076E+02  0.00000000000E+00 0.  1.
         12    1    6    6    0    0 -0.77901772349E+02  0.19672776150E+02 -0.63139087143E+02  0.10218732104E+03  0.00000000000E+00 0. -1.
         -5    1    3    3    0  503 -0.29154473054E+02 -0.21002669791E+02 -0.37299613690E+03  0.37475232298E+03  0.47000000000E+01 0.  1.
         11    1    4    4    0    0  0.21520402567E+01 -0.10911857175E+01  0.99187004735E+01  0.10207966625E+02  0.00000000000E+00 0. -1.
        -12    1    4    4    0    0  0.42274857178E+02  0.19383736759E+02 -0.15233306730E+03  0.15927415419E+03  0.00000000000E+00 0.  1.
</event>
<event>
12    1  0.8052519E-002  0.2207714E+03  0.7818608E-02  0.1133359E+00
         21   -1    0    0  503  502  0.00000000000E+00  0.00000000000E+00  0.25673623852E+02  0.25673623852E+02  0.00000000000E+00 0. -1.
         21   -1    0    0  501  503 -0.00000000000E+00 -0.00000000000E+00 -0.20917998802E+04  0.20917998802E+04  0.00000000000E+00 0. -1.
          6    2    1    2  501    0 -0.42594993010E+02 -0.13261074721E+03 -0.70982808968E+03  0.74336797514E+03  0.17128947972E+03 0.  0.
         24    2    3    3    0    0 -0.26642309345E+02 -0.13474693120E+03 -0.40047808693E+03  0.43356389899E+03  0.93425950786E+02 0.  0.
         -6    2    1    2    0  502  0.42594993010E+02  0.13261074721E+03 -0.13562981667E+04  0.13741055289E+04  0.17094251657E+03 0.  0.
        -24    2    5    5    0    0 -0.78492890389E+00  0.12616251322E+02 -0.75823400150E+03  0.76256376229E+03  0.80155502687E+02 0.  0.
          5    1    3    3  501    0 -0.15952683665E+02  0.21361839964E+01 -0.30935000275E+03  0.30980407615E+03  0.47000000000E+01 0. -1.
        -13    1    4    4    0    0  0.34751491423E+02 -0.46182981267E+02 -0.12329084368E+03  0.13616595041E+03  0.00000000000E+00 0.  1.
         14    1    4    4    0    0 -0.61393800768E+02 -0.88563949938E+02 -0.27718724325E+03  0.29739794858E+03  0.00000000000E+00 0. -1.
         -5    1    5    5    0  502  0.43379921914E+02  0.11999449589E+03 -0.59806416518E+03  0.61154176664E+03  0.47000000000E+01 0.  1.
         11    1    6    6    0    0  0.18663132508E+02  0.39218007611E+02 -0.55280900912E+03  0.55451254738E+03  0.00000000000E+00 0. -1.
        -12    1    6    6    0    0 -0.19448061412E+02 -0.26601756289E+02 -0.20542499238E+03  0.20805121491E+03  0.00000000000E+00 0.  1.
</event>
<event>
12    1  0.8052519E-002  0.1764033E+03  0.7818608E-02  0.1174370E+00
         21   -1    0    0  501  502  0.00000000000E+00  0.00000000000E+00  0.28846545010E+03  0.28846545010E+03  0.00000000000E+00 0. -1.
         21   -1    0    0  502  503 -0.00000000000E+00 -0.00000000000E+00 -0.13723467834E+03  0.13723467834E+03  0.00000000000E+00 0. -1.
         -6    2    1    2    0  503  0.10267105060E+02 -0.36835954425E+02 -0.35952604841E+02  0.16849251121E+03  0.16010882410E+03 0.  0.
        -24    2    3    3    0    0  0.24682742792E+02 -0.81919028313E+02 -0.26967808833E+02  0.12008682227E+03  0.79834937078E+02 0.  0.
          6    2    1    2  501    0 -0.10267105060E+02  0.36835954425E+02  0.18718337660E+03  0.25720761722E+03  0.17220871318E+03 0.  0.
         24    2    5    5    0    0 -0.30638314167E+02  0.70194747020E+02  0.62351556467E+02  0.12631503331E+03  0.78751268199E+02 0.  0.
          5    1    5    5  501    0  0.20371209108E+02 -0.33358792595E+02  0.12483182014E+03  0.13089258391E+03  0.47000000000E+01 0. -1.
        -13    1    6    6    0    0  0.12612642392E+01  0.75735438228E+01 -0.17998110235E+02  0.19567353566E+02  0.00000000000E+00 0.  1.
         14    1    6    6    0    0 -0.31899578406E+02  0.62621203197E+02  0.80349666702E+02  0.10674767975E+03  0.00000000000E+00 0. -1.
         -5    1    3    3    0  503 -0.14415637732E+02  0.45083073888E+02 -0.89847960081E+01  0.48405688940E+02  0.47000000000E+01 0.  1.
         13    1    4    4    0    0  0.11190403255E+02 -0.47117726595E+02 -0.55092411230E+02  0.73351748852E+02  0.00000000000E+00 0. -1.
        -14    1    4    4    0    0  0.13492339537E+02 -0.34801301718E+02  0.28124602397E+02  0.46735073418E+02  0.00000000000E+00 0.  1.
</event>
<event>
12    1  0.8052519E-002  0.2062764E+03  0.7818608E-02  0.1144602E+00
         21   -1    0    0  503  502  0.00000000000E+00  0.00000000000E+00  0.61131897617E+03  0.61131897617E+03  0.00000000000E+00 0. -1.
         21   -1    0    0  501  503 -0.00000000000E+00 -0.00000000000E+00 -0.78814761670E+02  0.78814761670E+02  0.00000000000E+00 0. -1.
          6    2    1    2  501    0  0.24252428737E+02 -0.11229801931E+03  0.14757970951E+03  0.25342237774E+03  0.17100907999E+03 0.  0.
         24    2    3    3    0    0 -0.14301838736E+02 -0.20448059253E+02  0.11305213017E+02  0.84556528329E+02  0.79995830662E+02 0.  0.
         -6    2    1    2    0  502 -0.24252428737E+02  0.11229801931E+03  0.38492450499E+03  0.43671136010E+03  0.17132107884E+03 0.  0.
        -24    2    5    5    0    0 -0.66239872784E+01  0.26635852880E+02  0.64852321109E+02  0.10487245099E+03  0.77711399141E+02 0.  0.
          5    1    3    3  501    0  0.38554267473E+02 -0.91849960060E+02  0.13627449649E+03  0.16886584941E+03  0.47000000000E+01 0. -1.
        -13    1    4    4    0    0 -0.59145603546E+01  0.16430324231E+02  0.35567491872E+02  0.39623024324E+02  0.00000000000E+00 0.  1.
         14    1    4    4    0    0 -0.83872783815E+01 -0.36878383483E+02 -0.24262278855E+02  0.44933504006E+02  0.00000000000E+00 0. -1.
         -5    1    5    5    0  502 -0.17628441458E+02  0.85662166433E+02  0.32007218388E+03  0.33183890911E+03  0.47000000000E+01 0.  1.
         13    1    6    6    0    0 -0.31510575052E+02  0.33266174121E+02  0.64495553504E+02  0.79115302581E+02  0.00000000000E+00 0. -1.
        -14    1    6    6    0    0  0.24886587774E+02 -0.66303212416E+01  0.35676760486E+00  0.25757148404E+02  0.00000000000E+00 0.  1.
</event>
<event>
12    1  0.8052519E-002  0.1766405E+03  0.7818608E-02  0.1171765E+00
         21   -1    0    0  503  502  0.00000000000E+00  0.00000000000E+00  0.16173943287E+03  0.16173943287E+03  0.00000000000E+00 0.  1.
         21   -1    0    0  501  503 -0.00000000000E+00 -0.00000000000E+00 -0.31750329480E+03  0.31750329480E+03  0.00000000000E+00 0.  1.
          6    2    1    2  501    0 -0.37214286571E+02  0.12065822718E+02 -0.22937438303E+03  0.28787824006E+03  0.16950158201E+03 0.  0.
         24    2    3    3    0    0  0.11757312862E+02 -0.45516245613E+01 -0.22056407990E+03  0.23520881300E+03  0.80720014113E+02 0.  0.
         -6    2    1    2    0  502  0.37214286571E+02 -0.12065822718E+02  0.73610521099E+02  0.19136448761E+03  0.17225379850E+03 0.  0.
        -24    2    5    5    0    0  0.85965867708E+01  0.32057124806E+02  0.10232899687E+03  0.13125917927E+03  0.75207632497E+02 0.  0.
          5    1    3    3  501    0 -0.48971599433E+02  0.16617447279E+02 -0.88103031269E+01  0.52669427054E+02  0.47000000000E+01 0. -1.
        -11    1    4    4    0    0  0.13716778660E+02  0.30532629741E+02 -0.17222489032E+03  0.17544744040E+03  0.00000000000E+00 0.  1.
         12    1    4    4    0    0 -0.19594657978E+01 -0.35084254302E+02 -0.48339189578E+02  0.59761372601E+02  0.00000000000E+00 0. -1.
         -5    1    5    5    0  502  0.28617699800E+02 -0.44122947523E+02 -0.28718475774E+02  0.60105308341E+02  0.47000000000E+01 0.  1.
         11    1    6    6    0    0  0.41224808858E+01  0.47397885713E+02  0.27942275336E+02  0.55175403665E+02  0.00000000000E+00 0. -1.
        -12    1    6    6    0    0  0.44741058850E+01 -0.15340760907E+02  0.74386721538E+02  0.76083775602E+02  0.00000000000E+00 0.  1.
</event>
<event>
12    1  0.8052519E-002  0.1836725E+03  0.7818608E-02  0.1164612E+00
         21   -1    0    0  503  502  0.00000000000E+00  0.00000000000E+00  0.36515511180E+03  0.36515511180E+03  0.00000000000E+00 0.  1.
         21   -1    0    0  501  503 -0.00000000000E+00 -0.00000000000E+00 -0.22708707378E+03  0.22708707378E+03  0.00000000000E+00 0.  1.
          6    2    1    2  501    0  0.59577323276E+02  0.15066397366E+02 -0.15949605139E+03  0.24325828823E+03  0.17308711854E+03 0.  0.
         24    2    3    3    0    0  0.63779792289E+02  0.65196502426E+02 -0.14845236655E+03  0.19154038848E+03  0.79568646179E+02 0.  0.
         -6    2    1    2    0  502 -0.59577323276E+02 -0.15066397366E+02  0.29756408941E+03  0.34898389735E+03  0.17166513777E+03 0.  0.
        -24    2    5    5    0    0 -0.10431207292E+03 -0.21170235462E+01  0.18510526248E+03  0.22717272438E+03  0.80361670933E+02 0.  0.
          5    1    3    3  501    0 -0.42024690123E+01 -0.50130105061E+02 -0.11043684848E+02  0.51717899747E+02  0.47000000000E+01 0. -1.
        -13    1    4    4    0    0 -0.40813325756E+01 -0.21057580644E+01 -0.63503104016E+02  0.63668954070E+02  0.00000000000E+00 0.  1.
         14    1    4    4    0    0  0.67861124864E+02  0.67302260491E+02 -0.84949262529E+02  0.12787143441E+03  0.00000000000E+00 0. -1.
         -5    1    5    5    0  502  0.44734749646E+02 -0.12949373819E+02  0.11245882693E+03  0.12181117298E+03  0.47000000000E+01 0.  1.
         11    1    6    6    0    0 -0.61316475235E+02  0.28109920775E+02  0.55617859833E+02  0.87425534677E+02  0.00000000000E+00 0. -1.
        -12    1    6    6    0    0 -0.42995597688E+02 -0.30226944321E+02  0.12948740265E+03  0.13974718970E+03  0.00000000000E+00 0.  1.
</event>
<event>
12    1  0.8052519E-002  0.1956807E+03  0.7818608E-02  0.1154106E+00
         21   -1    0    0  503  502  0.00000000000E+00  0.00000000000E+00  0.82629589513E+03  0.82629589513E+03  0.00000000000E+00 0.  1.
         21   -1    0    0  501  503 -0.00000000000E+00 -0.00000000000E+00 -0.82218884869E+02  0.82218884869E+02  0.00000000000E+00 0.  1.
          6    2    1    2  501    0 -0.26191809495E+02 -0.82957912300E+02  0.70587773679E+02  0.20802297823E+03  0.17527948991E+03 0.  0.
         24    2    3    3    0    0  0.45707744072E+02 -0.81970855327E+02  0.47068647672E+02  0.13222219082E+03  0.80366853615E+02 0.  0.
         -6    2    1    2    0  502  0.26191809495E+02  0.82957912300E+02  0.67348923658E+03  0.70049180177E+03  0.17185164082E+03 0.  0.
        -24    2    5    5    0    0 -0.43013217407E+02  0.29011005588E+02  0.36927399664E+03  0.38383961607E+03  0.90982366174E+02 0.  0.
          5    1    3    3  501    0 -0.71899553566E+02 -0.98705697326E+00  0.23519126008E+02  0.75800787414E+02  0.47000000000E+01 0. -1.
        -11    1    4    4    0    0  0.45012002230E+02 -0.49598919650E+02 -0.88948518821E+01  0.67566645360E+02  0.00000000000E+00 0.  1.
         12    1    4    4    0    0  0.69574184185E+00 -0.32371935676E+02  0.55963499554E+02  0.64655545458E+02  0.00000000000E+00 0. -1.
         -5    1    5    5    0  502  0.69205026902E+02  0.53946906712E+02  0.30421523994E+03  0.31665218569E+03  0.47000000000E+01 0.  1.
         11    1    6    6    0    0 -0.44699759524E+00 -0.25254841245E+02  0.39170845201E+02  0.46608603572E+02  0.00000000000E+00 0. -1.
        -12    1    6    6    0    0 -0.42566219812E+02  0.54265846833E+02  0.33010315144E+03  0.33723101250E+03  0.00000000000E+00 0.  1.
</event>
<event>
12    1  0.8052519E-002  0.1779956E+03  0.7818608E-02  0.1169992E+00
         21   -1    0    0  503  502  0.00000000000E+00  0.00000000000E+00  0.11317306007E+03  0.11317306007E+03  0.00000000000E+00 0.  1.
         21   -1    0    0  501  503 -0.00000000000E+00 -0.00000000000E+00 -0.28143033367E+03  0.28143033367E+03  0.00000000000E+00 0.  1.
          6    2    1    2  501    0  0.33446475499E+02  0.27036384110E+02 -0.64036701084E+02  0.18916433155E+03  0.17272177759E+03 0.  0.
         24    2    3    3    0    0 -0.20849045614E+02 -0.32276100353E+02 -0.58055089021E+02  0.10839401454E+03  0.83080922420E+02 0.  0.
         -6    2    1    2    0  502 -0.33446475499E+02 -0.27036384110E+02 -0.10422057251E+03  0.20543906219E+03  0.17173714727E+03 0.  0.
        -24    2    5    5    0    0 -0.85815708317E+02 -0.14898172697E+02 -0.91421727721E+02  0.14997940884E+03  0.80929595528E+02 0.  0.
          5    1    3    3  501    0  0.54295521113E+02  0.59312484464E+02 -0.59816120635E+01  0.80770317005E+02  0.47000000000E+01 0. -1.
        -11    1    4    4    0    0 -0.20830825144E+02  0.15901434645E+02  0.72966828277E+01  0.27203317450E+02  0.00000000000E+00 0.  1.
         12    1    4    4    0    0 -0.18220469670E-01 -0.48177534999E+02 -0.65351771848E+02  0.81190697092E+02  0.00000000000E+00 0. -1.
         -5    1    5    5    0  502  0.52369232818E+02 -0.12138211414E+02 -0.12798844788E+02  0.55459653354E+02  0.47000000000E+01 0.  1.
         11    1    6    6    0    0 -0.39790680034E+02  0.19520407648E+02 -0.28714844188E+01  0.44413848686E+02  0.00000000000E+00 0. -1.
        -12    1    6    6    0    0 -0.46025028284E+02 -0.34418580345E+02 -0.88550243303E+02  0.10556556015E+03  0.00000000000E+00 0.  1.
</event>
<event>
12    1  0.8052519E-002  0.2150034E+03  0.7818608E-02  0.1138029E+00
         21   -1    0    0  503  502  0.00000000000E+00  0.00000000000E+00  0.29963300182E+03  0.29963300182E+03  0.00000000000E+00 0. -1.
         21   -1    0    0  501  503 -0.00000000000E+00 -0.00000000000E+00 -0.17793115667E+03  0.17793115667E+03  0.00000000000E+00 0. -1.
          6    2    1    2  501    0 -0.49307051829E+02 -0.11964540397E+03 -0.28440072152E+02  0.21687622898E+03  0.17169814485E+03 0.  0.
         24    2    3    3    0    0 -0.45212007656E+02 -0.21957777117E+02 -0.64870616290E+02  0.11243047094E+03  0.76851443229E+02 0.  0.
         -6    2    1    2    0  502  0.49307051829E+02  0.11964540397E+03  0.15014191731E+03  0.26068792951E+03  0.16932038628E+03 0.  0.
        -24    2    5    5    0    0  0.94571896225E+02  0.58275656174E+02  0.91362987707E+02  0.16429184740E+03  0.79402266593E+02 0.  0.
          5    1    3    3  501    0 -0.40950441728E+01 -0.97687626850E+02  0.36430544138E+02  0.10444575804E+03  0.47000000000E+01 0. -1.
        -13    1    4    4    0    0 -0.59254321626E+02 -0.32741385050E+02 -0.66185881332E+02  0.94676521979E+02  0.00000000000E+00 0.  1.
         14    1    4    4    0    0  0.14042313970E+02  0.10783607932E+02  0.13152650424E+01  0.17753948964E+02  0.00000000000E+00 0. -1.
         -5    1    5    5    0  502 -0.45264844396E+02  0.61369747794E+02  0.58778929598E+02  0.96396082116E+02  0.47000000000E+01 0.  1.
         13    1    6    6    0    0  0.73658541256E+02  0.70227704330E+02  0.95835331431E+02  0.13979242435E+03  0.00000000000E+00 0. -1.
        -14    1    6    6    0    0  0.20913354969E+02 -0.11952048156E+02 -0.44723437239E+01  0.24499423046E+02  0.00000000000E+00 0.  1.
</event>
<event>
12    1  0.8052519E-002  0.1872179E+03  0.7818608E-02  0.1161478E+00
         21   -1    0    0  503  502  0.00000000000E+00  0.00000000000E+00  0.24472297637E+03  0.24472297637E+03  0.00000000000E+00 0.  1.
         21   -1    0    0  501  503 -0.00000000000E+00 -0.00000000000E+00 -0.24001061672E+03  0.24001061672E+03  0.00000000000E+00 0.  1.
          6    2    1    2  501    0  0.38924863044E+02 -0.58638475933E+02 -0.15282021286E+03  0.24005616703E+03  0.17122888206E+03 0.  0.
         24    2    3    3    0    0  0.29718892127E+02 -0.15680158928E+02 -0.18647040161E+02  0.98795071288E+02  0.91014691511E+02 0.  0.
         -6    2    1    2    0  502 -0.38924863044E+02  0.58638475933E+02  0.15753257250E+03  0.24467742606E+03  0.17348462641E+03 0.  0.
        -24    2    5    5    0    0  0.78478352735E+01  0.81411051678E+02  0.15510552398E+03  0.19238731152E+03  0.79156845630E+02 0.  0.
          5    1    3    3  501    0  0.92059709172E+01 -0.42958317005E+02 -0.13417317269E+03  0.14126109575E+03  0.47000000000E+01 0. -1.
        -11    1    4    4    0    0  0.42496525746E+01  0.12475781117E+02 -0.48650740919E+02  0.50404357485E+02  0.00000000000E+00 0.  1.
         12    1    4    4    0    0  0.25469239553E+02 -0.28155940046E+02  0.30003700758E+02  0.48390713803E+02  0.00000000000E+00 0. -1.
         -5    1    5    5    0  502 -0.46772698318E+02 -0.22772575745E+02  0.24270485176E+01  0.52290114539E+02  0.47000000000E+01 0.  1.
         11    1    6    6    0    0  0.40503762686E+02  0.32736073402E+02  0.50864757839E+02  0.72797176343E+02  0.00000000000E+00 0. -1.
        -12    1    6    6    0    0 -0.32655927413E+02  0.48674978276E+02  0.10424076614E+03  0.11959013517E+03  0.00000000000E+00 0.  1.
</event>
<event>
12    1  0.8052519E-002  0.2232818E+03  0.7818608E-02  0.1131630E+00
         21   -1    0    0  501  502  0.00000000000E+00  0.00000000000E+00  0.19252253754E+03  0.19252253754E+03  0.00000000000E+00 0. -1.
         21   -1    0    0  502  503 -0.00000000000E+00 -0.00000000000E+00 -0.45525773717E+03  0.45525773717E+03  0.00000000000E+00 0.  1.
         -6    2    1    2    0  503 -0.46651892125E+02 -0.13342944024E+03 -0.34447665628E+03  0.41000633096E+03  0.17164268160E+03 0.  0.
        -24    2    3    3    0    0 -0.50825115879E+02 -0.64169017637E+01 -0.14281792086E+03  0.17159924991E+03  0.80155941875E+02 0.  0.
          6    2    1    2  501    0  0.46651892125E+02  0.13342944024E+03  0.81741456654E+02  0.23777394375E+03  0.17284376769E+03 0.  0.
         24    2    5    5    0    0  0.83780647901E+02  0.39238605512E+02  0.39723689622E+02  0.12805593886E+03  0.79129557271E+02 0.  0.
          5    1    5    5  501    0 -0.37128755776E+02  0.94190834724E+02  0.42017767032E+02  0.10971800489E+03  0.47000000000E+01 0. -1.
        -13    1    6    6    0    0  0.30515743327E+01 -0.12762764424E+02 -0.13029301991E+02  0.18492240860E+02  0.00000000000E+00 0.  1.
         14    1    6    6    0    0  0.80729073568E+02  0.52001369936E+02  0.52752991613E+02  0.10956369800E+03  0.00000000000E+00 0. -1.
         -5    1    3    3    0  503  0.41732237541E+01 -0.12701253847E+03 -0.20165873542E+03  0.23840708106E+03  0.47000000000E+01 0.  1.
         13    1    4    4    0    0 -0.44401942669E+02  0.10555778620E+02 -0.24310361293E+02  0.51710256635E+02  0.00000000000E+00 0. -1.
        -14    1    4    4    0    0 -0.64231732100E+01 -0.16972680384E+02 -0.11850755957E+03  0.11988899327E+03  0.00000000000E+00 0.  1.
</event>
<event>
12    1  0.8052519E-002  0.2301833E+03  0.7818608E-02  0.1126700E+00
         21   -1    0    0  501  502  0.00000000000E+00  0.00000000000E+00  0.55385785022E+02  0.55385785022E+02  0.00000000000E+00 0.  1.
         21   -1    0    0  502  503 -0.00000000000E+00 -0.00000000000E+00 -0.97539398596E+03  0.97539398596E+03  0.00000000000E+00 0. -1.
         -6    2    1    2    0  503  0.69570912656E+02 -0.13533179424E+03 -0.38154577964E+03  0.44560244837E+03  0.17271234356E+03 0.  0.
        -24    2    3    3    0    0  0.10261259246E+03 -0.57113924560E+02 -0.20261377582E+03  0.24749000623E+03  0.80047589116E+02 0.  0.
          6    2    1    2  501    0 -0.69570912656E+02  0.13533179424E+03 -0.53846242131E+03  0.58517732261E+03  0.17127729950E+03 0.  0.
         24    2    5    5    0    0 -0.46378156102E+02  0.15367123207E+03 -0.51969176006E+03  0.54984084486E+03  0.80496262476E+02 0.  0.
          5    1    5    5  501    0 -0.23192756554E+02 -0.18339437828E+02 -0.18770661244E+02  0.35336477752E+02  0.47000000000E+01 0. -1.
        -11    1    6    6    0    0  0.16211943828E+02  0.27798373220E+02 -0.49138492433E+02  0.58738131694E+02  0.00000000000E+00 0.  1.
         12    1    6    6    0    0 -0.62590099929E+02  0.12587285885E+03 -0.47055326763E+03  0.49110271317E+03  0.00000000000E+00 0. -1.
         -5    1    3    3    0  503 -0.33041679800E+02 -0.78217869681E+02 -0.17893200382E+03  0.19811244214E+03  0.47000000000E+01 0.  1.
         11    1    4    4    0    0  0.30990014728E+02  0.19221168637E+02 -0.40288135583E+02  0.54341220131E+02  0.00000000000E+00 0. -1.
        -12    1    4    4    0    0  0.71622577728E+02 -0.76335093196E+02 -0.16232564023E+03  0.19314878610E+03  0.00000000000E+00 0.  1.
</event>
<event>
12    1  0.8052519E-002  0.1925425E+03  0.7818608E-02  0.1157921E+00
         21   -1    0    0  501  502  0.00000000000E+00  0.00000000000E+00  0.19435580689E+04  0.19435580689E+04  0.00000000000E+00 0. -1.
         21   -1    0    0  502  503 -0.00000000000E+00 -0.00000000000E+00 -0.27620178005E+02  0.27620178005E+02  0.00000000000E+00 0. -1.
         -6    2    1    2    0  503 -0.85416022725E+01  0.61065150449E+02  0.15425649405E+04  0.15545350427E+04  0.18240255437E+03 0.  0.
        -24    2    3    3    0    0 -0.15698990209E+02  0.24535822969E+02  0.14740191748E+04  0.14763926601E+04  0.78449309679E+02 0.  0.
          6    2    1    2  501    0  0.85416022725E+01 -0.61065150449E+02  0.37337295043E+03  0.41664320421E+03  0.17430515751E+03 0.  0.
         24    2    5    5    0    0  0.29574346696E+02  0.21080597108E+02  0.26703952910E+03  0.28055798580E+03  0.77997690572E+02 0.  0.
          5    1    5    5  501    0 -0.21032744424E+02 -0.82145747557E+02  0.10633342133E+03  0.13608521842E+03  0.47000000000E+01 0. -1.
        -13    1    6    6    0    0 -0.53990482477E+01  0.16613492654E+00  0.21203222044E+03  0.21210101326E+03  0.00000000000E+00 0.  1.
         14    1    6    6    0    0  0.34973394944E+02  0.20914462181E+02  0.55007308663E+02  0.68456972534E+02  0.00000000000E+00 0. -1.
         -5    1    3    3    0  503  0.71573879360E+01  0.36529327481E+02  0.68545765672E+02  0.78142382609E+02  0.47000000000E+01 0.  1.
         11    1    4    4    0    0  0.71918673436E+01 -0.25321749732E+02  0.32488729081E+03  0.32595193771E+03  0.00000000000E+00 0. -1.
        -12    1    4    4    0    0 -0.22890857552E+02  0.49857572701E+02  0.11491318840E+04  0.11504407224E+04  0.00000000000E+00 0.  1.
</event>
<event>
12    1  0.8052519E-002  0.3472232E+03  0.7818608E-02  0.1063762E+00
         21   -1    0    0  503  502  0.00000000000E+00  0.00000000000E+00  0.98184416686E+02  0.98184416686E+02  0.00000000000E+00 0. -1.
         21   -1    0    0  501  503 -0.00000000000E+00 -0.00000000000E+00 -0.13469618671E+04  0.13469618671E+04  0.00000000000E+00 0. -1.
          6    2    1    2  501    0 -0.20543965329E+03  0.22073379745E+03 -0.40955988696E+03  0.53693877188E+03  0.17214843382E+03 0.  0.
         24    2    3    3    0    0 -0.54822631162E+02  0.15797532581E+03 -0.20374149452E+03  0.27424614964E+03  0.75753742802E+02 0.  0.
         -6    2    1    2    0  502  0.20543965329E+03 -0.22073379745E+03 -0.83921756343E+03  0.90820751187E+03  0.17212177486E+03 0.  0.
        -24    2    5    5    0    0  0.36031159658E+02 -0.66417965977E+02 -0.18985243718E+03  0.21957860546E+03  0.80381747953E+02 0.  0.
          5    1    3    3  501    0 -0.15061702212E+03  0.62758471636E+02 -0.20581839243E+03  0.26269262224E+03  0.47000000000E+01 0. -1.
        -13    1    4    4    0    0 -0.13509285059E+02  0.47723335696E+02 -0.15044218802E+02  0.51829972720E+02  0.00000000000E+00 0.  1.
         14    1    4    4    0    0 -0.41313346102E+02  0.11025199012E+03 -0.18869727572E+03  0.22241617692E+03  0.00000000000E+00 0. -1.
         -5    1    5    5    0  502  0.16940849363E+03 -0.15431583147E+03 -0.64936512625E+03  0.68862890641E+03  0.47000000000E+01 0.  1.
         11    1    6    6    0    0  0.43076126029E+02 -0.36322029688E+02 -0.17760913001E+03  0.18633262070E+03  0.00000000000E+00 0. -1.
        -12    1    6    6    0    0 -0.70449663711E+01 -0.30095936290E+02 -0.12243307165E+02  0.33245984760E+02  0.00000000000E+00 0.  1.
</event>
<event>
12    1  0.8052519E-002  0.2697461E+03  0.7818608E-02  0.1101437E+00
         21   -1    0    0  503  502  0.00000000000E+00  0.00000000000E+00  0.13085769878E+03  0.13085769878E+03  0.00000000000E+00 0.  1.
         21   -1    0    0  501  503 -0.00000000000E+00 -0.00000000000E+00 -0.14880933649E+04  0.14880933649E+04  0.00000000000E+00 0. -1.
          6    2    1    2  501    0 -0.42710758885E+02  0.20335935279E+03 -0.13192674162E+04  0.13465459603E+04  0.17187283785E+03 0.  0.
         24    2    3    3    0    0  0.37507718256E+02  0.74579315418E+02 -0.68042062196E+03  0.68991317202E+03  0.77711382176E+02 0.  0.
         -6    2    1    2    0  502  0.42710758885E+02 -0.20335935279E+03 -0.37968249912E+02  0.27240510340E+03  0.17199917751E+03 0.  0.
        -24    2    5    5    0    0  0.37385753987E+02 -0.16286546723E+03 -0.90849295069E+02  0.20542297607E+03  0.77602510693E+02 0.  0.
          5    1    3    3  501    0 -0.80218477140E+02  0.12878003737E+03 -0.63884679427E+03  0.65663278828E+03  0.47000000000E+01 0. -1.
        -11    1    4    4    0    0  0.10023629910E+02  0.14477473080E+01 -0.78329219286E+01  0.12803272815E+02  0.00000000000E+00 0.  1.
         12    1    4    4    0    0  0.27484088346E+02  0.73131568110E+02 -0.67258770004E+03  0.67710989921E+03  0.00000000000E+00 0. -1.
         -5    1    5    5    0  502  0.53250048975E+01 -0.40493885566E+02  0.52881045157E+02  0.66982127334E+02  0.47000000000E+01 0.  1.
         11    1    6    6    0    0 -0.43391067177E+01 -0.20336563110E+02 -0.45687628845E+02  0.50197241714E+02  0.00000000000E+00 0. -1.
        -12    1    6    6    0    0  0.41724860705E+02 -0.14252890412E+03 -0.45161666224E+02  0.15522573435E+03  0.00000000000E+00 0.  1.
</event>
<event>
12    1  0.8052519E-002  0.1873960E+03  0.7818608E-02  0.1161257E+00
         21   -1    0    0  503  502  0.00000000000E+00  0.00000000000E+00  0.32156041969E+03  0.32156041969E+03  0.00000000000E+00 0. -1.
         21   -1    0    0  501  503 -0.00000000000E+00 -0.00000000000E+00 -0.23493828141E+03  0.23493828141E+03  0.00000000000E+00 0. -1.
          6    2    1    2  501    0 -0.15665175647E+01  0.68986933328E+02 -0.16120526961E+03  0.24579674946E+03  0.17224184203E+03 0.  0.
         24    2    3    3    0    0 -0.29990821272E+02  0.10865830958E+02 -0.15926452604E+03  0.18089790457E+03  0.79632574879E+02 0.  0.
         -6    2    1    2    0  502  0.15665175647E+01 -0.68986933328E+02  0.24782740789E+03  0.31070195164E+03  0.17422866500E+03 0.  0.
        -24    2    5    5    0    0  0.30210439476E+02 -0.20954465500E+02  0.23819652063E+03  0.25375955779E+03  0.79401325267E+02 0.  0.
          5    1    3    3  501    0  0.28424303707E+02  0.58121102370E+02 -0.19407435769E+01  0.64898844886E+02  0.47000000000E+01 0. -1.
        -11    1    4    4    0    0  0.14162883722E+02  0.48506413505E+01  0.55643502783E+00  0.14980841657E+02  0.00000000000E+00 0.  1.
         12    1    4    4    0    0 -0.44153704994E+02  0.60151896074E+01 -0.15982096106E+03  0.16591706291E+03  0.00000000000E+00 0. -1.
         -5    1    5    5    0  502 -0.28643921911E+02 -0.48032467828E+02  0.96308872604E+01  0.56942393851E+02  0.47000000000E+01 0.  1.
         13    1    6    6    0    0  0.17404486605E+02 -0.38919921321E+02  0.22283285427E+03  0.22687476142E+03  0.00000000000E+00 0. -1.
        -14    1    6    6    0    0  0.12805952871E+02  0.17965455821E+02  0.15363666359E+02  0.26884796368E+02  0.00000000000E+00 0.  1.
</event>
<event>
12    1  0.8052519E-002  0.2057002E+03  0.7818608E-02  0.1145026E+00
         21   -1    0    0  503  502  0.00000000000E+00  0.00000000000E+00  0.38160693534E+03  0.38160693534E+03  0.00000000000E+00 0.  1.
         21   -1    0    0  501  503 -0.00000000000E+00 -0.00000000000E+00 -0.23483083681E+03  0.23483083681E+03  0.00000000000E+00 0.  1.
          6    2    1    2  501    0  0.38009686794E+02  0.10657922169E+03 -0.15055592657E+03  0.25491107173E+03  0.17178096716E+03 0.  0.
         24    2    3    3    0    0  0.52012939008E+02  0.42804859944E+02 -0.17018132976E+02  0.10619088949E+03  0.80307448600E+02 0.  0.
         -6    2    1    2    0  502 -0.38009686794E+02 -0.10657922169E+03  0.29733202510E+03  0.36152670042E+03  0.17173047249E+03 0.  0.
        -24    2    5    5    0    0 -0.15980701847E+02 -0.14102273522E+03  0.21782713462E+03  0.27200156756E+03  0.79958723736E+02 0.  0.
          5    1    3    3  501    0 -0.14003252214E+02  0.63774361741E+02 -0.13353779359E+03  0.14872018224E+03  0.47000000000E+01 0. -1.
        -13    1    4    4    0    0  0.50400521603E+02  0.40413436413E+02 -0.44572023294E+02  0.78486455399E+02  0.00000000000E+00 0.  1.
         14    1    4    4    0    0  0.16124174056E+01  0.23914235309E+01  0.27553890319E+02  0.27704434087E+02  0.00000000000E+00 0. -1.
         -5    1    5    5    0  502 -0.22028984947E+02  0.34443513534E+02  0.79504890483E+02  0.89525132857E+02  0.47000000000E+01 0.  1.
         13    1    6    6    0    0  0.27511706006E+02 -0.43375063621E+02  0.10313964215E+03  0.11522185511E+03  0.00000000000E+00 0. -1.
        -14    1    6    6    0    0 -0.43492407853E+02 -0.97647671598E+02  0.11468749246E+03  0.15677971245E+03  0.00000000000E+00 0.  1.
</event>
<event>
12    1  0.8052519E-002  0.2052591E+03  0.7818608E-02  0.1146806E+00
         21   -1    0    0  501  502  0.00000000000E+00  0.00000000000E+00  0.20790238812E+03  0.20790238812E+03  0.00000000000E+00 0. -1.
         21   -1    0    0  502  503 -0.00000000000E+00 -0.00000000000E+00 -0.24347889136E+03  0.24347889136E+03  0.00000000000E+00 0. -1.
         -6    2    1    2    0  503 -0.10134925240E+03 -0.53314026414E+02 -0.11728923431E+03  0.23045530272E+03  0.16198402912E+03 0.  0.
        -24    2    3    3    0    0 -0.57509320359E+02 -0.27855746199E+02  0.25090209287E+01  0.10028704379E+03  0.77252387939E+02 0.  0.
          6    2    1    2  501    0  0.10134925240E+03  0.53314026414E+02  0.81712731073E+02  0.22092597676E+03  0.17034453445E+03 0.  0.
         24    2    5    5    0    0  0.13017189333E+03  0.72890046359E+02  0.76583208731E+02  0.18539616974E+03  0.79051067194E+02 0.  0.
          5    1    5    5  501    0 -0.28822640935E+02 -0.19576019945E+02  0.51295223423E+01  0.35529807019E+02  0.47000000000E+01 0. -1.
        -13    1    6    6    0    0 -0.42870037878E+01  0.24206967553E+02  0.35937378451E+01  0.24844931702E+02  0.00000000000E+00 0.  1.
         14    1    6    6    0    0  0.13445889712E+03  0.48683078806E+02  0.72989470886E+02  0.16055123804E+03  0.00000000000E+00 0. -1.
         -5    1    3    3    0  503 -0.43839932039E+02 -0.25458280215E+02 -0.11979825524E+03  0.13016825893E+03  0.47000000000E+01 0.  1.
         13    1    4    4    0    0 -0.48315092368E+02 -0.23183204200E+02 -0.33252724592E+02  0.63067842838E+02  0.00000000000E+00 0. -1.
        -14    1    4    4    0    0 -0.91942279907E+01 -0.46725419992E+01  0.35761745520E+02  0.37219200955E+02  0.00000000000E+00 0.  1.
</event>
<event>
12    1  0.8052519E-002  0.2502402E+03  0.7818608E-02  0.1113390E+00
         21   -1    0    0  501  502  0.00000000000E+00  0.00000000000E+00  0.18290031419E+04  0.18290031419E+04  0.00000000000E+00 0.  1.
         21   -1    0    0  502  503 -0.00000000000E+00 -0.00000000000E+00 -0.37404876626E+02  0.37404876626E+02  0.00000000000E+00 0.  1.
         -6    2    1    2    0  503  0.16059259204E+03 -0.81210054968E+02  0.11784389158E+04  0.12047150885E+04  0.17388246790E+03 0.  0.
        -24    2    3    3    0    0  0.12838667867E+03  0.74677737562E+01  0.83498003279E+03  0.84850297129E+03  0.78909633211E+02 0.  0.
          6    2    1    2  501    0 -0.16059259204E+03  0.81210054968E+02  0.61315934950E+03  0.66169293001E+03  0.17172097164E+03 0.  0.
         24    2    5    5    0    0 -0.16834201088E+03  0.86442673108E+02  0.61652093436E+03  0.65070093121E+03  0.86615651046E+02 0.  0.
          5    1    5    5  501    0  0.77494188373E+01 -0.52326181396E+01 -0.33615848617E+01  0.10991998803E+02  0.47000000000E+01 0. -1.
        -11    1    6    6    0    0 -0.10311393676E+03  0.10219914564E+02  0.37789811129E+03  0.39184679802E+03  0.00000000000E+00 0.  1.
         12    1    6    6    0    0 -0.65228074113E+02  0.76222758544E+02  0.23862282308E+03  0.25885413319E+03  0.00000000000E+00 0. -1.
         -5    1    3    3    0  503  0.32205913364E+02 -0.88677828724E+02  0.34345888299E+03  0.35621211723E+03  0.47000000000E+01 0.  1.
         11    1    4    4    0    0 -0.98006141793E+01 -0.66322438059E+01  0.76224708201E+02  0.77137830126E+02  0.00000000000E+00 0. -1.
        -12    1    4    4    0    0  0.13818729285E+03  0.14100017562E+02  0.75875532459E+03  0.77136514116E+03  0.00000000000E+00 0.  1.
</event>
<event>
12    1  0.8052519E-002  0.1765984E+03  0.7818608E-02  0.1171814E+00
         21   -1    0    0  501  502  0.00000000000E+00  0.00000000000E+00  0.32380457181E+03  0.32380457181E+03  0.00000000000E+00 0. -1.
         21   -1    0    0  502  503 -0.00000000000E+00 -0.00000000000E+00 -0.15249203607E+03  0.15249203607E+03  0.00000000000E+00 0. -1.
         -6    2    1    2    0  503 -0.39544191205E+02 -0.34263476891E+01 -0.60356214610E+02  0.18662761921E+03  0.17207996018E+03 0.  0.
        -24    2    3    3    0    0 -0.89953524416E+02 -0.14210098078E+02 -0.59602320587E+02  0.13485843433E+03  0.79629123116E+02 0.  0.
          6    2    1    2  501    0  0.39544191205E+02  0.34263476891E+01  0.23166875036E+03  0.28966898867E+03  0.16929923268E+03 0.  0.
         24    2    5    5    0    0  0.69697078355E+02 -0.43862260374E+02  0.17318813944E+03  0.20850569087E+03  0.81846874506E+02 0.  0.
          5    1    5    5  501    0 -0.30152887150E+02  0.47288608063E+02  0.58480610917E+02  0.81163297797E+02  0.47000000000E+01 0. -1.
        -13    1    6    6    0    0  0.13017591173E+02 -0.31702022597E+02  0.10569185070E+02  0.35863401815E+02  0.00000000000E+00 0.  1.
         14    1    6    6    0    0  0.56679487182E+02 -0.12160237777E+02  0.16261895437E+03  0.17264228906E+03  0.00000000000E+00 0. -1.
         -5    1    3    3    0  503  0.50409333211E+02  0.10783750389E+02 -0.75389402320E+00  0.51769184883E+02  0.47000000000E+01 0.  1.
         11    1    4    4    0    0 -0.71611368007E+01  0.26834063563E+02 -0.20492649789E+02  0.34515178444E+02  0.00000000000E+00 0. -1.
        -12    1    4    4    0    0 -0.82792387615E+02 -0.41044161642E+02 -0.39109670797E+02  0.10034325589E+03  0.00000000000E+00 0.  1.
</event>
<event>
12    1  0.8052519E-002  0.2932977E+03  0.7818608E-02  0.1088657E+00
         21   -1    0    0  503  502  0.00000000000E+00  0.00000000000E+00  0.17139929897E+03  0.17139929897E+03  0.00000000000E+00 0. -1.
         21   -1    0    0  501  503 -0.00000000000E+00 -0.00000000000E+00 -0.10625819219E+04  0.10625819219E+04  0.00000000000E+00 0. -1.
          6    2    1    2  501    0  0.22625026035E+03  0.71369746706E+02 -0.89391638628E+03  0.94080288776E+03  0.17245505764E+03 0.  0.
         24    2    3    3    0    0  0.32287202524E+02  0.40004188630E+02 -0.26893420309E+03  0.28564620014E+03  0.81396237661E+02 0.  0.
         -6    2    1    2    0  502 -0.22625026035E+03 -0.71369746706E+02  0.27337633432E+01  0.29317833312E+03  0.17223019624E+03 0.  0.
        -24    2    5    5    0    0 -0.96019844522E+02 -0.41140887595E+02  0.63485565231E+02  0.14625448699E+03  0.80296791955E+02 0.  0.
          5    1    3    3  501    0  0.19396305782E+03  0.31365558075E+02 -0.62498218318E+03  0.65515668762E+03  0.47000000000E+01 0. -1.
        -13    1    4    4    0    0  0.93762868079E+01 -0.24039818846E+02 -0.10577014353E+03  0.10887217692E+03  0.00000000000E+00 0.  1.
         14    1    4    4    0    0  0.22910915717E+02  0.64044007476E+02 -0.16316405956E+03  0.17677402322E+03  0.00000000000E+00 0. -1.
         -5    1    5    5    0  502 -0.13023041582E+03 -0.30228859111E+02 -0.60751801888E+02  0.14692384613E+03  0.47000000000E+01 0.  1.
         13    1    6    6    0    0 -0.63547608427E+02  0.12458814108E+02  0.13636433806E+02  0.66177586181E+02  0.00000000000E+00 0. -1.
        -14    1    6    6    0    0 -0.32472236095E+02 -0.53599701702E+02  0.49849131425E+02  0.80076900810E+02  0.00000000000E+00 0.  1.
</event>
<event>
12    1  0.8052519E-002  0.1766200E+03  0.7818608E-02  0.1171146E+00
         21   -1    0    0  501  502  0.00000000000E+00  0.00000000000E+00  0.10630603055E+04  0.10630603055E+04  0.00000000000E+00 0. -1.
         21   -1    0    0  502  503 -0.00000000000E+00 -0.00000000000E+00 -0.50812513614E+02  0.50812513614E+02  0.00000000000E+00 0. -1.
         -6    2    1    2    0  503 -0.26146715925E+02 -0.34797010756E+02  0.14383169497E+03  0.22767805834E+03  0.17104168807E+03 0.  0.
        -24    2    3    3    0    0  0.63453299184E+01  0.41618623171E+02  0.50718174539E+02  0.10282895006E+03  0.78924563569E+02 0.  0.
          6    2    1    2  501    0  0.26146715925E+02  0.34797010756E+02  0.86841609692E+03  0.88619476078E+03  0.17117287733E+03 0.  0.
         24    2    5    5    0    0  0.81008276989E+02  0.23885132902E+02  0.49735386823E+03  0.51091069834E+03  0.80845722961E+02 0.  0.
          5    1    5    5  501    0 -0.54861561063E+02  0.10911877854E+02  0.37106222869E+03  0.37528406244E+03  0.47000000000E+01 0. -1.
        -11    1    6    6    0    0  0.43791347669E+02 -0.63336339023E+01  0.85449023019E+02  0.96225425871E+02  0.00000000000E+00 0.  1.
         12    1    6    6    0    0  0.37216929319E+02  0.30218766804E+02  0.41190484521E+03  0.41468527247E+03  0.00000000000E+00 0. -1.
         -5    1    3    3    0  503 -0.32492045844E+02 -0.76415633927E+02  0.93113520430E+02  0.12484910828E+03  0.47000000000E+01 0.  1.
         13    1    4    4    0    0  0.44634791604E+01 -0.19054997578E+02  0.35038697196E+02  0.40133849555E+02  0.00000000000E+00 0. -1.
        -14    1    4    4    0    0  0.18818507580E+01  0.60673620749E+02  0.15679477343E+02  0.62695100501E+02  0.00000000000E+00 0.  1.
</event>
<event>
12    1  0.8052519E-002  0.2242321E+03  0.7818608E-02  0.1130880E+00
         21   -1    0    0  503  502  0.00000000000E+00  0.00000000000E+00  0.21293555536E+03  0.21293555536E+03  0.00000000000E+00 0. -1.
         21   -1    0    0  501  503 -0.00000000000E+00 -0.00000000000E+00 -0.23547564364E+03  0.23547564364E+03  0.00000000000E+00 0.  1.
          6    2    1    2  501    0  0.46789088685E+02 -0.13550725619E+03 -0.12181213670E+02  0.22456267564E+03  0.17241977272E+03 0.  0.
         24    2    3    3    0    0  0.13398020539E+02 -0.47882282343E+02 -0.67671105782E+02  0.11550160284E+03  0.79303352917E+02 0.  0.
         -6    2    1    2    0  502 -0.46789088685E+02  0.13550725619E+03 -0.10358874611E+02  0.22384852335E+03  0.17160833262E+03 0.  0.
        -24    2    5    5    0    0  0.21718347112E+02  0.81908066122E+02  0.56532067545E+02  0.11401851799E+03  0.51222357295E+02 0.  0.
          5    1    3    3  501    0  0.33391068146E+02 -0.87624973849E+02  0.55489892112E+02  0.10906107280E+03  0.47000000000E+01 0. -1.
        -11    1    4    4    0    0  0.11838257653E+02  0.19908876065E+01  0.14833096917E+02  0.19082157684E+02  0.00000000000E+00 0.  1.
         12    1    4    4    0    0  0.15597628859E+01 -0.49873169949E+02 -0.82504202699E+02  0.96419445155E+02  0.00000000000E+00 0. -1.
         -5    1    5    5    0  502 -0.68507435797E+02  0.53599190070E+02 -0.66890942156E+02  0.10983000536E+03  0.47000000000E+01 0.  1.
         11    1    6    6    0    0  0.16317167513E+02  0.67435632030E+02  0.16796388878E+02  0.71385804627E+02  0.00000000000E+00 0. -1.
        -12    1    6    6    0    0  0.54011795991E+01  0.14472434092E+02  0.39735678667E+02  0.42632713364E+02  0.00000000000E+00 0.  1.
</event>
<event>
12    1  0.8052519E-002  0.2224537E+03  0.7818608E-02  0.1132458E+00
         21   -1    0    0  503  502  0.00000000000E+00  0.00000000000E+00  0.38837936213E+03  0.38837936213E+03  0.00000000000E+00 0.  1.
         21   -1    0    0  501  503 -0.00000000000E+00 -0.00000000000E+00 -0.18258444081E+03  0.18258444081E+03  0.00000000000E+00 0.  1.
          6    2    1    2  501    0 -0.13621438479E+03 -0.35255103136E+02 -0.56078315473E+02  0.22736051577E+03  0.16956044864E+03 0.  0.
         24    2    3    3    0    0 -0.78545625902E+02 -0.73298265907E+02 -0.82928080744E+01  0.14322661830E+03  0.94355934584E+02 0.  0.
         -6    2    1    2    0  502  0.13621438479E+03  0.35255103136E+02  0.26187323679E+03  0.34360328717E+03  0.17230306407E+03 0.  0.
        -24    2    5    5    0    0  0.55511863421E+02  0.31921543373E+02  0.23837115554E+03  0.25935100294E+03  0.79634056891E+02 0.  0.
          5    1    3    3  501    0 -0.57668758888E+02  0.38043162771E+02 -0.47785507398E+02  0.84133897465E+02  0.47000000000E+01 0. -1.
        -11    1    4    4    0    0 -0.46784129425E+02 -0.21995261269E+02 -0.48364917672E+02  0.70793442816E+02  0.00000000000E+00 0.  1.
         12    1    4    4    0    0 -0.31761496477E+02 -0.51303004638E+02  0.40072109598E+02  0.72433175486E+02  0.00000000000E+00 0. -1.
         -5    1    5    5    0  502  0.80702521369E+02  0.33335597633E+01  0.23502081245E+02  0.84252284235E+02  0.47000000000E+01 0.  1.
         11    1    6    6    0    0  0.22763789652E+02  0.20023733899E+02  0.16026059770E+02  0.34292486500E+02  0.00000000000E+00 0. -1.
        -12    1    6    6    0    0  0.32748073768E+02  0.11897809473E+02  0.22234509577E+03  0.22505851644E+03  0.00000000000E+00 0.  1.
</event>
<event>
12    1  0.8052519E-002  0.1865022E+03  0.7818608E-02  0.1161710E+00
         21   -1    0    0  501  502  0.00000000000E+00  0.00000000000E+00  0.29767597334E+03  0.29767597334E+03  0.00000000000E+00 0. -1.
         21   -1    0    0  502  503 -0.00000000000E+00 -0.00000000000E+00 -0.15917976981E+03  0.15917976981E+03  0.00000000000E+00 0.  1.
         -6    2    1    2    0  503  0.68174669667E+02 -0.75503532501E+01 -0.48726365176E+02  0.19276238376E+03  0.17343092143E+03 0.  0.
        -24    2    3    3    0    0  0.36886558515E+02  0.32433797088E+01 -0.99406437850E+02  0.13204986168E+03  0.78640882322E+02 0.  0.
          6    2    1    2  501    0 -0.68174669667E+02  0.75503532501E+01  0.18722256870E+03  0.26409335939E+03  0.17317106810E+03 0.  0.
         24    2    5    5    0    0 -0.27067111829E+02  0.14862542447E+02  0.21791371024E+02  0.93409820095E+02  0.85422520030E+02 0.  0.
          5    1    5    5  501    0 -0.41107557838E+02 -0.73121891971E+01  0.16543119768E+03  0.17068353930E+03  0.47000000000E+01 0. -1.
        -11    1    6    6    0    0  0.17920517968E+02 -0.15903006375E+02 -0.14430591446E+02  0.27969493122E+02  0.00000000000E+00 0.  1.
         12    1    6    6    0    0 -0.44987629798E+02  0.30765548822E+02  0.36221962470E+02  0.65440326973E+02  0.00000000000E+00 0. -1.
         -5    1    3    3    0  503  0.31288111153E+02 -0.10793732959E+02  0.50680072674E+02  0.60712522077E+02  0.47000000000E+01 0.  1.
         13    1    4    4    0    0  0.33339584501E+02  0.34492572317E+02 -0.31992927300E+02  0.57661190042E+02  0.00000000000E+00 0. -1.
        -14    1    4    4    0    0  0.35469740138E+01 -0.31249192609E+02 -0.67413510549E+02  0.74388671637E+02  0.00000000000E+00 0.  1.
</event>
<event>
12    1  0.8052519E-002  0.1857079E+03  0.7818608E-02  0.1163116E+00
         21   -1    0    0  503  502  0.00000000000E+00  0.00000000000E+00  0.22958192966E+03  0.22958192966E+03  0.00000000000E+00 0.  1.
         21   -1    0    0  501  503 -0.00000000000E+00 -0.00000000000E+00 -0.14861941967E+03  0.14861941967E+03  0.00000000000E+00 0.  1.
          6    2    1    2  501    0 -0.59640646839E+02  0.37929612651E+02  0.25476067696E+02  0.18438138622E+03  0.16837993731E+03 0.  0.
         24    2    3    3    0    0 -0.58518677874E+02  0.87037680737E+02  0.28797469469E+02  0.13492450727E+03  0.79845694229E+02 0.  0.
         -6    2    1    2    0  502  0.59640646839E+02 -0.37929612651E+02  0.55486442291E+02  0.19381996310E+03  0.17173168184E+03 0.  0.
        -24    2    5    5    0    0  0.43832251320E+02 -0.68480943675E+02  0.89838305539E+02  0.14497910209E+03  0.79605985940E+02 0.  0.
          5    1    3    3  501    0 -0.11219689646E+01 -0.49108068086E+02 -0.33214017727E+01  0.49456878948E+02  0.47000000000E+01 0. -1.
        -11    1    4    4    0    0 -0.24348386831E+02  0.19644680274E+02  0.47691682102E+02  0.57037303110E+02  0.00000000000E+00 0.  1.
         12    1    4    4    0    0 -0.34170291044E+02  0.67393000463E+02 -0.18894212633E+02  0.77887204164E+02  0.00000000000E+00 0. -1.
         -5    1    5    5    0  502  0.15808395519E+02  0.30551331024E+02 -0.34351863247E+02  0.48840861016E+02  0.47000000000E+01 0.  1.
         11    1    6    6    0    0 -0.26848722955E+01  0.16090389246E+02  0.20175065947E+02  0.25944988943E+02  0.00000000000E+00 0. -1.
        -12    1    6    6    0    0  0.46517123615E+02 -0.84571332921E+02  0.69663239592E+02  0.11903411314E+03  0.00000000000E+00 0.  1.
</event>
<event>
12    1  0.8052519E-002  0.3221888E+03  0.7818608E-02  0.1074699E+00
         21   -1    0    0  501  502  0.00000000000E+00  0.00000000000E+00  0.55425225287E+03  0.55425225287E+03  0.00000000000E+00 0. -1.
         21   -1    0    0  502  503 -0.00000000000E+00 -0.00000000000E+00 -0.15118756066E+04  0.15118756066E+04  0.00000000000E+00 0.  1.
         -6    2    1    2    0  503 -0.17535098003E+02 -0.27201801804E+03 -0.14459140011E+04  0.14813753446E+04  0.17176824906E+03 0.  0.
        -24    2    3    3    0    0  0.54883661285E+02 -0.13330568431E+03 -0.80540431678E+03  0.82201176216E+03  0.79022793457E+02 0.  0.
          6    2    1    2  501    0  0.17535098003E+02  0.27201801804E+03  0.48829064733E+03  0.58475251486E+03  0.17089899230E+03 0.  0.
         24    2    5    5    0    0 -0.15590950078E+02  0.19564565320E+03  0.26959677664E+03  0.35070300675E+03  0.10858120291E+03 0.  0.
          5    1    5    5  501    0  0.33126048081E+02  0.76372364837E+02  0.21869387069E+03  0.23404950811E+03  0.47000000000E+01 0. -1.
        -11    1    6    6    0    0 -0.88552929148E+00 -0.86707531609E+01  0.48582356592E+02  0.49357993219E+02  0.00000000000E+00 0.  1.
         12    1    6    6    0    0 -0.14705420786E+02  0.20431640636E+03  0.22101442005E+03  0.30134501353E+03  0.00000000000E+00 0. -1.
         -5    1    3    3    0  503 -0.72418759288E+02 -0.13871233373E+03 -0.64050968429E+03  0.65936358248E+03  0.47000000000E+01 0.  1.
         13    1    4    4    0    0  0.69055807231E+02 -0.74131216955E+02 -0.43494006898E+03  0.44658370486E+03  0.00000000000E+00 0. -1.
        -14    1    4    4    0    0 -0.14172145946E+02 -0.59174467357E+02 -0.37046424780E+03  0.37542805730E+03  0.00000000000E+00 0.  1.
</event>
<event>
12    1  0.8052519E-002  0.1826404E+03  0.7818608E-02  0.1165371E+00
         21   -1    0    0  501  502  0.00000000000E+00  0.00000000000E+00  0.13649989598E+03  0.13649989598E+03  0.00000000000E+00 0. -1.
         21   -1    0    0  502  503 -0.00000000000E+00 -0.00000000000E+00 -0.41496101941E+03  0.41496101941E+03  0.00000000000E+00 0. -1.
         -6    2    1    2    0  503  0.54659830592E+02 -0.23699079872E+02 -0.31639901849E+03  0.36532978603E+03  0.17265042771E+03 0.  0.
        -24    2    3    3    0    0  0.78035789400E+02  0.16978055692E+02 -0.12853389948E+03  0.17163812965E+03  0.80999045875E+02 0.  0.
          6    2    1    2  501    0 -0.54659830592E+02  0.23699079872E+02  0.37937895067E+02  0.18613112936E+03  0.17220966863E+03 0.  0.
         24    2    5    5    0    0 -0.43556311119E+02 -0.32352474877E+02 -0.25110246217E+02  0.10091245152E+03  0.81295532085E+02 0.  0.
          5    1    5    5  501    0 -0.11103519473E+02  0.56051554749E+02  0.63048141284E+02  0.85218677846E+02  0.47000000000E+01 0. -1.
        -11    1    6    6    0    0  0.22431862264E+02 -0.88765960763E+01  0.50629975179E+01  0.24649875180E+02  0.00000000000E+00 0.  1.
         12    1    6    6    0    0 -0.65988173383E+02 -0.23475878801E+02 -0.30173243735E+02  0.76262576336E+02  0.00000000000E+00 0. -1.
         -5    1    3    3    0  503 -0.23375958808E+02 -0.40677135564E+02 -0.18786511901E+03  0.19369165637E+03  0.47000000000E+01 0.  1.
         13    1    4    4    0    0  0.62695405557E+02 -0.67499804933E+01 -0.12877169100E+03  0.14338209273E+03  0.00000000000E+00 0. -1.
        -14    1    4    4    0    0  0.15340383842E+02  0.23728036186E+02  0.23779151350E+00  0.28256036920E+02  0.00000000000E+00 0.  1.
</event>
<event>
12    1  0.8052519E-002  0.1851653E+03  0.7818608E-02  0.1163378E+00
         21   -1    0    0  503  502  0.00000000000E+00  0.00000000000E+00  0.53780057238E+02  0.53780057238E+02  0.00000000000E+00 0. -1.
         21   -1    0    0  501  503 -0.00000000000E+00 -0.00000000000E+00 -0.66382136388E+03  0.66382136388E+03  0.00000000000E+00 0.  1.
          6    2    1    2  501    0  0.60297239889E+02  0.31209990194E+02 -0.38383446406E+03  0.42527332142E+03  0.17005493667E+03 0.  0.
         24    2    3    3    0    0  0.25741164771E+02 -0.47483147793E+02 -0.16543124670E+03  0.19052071196E+03  0.77546034158E+02 0.  0.
         -6    2    1    2    0  502 -0.60297239889E+02 -0.31209990194E+02 -0.22620684258E+03  0.29232809970E+03  0.17226828384E+03 0.  0.
        -24    2    5    5    0    0  0.17136892960E+02 -0.47542006954E+02 -0.17459252353E+03  0.19772943357E+03  0.77848982676E+02 0.  0.
          5    1    3    3  501    0  0.34556075118E+02  0.78693137987E+02 -0.21840321736E+03  0.23475260946E+03  0.47000000000E+01 0. -1.
        -11    1    4    4    0    0 -0.52668610988E+01  0.10821170778E+02 -0.87715410966E+02  0.88537172328E+02  0.00000000000E+00 0.  1.
         12    1    4    4    0    0  0.31008025870E+02 -0.58304318571E+02 -0.77715835733E+02  0.10198353963E+03  0.00000000000E+00 0. -1.
         -5    1    5    5    0  502 -0.77434132849E+02  0.16332016761E+02 -0.51614319057E+02  0.94598666128E+02  0.47000000000E+01 0.  1.
         13    1    6    6    0    0 -0.21709023212E+02 -0.38640602481E+02 -0.49503010751E+02  0.66444908927E+02  0.00000000000E+00 0. -1.
        -14    1    6    6    0    0  0.38845916172E+02 -0.89014044737E+01 -0.12508951278E+03  0.13128452465E+03  0.00000000000E+00 0.  1.
</event>
<event>
12    1  0.8052519E-002  0.1763743E+03  0.7818608E-02  0.1171388E+00
         21   -1    0    0  501  502  0.00000000000E+00  0.00000000000E+00  0.14240393989E+03  0.14240393989E+03  0.00000000000E+00 0.  1.
         21   -1    0    0  502  503 -0.00000000000E+00 -0.00000000000E+00 -0.22457300897E+03  0.22457300897E+03  0.00000000000E+00 0.  1.
         -6    2    1    2    0  503  0.29820602325E+02 -0.25256275921E+02 -0.71760261456E+02  0.19041383906E+03  0.17199054388E+03 0.  0.
        -24    2    3    3    0    0  0.75866832972E+02 -0.48829243976E+02 -0.66516928857E+02  0.13820730004E+03  0.80849765292E+02 0.  0.
          6    2    1    2  501    0 -0.29820602325E+02  0.25256275921E+02 -0.10408807616E+02  0.17656310980E+03  0.17186925458E+03 0.  0.
         24    2    5    5    0    0 -0.85040880180E+02  0.25728066076E+01 -0.61412567525E+01  0.11652877915E+03  0.79389361372E+02 0.  0.
          5    1    5    5  501    0  0.55220277854E+02  0.22683469313E+02 -0.42675508634E+01  0.60034330651E+02  0.47000000000E+01 0. -1.
        -13    1    6    6    0    0 -0.50327084448E+02  0.31691018045E+02 -0.28560938342E+02  0.65976232483E+02  0.00000000000E+00 0.  1.
         14    1    6    6    0    0 -0.34713795732E+02 -0.29118211437E+02  0.22419681589E+02  0.50552546662E+02  0.00000000000E+00 0. -1.
         -5    1    3    3    0  503 -0.46046230646E+02  0.23572968055E+02 -0.52433325989E+01  0.52206539020E+02  0.47000000000E+01 0.  1.
         11    1    4    4    0    0  0.31367268058E+02 -0.59555724481E+00  0.13982257711E+02  0.34347688780E+02  0.00000000000E+00 0. -1.
        -12    1    4    4    0    0  0.44499564914E+02 -0.48233686731E+02 -0.80499186568E+02  0.10385961126E+03  0.00000000000E+00 0.  1.
</event>
<event>
12    1  0.8052519E-002  0.1725712E+03  0.7818608E-02  0.1176602E+00
         21   -1    0    0  503  502  0.00000000000E+00  0.00000000000E+00  0.22652908968E+03  0.22652908968E+03  0.00000000000E+00 0.  1.
         21   -1    0    0  501  503 -0.00000000000E+00 -0.00000000000E+00 -0.24029039315E+03  0.24029039315E+03  0.00000000000E+00 0.  1.
          6    2    1    2  501    0 -0.65236462553E+01  0.87354321357E+01 -0.16693522870E+03  0.24010039193E+03  0.17222648429E+03 0.  0.
         24    2    3    3    0    0  0.60861210939E+02  0.10664125634E+02 -0.75479994073E+02  0.12638764516E+03  0.80366639666E+02 0.  0.
         -6    2    1    2    0  502  0.65236462553E+01 -0.87354321357E+01  0.15317392523E+03  0.22671909090E+03  0.16679457147E+03 0.  0.
        -24    2    5    5    0    0 -0.34586521109E+02  0.22022232114E+01  0.16074666574E+03  0.18325514533E+03  0.80881892374E+02 0.  0.
          5    1    3    3  501    0 -0.67384857195E+02 -0.19286934985E+01 -0.91455234628E+02  0.11371274677E+03  0.47000000000E+01 0. -1.
        -13    1    4    4    0    0  0.33635303701E+02 -0.41228232282E+01 -0.86973652694E+02  0.93342099770E+02  0.00000000000E+00 0.  1.
         14    1    4    4    0    0  0.27225907239E+02  0.14786948862E+02  0.11493658621E+02  0.33045545390E+02  0.00000000000E+00 0. -1.
         -5    1    5    5    0  502  0.41110167365E+02 -0.10937655347E+02 -0.75727405142E+01  0.43463945566E+02  0.47000000000E+01 0.  1.
         11    1    6    6    0    0  0.11261943929E+02  0.49480081587E+01 -0.34335806389E+01  0.12771203616E+02  0.00000000000E+00 0. -1.
        -12    1    6    6    0    0 -0.45848465038E+02 -0.27457849473E+01  0.16418024638E+03  0.17048394171E+03  0.00000000000E+00 0.  1.
</event>
<event>
12    1  0.8052519E-002  0.2116238E+03  0.7818608E-02  0.1140554E+00
         21   -1    0    0  503  502  0.00000000000E+00  0.00000000000E+00  0.22331756145E+03  0.22331756145E+03  0.00000000000E+00 0.  1.
         21   -1    0    0  501  503 -0.00000000000E+00 -0.00000000000E+00 -0.19999287263E+03  0.19999287263E+03  0.00000000000E+00 0. -1.
          6    2    1    2  501    0  0.11132729949E+03 -0.44938173244E+02 -0.12310288759E+01  0.21026673180E+03  0.17261916477E+03 0.  0.
         24    2    3    3    0    0  0.82753578050E+02  0.14532544858E+02  0.56059147735E+02  0.12275971377E+03  0.69770837325E+02 0.  0.
         -6    2    1    2    0  502 -0.11132729949E+03  0.44938173244E+02  0.24555717697E+02  0.21304370227E+03  0.17427400488E+03 0.  0.
        -24    2    5    5    0    0 -0.13038357197E+02 -0.23164050718E+02  0.36707443465E+02  0.92759108390E+02  0.80933576342E+02 0.  0.
          5    1    3    3  501    0  0.28573721437E+02 -0.59470718103E+02 -0.57290176611E+02  0.87507018030E+02  0.47000000000E+01 0. -1.
        -13    1    4    4    0    0  0.55851946904E+02 -0.24902699282E+02  0.36143630829E+02  0.71034825641E+02  0.00000000000E+00 0.  1.
         14    1    4    4    0    0  0.26901631147E+02  0.39435244140E+02  0.19915516906E+02  0.51724888133E+02  0.00000000000E+00 0. -1.
         -5    1    5    5    0  502 -0.98288942290E+02  0.68102223963E+02 -0.12151725767E+02  0.12028459388E+03  0.47000000000E+01 0.  1.
         13    1    6    6    0    0 -0.25646032586E+01  0.11158635164E+02 -0.21511696864E+02  0.24368943978E+02  0.00000000000E+00 0. -1.
        -14    1    6    6    0    0 -0.10473753939E+02 -0.34322685882E+02  0.58219140329E+02  0.68390164412E+02  0.00000000000E+00 0.  1.
</event>
<event>
12    1  0.8052519E-002  0.1807568E+03  0.7818608E-02  0.1167138E+00
         21   -1    0    0  501  502  0.00000000000E+00  0.00000000000E+00  0.23436282389E+03  0.23436282389E+03  0.00000000000E+00 0. -1.
         21   -1    0    0  502  503 -0.00000000000E+00 -0.00000000000E+00 -0.19022937260E+03  0.19022937260E+03  0.00000000000E+00 0. -1.
         -6    2    1    2    0  503 -0.43847948622E+02  0.25894458611E+02 -0.87873583816E+02  0.20098457282E+03  0.17343548136E+03 0.  0.
        -24    2    3    3    0    0 -0.55054446646E+02 -0.46185328951E+02 -0.40242085409E+02  0.11373819173E+03  0.78440258249E+02 0.  0.
          6    2    1    2  501    0  0.43847948622E+02 -0.25894458611E+02  0.13200703511E+03  0.22360762368E+03  0.17315122427E+03 0.  0.
         24    2    5    5    0    0 -0.45025301017E+01  0.46050340179E+02  0.87547580871E+02  0.12607529090E+03  0.78035206491E+02 0.  0.
          5    1    5    5  501    0  0.48350478724E+02 -0.71944798790E+02  0.44459454235E+02  0.97532332775E+02  0.47000000000E+01 0. -1.
        -13    1    6    6    0    0 -0.11697739536E+02  0.47180116775E+02  0.11855396425E+02  0.50033498314E+02  0.00000000000E+00 0.  1.
         14    1    6    6    0    0  0.71952094345E+01 -0.11297765957E+01  0.75692184446E+02  0.76041792589E+02  0.00000000000E+00 0. -1.
         -5    1    3    3    0  503  0.11206498024E+02  0.72079787561E+02 -0.47631498406E+02  0.87246381090E+02  0.47000000000E+01 0.  1.
         13    1    4    4    0    0 -0.44286435272E+02  0.12281482534E+02 -0.99797210795E+01  0.47028905953E+02  0.00000000000E+00 0. -1.
        -14    1    4    4    0    0 -0.10768011374E+02 -0.58466811484E+02 -0.30262364330E+02  0.66709285777E+02  0.00000000000E+00 0.  1.
</event>
<event>
12    1  0.8052519E-002  0.1836215E+03  0.7818608E-02  0.1166157E+00
         21   -1    0    0  503  502  0.00000000000E+00  0.00000000000E+00  0.98746378106E+02  0.98746378106E+02  0.00000000000E+00 0. -1.
         21   -1    0    0  501  503 -0.00000000000E+00 -0.00000000000E+00 -0.37506169916E+03  0.37506169916E+03  0.00000000000E+00 0.  1.
          6    2    1    2  501    0  0.55228395293E+02 -0.37965258007E+02 -0.21988558376E+03  0.28171128362E+03  0.16284974950E+03 0.  0.
         24    2    3    3    0    0  0.81236600666E+02 -0.66200375660E+02 -0.14556061389E+03  0.19792620284E+03  0.83695964235E+02 0.  0.
         -6    2    1    2    0  502 -0.55228395293E+02  0.37965258007E+02 -0.56429737301E+02  0.19209679365E+03  0.17095416467E+03 0.  0.
        -24    2    5    5    0    0 -0.51232400864E+02 -0.35956492167E+02 -0.60202310114E+02  0.11782219890E+03  0.79624896749E+02 0.  0.
          5    1    3    3  501    0 -0.26008205373E+02  0.28235117653E+02 -0.74324969865E+02  0.83785080778E+02  0.47000000000E+01 0. -1.
        -11    1    4    4    0    0 -0.31834152111E+01  0.13214471004E+02 -0.35821943510E+02  0.38314070694E+02  0.00000000000E+00 0.  1.
         12    1    4    4    0    0  0.84420015877E+02 -0.79414846664E+02 -0.10973867038E+03  0.15961213215E+03  0.00000000000E+00 0. -1.
         -5    1    5    5    0  502 -0.39959944284E+01  0.73921750174E+02  0.37725728129E+01  0.74274594754E+02  0.47000000000E+01 0.  1.
         13    1    6    6    0    0 -0.54251647826E+01 -0.34688668651E+02  0.76606477043E+01  0.35936355811E+02  0.00000000000E+00 0. -1.
        -14    1    6    6    0    0 -0.45807236082E+02 -0.12678235159E+01 -0.67862957818E+02  0.81885843085E+02  0.00000000000E+00 0.  1.
</event>
<event>
12    1  0.8052519E-002  0.2042142E+03  0.7818608E-02  0.1146816E+00
         21   -1    0    0  501  502  0.00000000000E+00  0.00000000000E+00  0.20590121774E+03  0.20590121774E+03  0.00000000000E+00 0. -1.
         21   -1    0    0  502  503 -0.00000000000E+00 -0.00000000000E+00 -0.20120075522E+03  0.20120075522E+03  0.00000000000E+00 0.  1.
         -6    2    1    2    0  503 -0.94445227247E+02 -0.54610316817E+02  0.19659028266E+02  0.20515828064E+03  0.17263040019E+03 0.  0.
        -24    2    3    3    0    0 -0.69563415868E+02 -0.40329382586E+02  0.79246233999E+02  0.13885764183E+03  0.80845229687E+02 0.  0.
          6    2    1    2  501    0  0.94445227247E+02  0.54610316817E+02 -0.14958565752E+02  0.20194369232E+03  0.16927878936E+03 0.  0.
         24    2    5    5    0    0 -0.15472910740E+02  0.71210040816E+01 -0.12103486381E+02  0.82079296604E+02  0.79375039418E+02 0.  0.
          5    1    5    5  501    0  0.10991813799E+03  0.47489312736E+02 -0.28550793707E+01  0.11986439572E+03  0.47000000000E+01 0. -1.
        -13    1    6    6    0    0  0.27703795150E+02  0.21712573990E+02 -0.93566987457E+01  0.36420927314E+02  0.00000000000E+00 0.  1.
         14    1    6    6    0    0 -0.43176705890E+02 -0.14591569909E+02 -0.27467876358E+01  0.45658369290E+02  0.00000000000E+00 0. -1.
         -5    1    3    3    0  503 -0.24881811379E+02 -0.14280934232E+02 -0.59587205733E+02  0.66300638814E+02  0.47000000000E+01 0.  1.
         13    1    4    4    0    0 -0.65304130978E+02 -0.63038308652E+02  0.65999243177E+02  0.11222458724E+03  0.00000000000E+00 0. -1.
        -14    1    4    4    0    0 -0.42592848904E+01  0.22708926066E+02  0.13246990822E+02  0.26633054589E+02  0.00000000000E+00 0.  1.
</event>
<event>
12    1  0.8052519E-002  0.1745027E+03  0.7818608E-02  0.1173384E+00
         21   -1    0    0  501  502  0.00000000000E+00  0.00000000000E+00  0.80624806263E+02  0.80624806263E+02  0.00000000000E+00 0. -1.
         21   -1    0    0  502  503 -0.00000000000E+00 -0.00000000000E+00 -0.37874386151E+03  0.37874386151E+03  0.00000000000E+00 0. -1.
         -6    2    1    2    0  503 -0.23362847354E+02  0.10345506935E+01 -0.13070043261E+03  0.21754189287E+03  0.17232231178E+03 0.  0.
        -24    2    3    3    0    0  0.13193316456E+02  0.52470122727E+02 -0.32991402524E+02  0.10113263317E+03  0.78817507405E+02 0.  0.
          6    2    1    2  501    0  0.23362847354E+02 -0.10345506935E+01 -0.16741862263E+03  0.24182677490E+03  0.17292860065E+03 0.  0.
         24    2    5    5    0    0  0.81332420013E+01 -0.64689248200E+02 -0.13229667356E+03  0.16739893938E+03  0.79177942706E+02 0.  0.
          5    1    5    5  501    0  0.15229605353E+02  0.63654697507E+02 -0.35121949069E+02  0.74427835520E+02  0.47000000000E+01 0. -1.
        -11    1    6    6    0    0  0.10928903656E+02  0.16441979392E+02 -0.39116447946E+02  0.43816391012E+02  0.00000000000E+00 0.  1.
         12    1    6    6    0    0 -0.27956616550E+01 -0.81131227592E+02 -0.93180225618E+02  0.12358254837E+03  0.00000000000E+00 0. -1.
         -5    1    3    3    0  503 -0.36556163810E+02 -0.51435572034E+02 -0.97709030091E+02  0.11640925970E+03  0.47000000000E+01 0.  1.
         11    1    4    4    0    0  0.25324966224E+02  0.32751986301E+02  0.17990045044E+02  0.45140760312E+02  0.00000000000E+00 0. -1.
        -12    1    4    4    0    0 -0.12131649768E+02  0.19718136426E+02 -0.50981447568E+02  0.55991872859E+02  0.00000000000E+00 0.  1.
</event>
<event>
12    1  0.8052519E-002  0.2822144E+03  0.7818608E-02  0.1096530E+00
         21   -1    0    0  501  502  0.00000000000E+00  0.00000000000E+00  0.16968161401E+03  0.16968161401E+03  0.00000000000E+00 0. -1.
         21   -1    0    0  502  503 -0.00000000000E+00 -0.00000000000E+00 -0.10167821156E+04  0.10167821156E+04  0.00000000000E+00 0.  1.
         -6    2    1    2    0  503 -0.10033062246E+03 -0.17904455717E+03 -0.86328708101E+03  0.90378550599E+03  0.17158225241E+03 0.  0.
        -24    2    3    3    0    0 -0.95453168461E+02 -0.93509932156E+02 -0.72646978364E+03  0.74228930017E+03  0.73346055300E+02 0.  0.
          6    2    1    2  501    0  0.10033062246E+03  0.17904455717E+03  0.16186579377E+02  0.28267822367E+03  0.19370540914E+03 0.  0.
         24    2    5    5    0    0 -0.18705482772E+02  0.79117411448E+02 -0.32866848461E+02  0.11963418795E+03  0.81379661577E+02 0.  0.
          5    1    5    5  501    0  0.11903610524E+03  0.99927145719E+02  0.49053427837E+02  0.16304403572E+03  0.47000000000E+01 0. -1.
        -11    1    6    6    0    0  0.87552679356E+01  0.45034854201E+01 -0.38681700451E+02  0.39915035354E+02  0.00000000000E+00 0.  1.
         12    1    6    6    0    0 -0.27460750707E+02  0.74613926028E+02  0.58148519900E+01  0.79719152594E+02  0.00000000000E+00 0. -1.
         -5    1    3    3    0  503 -0.48774540041E+01 -0.85534625011E+02 -0.13681729737E+03  0.16149620582E+03  0.47000000000E+01 0.  1.
         13    1    4    4    0    0 -0.18330538931E+02 -0.17164013510E+02 -0.39539811122E+02  0.46840246379E+02  0.00000000000E+00 0. -1.
        -14    1    4    4    0    0 -0.77122629530E+02 -0.76345918646E+02 -0.68692997252E+03  0.69544905379E+03  0.00000000000E+00 0.  1.
</event>
<event>
12    1  0.8052519E-002  0.1830107E+03  0.7818608E-02  0.1166253E+00
         21   -1    0    0  503  502  0.00000000000E+00  0.00000000000E+00  0.78846611414E+03  0.78846611414E+03  0.00000000000E+00 0.  1.
         21   -1    0    0  501  503 -0.00000000000E+00 -0.00000000000E+00 -0.50466730571E+02  0.50466730571E+02  0.00000000000E+00 0.  1.
          6    2    1    2  501    0  0.38548236696E+02  0.13692087124E+02  0.19393216476E+03  0.26665069300E+03  0.17838012150E+03 0.  0.
         24    2    3    3    0    0 -0.21017689372E+02 -0.47422950138E+02  0.10441368419E+03  0.14288157047E+03  0.82596890179E+02 0.  0.
         -6    2    1    2    0  502 -0.38548236696E+02 -0.13692087124E+02  0.54406721881E+03  0.57228215172E+03  0.17269708389E+03 0.  0.
        -24    2    5    5    0    0  0.25275653841E+02 -0.51130228939E+02  0.36403312572E+03  0.37757861261E+03  0.82415611928E+02 0.  0.
          5    1    3    3  501    0  0.59565926067E+02  0.61115037262E+02  0.89518480571E+02  0.12376912253E+03  0.47000000000E+01 0. -1.
        -11    1    4    4    0    0  0.22366453822E+02 -0.28080012868E+02  0.83675019244E+02  0.91050833191E+02  0.00000000000E+00 0.  1.
         12    1    4    4    0    0 -0.43384143194E+02 -0.19342937271E+02  0.20738664942E+02  0.51830737276E+02  0.00000000000E+00 0. -1.
         -5    1    5    5    0  502 -0.63823890537E+02  0.37438141815E+02  0.18003409309E+03  0.19470353911E+03  0.47000000000E+01 0.  1.
         11    1    6    6    0    0 -0.18338019776E+02 -0.45817851145E+02  0.12224342805E+03  0.13182948894E+03  0.00000000000E+00 0. -1.
        -12    1    6    6    0    0  0.43613673617E+02 -0.53123777941E+01  0.24178969768E+03  0.24574912368E+03  0.00000000000E+00 0.  1.
</event>
<event>
12    1  0.8052519E-002  0.1823650E+03  0.7818608E-02  0.1165710E+00
         21   -1    0    0  501  502  0.00000000000E+00  0.00000000000E+00  0.36946047408E+03  0.36946047408E+03  0.00000000000E+00 0. -1.
         21   -1    0    0  502  503 -0.00000000000E+00 -0.00000000000E+00 -0.10651526126E+03  0.10651526126E+03  0.00000000000E+00 0.  1.
         -6    2    1    2    0  503 -0.42597267572E+02  0.43221600291E+02  0.22639224478E+03  0.29070677668E+03  0.17197193834E+03 0.  0.
        -24    2    3    3    0    0 -0.90441882132E+02  0.26569881786E+02  0.10960430621E+03  0.16331800376E+03  0.75986668236E+02 0.  0.
          6    2    1    2  501    0  0.42597267572E+02 -0.43221600291E+02  0.36552968031E+02  0.18526895866E+03  0.17118946707E+03 0.  0.
         24    2    5    5    0    0  0.11804210982E+01 -0.53745835912E+02 -0.33358322994E+02  0.10319707968E+03  0.81528223755E+02 0.  0.
          5    1    5    5  501    0  0.41416846474E+02  0.10524235621E+02  0.69911291024E+02  0.82071878984E+02  0.47000000000E+01 0. -1.
        -11    1    6    6    0    0 -0.51590826974E+01 -0.75094413565E+02 -0.27827584730E+02  0.80250617161E+02  0.00000000000E+00 0.  1.
         12    1    6    6    0    0  0.63395037957E+01  0.21348577652E+02 -0.55307382637E+01  0.22946462514E+02  0.00000000000E+00 0. -1.
         -5    1    3    3    0  503  0.47844614560E+02  0.16651718505E+02  0.11678793857E+03  0.12738877292E+03  0.47000000000E+01 0.  1.
         11    1    4    4    0    0 -0.48576316233E+02 -0.21470836678E+02  0.71515300652E+02  0.89079142080E+02  0.00000000000E+00 0. -1.
        -12    1    4    4    0    0 -0.41865565898E+02  0.48040718464E+02  0.38089005559E+02  0.74238861676E+02  0.00000000000E+00 0.  1.
</event>
<event>
12    1  0.8052519E-002  0.2104476E+03  0.7818608E-02  0.1141286E+00
         21   -1    0    0  503  502  0.00000000000E+00  0.00000000000E+00  0.13378227244E+03  0.13378227244E+03  0.00000000000E+00 0.  1.
         21   -1    0    0  501  503 -0.00000000000E+00 -0.00000000000E+00 -0.51128354115E+03  0.51128354115E+03  0.00000000000E+00 0. -1.
          6    2    1    2  501    0 -0.11582901073E+03 -0.34519547213E+02 -0.38045390077E+03  0.43459753723E+03  0.17181935248E+03 0.  0.
         24    2    3    3    0    0 -0.73884228562E+02  0.30518662291E+02 -0.30770618010E+03  0.32827889207E+03  0.81814850280E+02 0.  0.
         -6    2    1    2    0  502  0.11582901073E+03  0.34519547213E+02  0.29526320642E+01  0.21046827636E+03  0.17227947775E+03 0.  0.
        -24    2    5    5    0    0  0.52473819039E+02 -0.43706747506E+02 -0.20078380502E+02  0.10709636993E+03  0.80016933374E+02 0.  0.
          5    1    3    3  501    0 -0.41944782164E+02 -0.65038209504E+02 -0.72747720674E+02  0.10631864516E+03  0.47000000000E+01 0. -1.
        -11    1    4    4    0    0  0.17501612443E+02 -0.15526344673E+00 -0.37239950765E+02  0.41147836855E+02  0.00000000000E+00 0.  1.
         12    1    4    4    0    0 -0.91385841005E+02  0.30673925738E+02 -0.27046622934E+03  0.28713105521E+03  0.00000000000E+00 0. -1.
         -5    1    5    5    0  502  0.63355191687E+02  0.78226294718E+02  0.23031012566E+02  0.10337190643E+03  0.47000000000E+01 0.  1.
         11    1    6    6    0    0 -0.74837567802E+01  0.75268542187E+01 -0.25925616404E+02  0.28014241662E+02  0.00000000000E+00 0. -1.
        -12    1    6    6    0    0  0.59957575819E+02 -0.51233601724E+02  0.58472359024E+01  0.79082128268E+02  0.00000000000E+00 0.  1.
</event>
<event>
12    1  0.8052519E-002  0.1873281E+03  0.7818608E-02  0.1161083E+00
         21   -1    0    0  501  502  0.00000000000E+00  0.00000000000E+00  0.22887030399E+03  0.22887030399E+03  0.00000000000E+00 0.  1.
         21   -1    0    0  502  503 -0.00000000000E+00 -0.00000000000E+00 -0.15796526821E+03  0.15796526821E+03  0.00000000000E+00 0.  1.
         -6    2    1    2    0  503  0.41984808814E+01  0.70856673776E+02  0.70991169236E+02  0.20032868380E+03  0.17335956848E+03 0.  0.
        -24    2    3    3    0    0 -0.49591395959E+02 -0.11395908206E+02  0.53684085183E+02  0.10042641530E+03  0.67928717127E+02 0.  0.
          6    2    1    2  501    0 -0.41984808814E+01 -0.70856673776E+02 -0.86133453906E-01  0.18650688840E+03  0.17247178476E+03 0.  0.
         24    2    5    5    0    0  0.56542543113E+02 -0.77334423451E+02  0.61297907997E+01  0.12492636427E+03  0.79945918741E+02 0.  0.
          5    1    5    5  501    0 -0.60741023995E+02  0.64777496743E+01 -0.62159242537E+01  0.61580524122E+02  0.47000000000E+01 0. -1.
        -13    1    6    6    0    0 -0.30093666004E+01 -0.35605197633E+02  0.31778023810E+02  0.47818711642E+02  0.00000000000E+00 0.  1.
         14    1    6    6    0    0  0.59551909714E+02 -0.41729225818E+02 -0.25648233010E+02  0.77107652632E+02  0.00000000000E+00 0. -1.
         -5    1    3    3    0  503  0.53789876840E+02  0.82252581982E+02  0.17307084053E+02  0.99902268501E+02  0.47000000000E+01 0.  1.
         11    1    4    4    0    0  0.15458952644E+02 -0.11078776957E+02  0.18212170289E+02  0.26332521002E+02  0.00000000000E+00 0. -1.
        -12    1    4    4    0    0 -0.65050348603E+02 -0.31713124894E+00  0.35471914894E+02  0.74093894295E+02  0.00000000000E+00 0.  1.
</event>
<event>
12    1  0.8052519E-002  0.2452340E+03  0.7818608E-02  0.1116395E+00
         21   -1    0    0  501  502  0.00000000000E+00  0.00000000000E+00  0.35412440756E+03  0.35412440756E+03  0.00000000000E+00 0. -1.
         21   -1    0    0  502  503 -0.00000000000E+00 -0.00000000000E+00 -0.17907810012E+03  0.17907810012E+03  0.00000000000E+00 0. -1.
         -6    2    1    2    0  503  0.12141577391E+03 -0.12549089774E+03  0.26313412832E+02  0.24639040521E+03  0.17183154693E+03 0.  0.
        -24    2    3    3    0    0  0.96399488298E+02 -0.10561159421E+03  0.80640485555E+02  0.18318817357E+03  0.81291751422E+02 0.  0.
          6    2    1    2  501    0 -0.12141577391E+03  0.12549089774E+03  0.14873289461E+03  0.28681210247E+03  0.17219161598E+03 0.  0.
         24    2    5    5    0    0 -0.11739116771E+03  0.42614658226E+02  0.13939740205E+03  0.20318250273E+03  0.79087283209E+02 0.  0.
          5    1    5    5  501    0 -0.40246061920E+01  0.82876239510E+02  0.93354925588E+01  0.83629599733E+02  0.47000000000E+01 0. -1.
        -11    1    6    6    0    0 -0.93004836490E+01 -0.19514348285E+02  0.11154894456E+02  0.24325715929E+02  0.00000000000E+00 0.  1.
         12    1    6    6    0    0 -0.10809068406E+03  0.62129006512E+02  0.12824250760E+03  0.17885678681E+03  0.00000000000E+00 0. -1.
         -5    1    3    3    0  503  0.25016285607E+02 -0.19879303530E+02 -0.54327072723E+02  0.63202231646E+02  0.47000000000E+01 0.  1.
         11    1    4    4    0    0  0.29218497086E+02 -0.53257770125E+02 -0.67960478642E+01  0.61125255969E+02  0.00000000000E+00 0. -1.
        -12    1    4    4    0    0  0.67180991212E+02 -0.52353824081E+02  0.87436533420E+02  0.12206291760E+03  0.00000000000E+00 0.  1.
</event>
<event>
12    1  0.8052519E-002  0.2439844E+03  0.7818608E-02  0.1117370E+00
         21   -1    0    0  501  502  0.00000000000E+00  0.00000000000E+00  0.18036813023E+03  0.18036813023E+03  0.00000000000E+00 0.  1.
         21   -1    0    0  502  503 -0.00000000000E+00 -0.00000000000E+00 -0.35537938721E+03  0.35537938721E+03  0.00000000000E+00 0.  1.
         -6    2    1    2    0  503 -0.26101366313E+02 -0.17198510898E+03 -0.16157904971E+03  0.29263662630E+03  0.17107965021E+03 0.  0.
        -24    2    3    3    0    0 -0.76429156892E+02 -0.14271673383E+03 -0.92106114887E+02  0.20187263035E+03  0.77843049449E+02 0.  0.
          6    2    1    2  501    0  0.26101366313E+02  0.17198510898E+03 -0.13432207277E+02  0.24311089114E+03  0.16929950433E+03 0.  0.
         24    2    5    5    0    0  0.60171874842E+02  0.13072312673E+03  0.38083550405E+02  0.16868432317E+03  0.79340113997E+02 0.  0.
          5    1    5    5  501    0 -0.34070508529E+02  0.41261982251E+02 -0.51515757682E+02  0.74426567973E+02  0.47000000000E+01 0. -1.
        -13    1    6    6    0    0  0.12670863689E+01  0.10572189479E+02  0.33108400829E+02  0.34778483344E+02  0.00000000000E+00 0.  1.
         14    1    6    6    0    0  0.58904788474E+02  0.12015093725E+03  0.49751495762E+01  0.13390583983E+03  0.00000000000E+00 0. -1.
         -5    1    3    3    0  503  0.50327790579E+02 -0.29268375149E+02 -0.69472934821E+02  0.90763995951E+02  0.47000000000E+01 0.  1.
         11    1    4    4    0    0 -0.66688652997E+01 -0.19359278353E+02  0.14026951929E+02  0.24819564927E+02  0.00000000000E+00 0. -1.
        -12    1    4    4    0    0 -0.69760291592E+02 -0.12335745547E+03 -0.10613306682E+03  0.17705306542E+03  0.00000000000E+00 0.  1.
</event>
<event>
12    1  0.8052519E-002  0.1838700E+03  0.7818608E-02  0.1164506E+00
         21   -1    0    0  501  502  0.00000000000E+00  0.00000000000E+00  0.27918800239E+03  0.27918800239E+03  0.00000000000E+00 0.  1.
         21   -1    0    0  502  503 -0.00000000000E+00 -0.00000000000E+00 -0.14100124862E+03  0.14100124862E+03  0.00000000000E+00 0.  1.
         -6    2    1    2    0  503 -0.54433667985E+02 -0.25236255510E+02 -0.12269976121E+02  0.18260685461E+03  0.17203144548E+03 0.  0.
        -24    2    3    3    0    0 -0.97015007693E+02 -0.20622312092E+02 -0.24626070804E+02  0.13778250809E+03  0.92414201823E+02 0.  0.
          6    2    1    2  501    0  0.54433667985E+02  0.25236255510E+02  0.15045672989E+03  0.23758239640E+03  0.17380527813E+03 0.  0.
         24    2    5    5    0    0  0.40456138299E+02  0.35346967001E+02  0.17894587112E+03  0.20394731068E+03  0.81772694336E+02 0.  0.
          5    1    5    5  501    0  0.13977529686E+02 -0.10110711491E+02 -0.28489141236E+02  0.33635085719E+02  0.47000000000E+01 0. -1.
        -11    1    6    6    0    0  0.30909355279E+01 -0.43856621740E+01  0.13163733003E+03  0.13174663021E+03  0.00000000000E+00 0.  1.
         12    1    6    6    0    0  0.37365202771E+02  0.39732629175E+02  0.47308541092E+02  0.72200680465E+02  0.00000000000E+00 0. -1.
         -5    1    3    3    0  503  0.42581339708E+02 -0.46139434175E+01  0.12356094683E+02  0.44824346520E+02  0.47000000000E+01 0.  1.
         11    1    4    4    0    0  0.53370410079E+01 -0.32091502741E+02 -0.73268767491E+01  0.33347138974E+02  0.00000000000E+00 0. -1.
        -12    1    4    4    0    0 -0.10235204870E+03  0.11469190648E+02 -0.17299194055E+02  0.10443536912E+03  0.00000000000E+00 0.  1.
</event>
<event>
12    1  0.8052519E-002  0.1806982E+03  0.7818608E-02  0.1167750E+00
         21   -1    0    0  501  502  0.00000000000E+00  0.00000000000E+00  0.16841157282E+03  0.16841157282E+03  0.00000000000E+00 0. -1.
         21   -1    0    0  502  503 -0.00000000000E+00 -0.00000000000E+00 -0.28283315433E+03  0.28283315433E+03  0.00000000000E+00 0. -1.
         -6    2    1    2    0  503  0.41131738628E+02  0.26431973509E+02 -0.18594694741E+03  0.25928383495E+03  0.17395795661E+03 0.  0.
        -24    2    3    3    0    0  0.43349147723E+02 -0.45421693998E+02 -0.14524402075E+03  0.17653913919E+03  0.78281308162E+02 0.  0.
          6    2    1    2  501    0 -0.41131738628E+02 -0.26431973509E+02  0.71525365910E+02  0.19196089220E+03  0.17129692647E+03 0.  0.
         24    2    5    5    0    0 -0.82011319616E+02 -0.54017936408E+02  0.67783202731E+02  0.14227971592E+03  0.77492973825E+02 0.  0.
          5    1    5    5  501    0  0.40879580987E+02  0.27585962899E+02  0.37421631790E+01  0.49681176275E+02  0.47000000000E+01 0. -1.
        -13    1    6    6    0    0 -0.51068752889E+02 -0.14051908305E+01  0.30940578207E-01  0.51088090982E+02  0.00000000000E+00 0.  1.
         14    1    6    6    0    0 -0.30942566727E+02 -0.52612745578E+02  0.67752262153E+02  0.91191624943E+02  0.00000000000E+00 0. -1.
         -5    1    3    3    0  503 -0.22174090942E+01  0.71853667507E+02 -0.40702926662E+02  0.82744695759E+02  0.47000000000E+01 0.  1.
         13    1    4    4    0    0  0.47825541650E+01  0.13410050966E+02 -0.77777038821E+02  0.79069400270E+02  0.00000000000E+00 0. -1.
        -14    1    4    4    0    0  0.38566593558E+02 -0.58831744964E+02 -0.67466981931E+02  0.97469738919E+02  0.00000000000E+00 0.  1.
</event>
<event>
12    1  0.8052519E-002  0.2514931E+03  0.7818608E-02  0.1112478E+00
         21   -1    0    0  501  502  0.00000000000E+00  0.00000000000E+00  0.18442001526E+03  0.18442001526E+03  0.00000000000E+00 0. -1.
         21   -1    0    0  502  503 -0.00000000000E+00 -0.00000000000E+00 -0.40947118480E+03  0.40947118480E+03  0.00000000000E+00 0. -1.
         -6    2    1    2    0  503  0.33297500288E+02  0.17855854931E+03  0.78994982517E+01  0.25161716953E+03  0.17394516053E+03 0.  0.
        -24    2    3    3    0    0  0.17895535119E+02  0.11839455771E+03  0.73831262880E+02  0.16091979358E+03  0.78144757440E+02 0.  0.
          6    2    1    2  501    0 -0.33297500288E+02 -0.17855854931E+03 -0.23295066779E+03  0.34227403053E+03  0.17289771337E+03 0.  0.
         24    2    5    5    0    0 -0.87885839522E+02 -0.14028083366E+03 -0.17775083841E+03  0.25558965212E+03  0.79549208887E+02 0.  0.
          5    1    5    5  501    0  0.54588339234E+02 -0.38277715653E+02 -0.55199829383E+02  0.86684378408E+02  0.47000000000E+01 0. -1.
        -13    1    6    6    0    0 -0.67616246901E+01 -0.85509455179E+02 -0.82923943896E+02  0.11930618997E+03  0.00000000000E+00 0.  1.
         14    1    6    6    0    0 -0.81124214832E+02 -0.54771378477E+02 -0.94826894514E+02  0.13628346215E+03  0.00000000000E+00 0. -1.
         -5    1    3    3    0  503  0.15401965169E+02  0.60163991604E+02 -0.65931764628E+02  0.90697375947E+02  0.47000000000E+01 0.  1.
         11    1    4    4    0    0  0.12119629068E+02 -0.72177468931E+01  0.19187903742E+02  0.23815056771E+02  0.00000000000E+00 0. -1.
        -12    1    4    4    0    0  0.57759060511E+01  0.12561230460E+03  0.54643359137E+02  0.13710473681E+03  0.00000000000E+00 0.  1.
</event>
<event>
12    1  0.8052519E-002  0.2228370E+03  0.7818608E-02  0.1132492E+00
         21   -1    0    0  503  502  0.00000000000E+00  0.00000000000E+00  0.13596443183E+03  0.13596443183E+03  0.00000000000E+00 0. -1.
         21   -1    0    0  501  503 -0.00000000000E+00 -0.00000000000E+00 -0.58296927069E+03  0.58296927069E+03  0.00000000000E+00 0. -1.
          6    2    1    2  501    0  0.11051645633E+03 -0.77989422881E+02 -0.44512404335E+03  0.49608876009E+03  0.17225680456E+03 0.  0.
         24    2    3    3    0    0  0.28690054118E+02  0.14324156562E+02 -0.11065150018E+03  0.13956200207E+03  0.78774978662E+02 0.  0.
         -6    2    1    2    0  502 -0.11051645633E+03  0.77989422881E+02 -0.18807955114E+01  0.22284494243E+03  0.17708781374E+03 0.  0.
        -24    2    5    5    0    0 -0.37226353274E+02  0.64500786105E+02  0.60004778800E+02  0.12586403278E+03  0.81823153714E+02 0.  0.
          5    1    3    3  501    0  0.81826402212E+02 -0.92313579443E+02 -0.33447254317E+03  0.35652675802E+03  0.47000000000E+01 0. -1.
        -13    1    4    4    0    0  0.44990261592E+02 -0.17500383283E+02 -0.74036294978E+02  0.88384161631E+02  0.00000000000E+00 0.  1.
         14    1    4    4    0    0 -0.16300207474E+02  0.31824539845E+02 -0.36615205205E+02  0.51177840441E+02  0.00000000000E+00 0. -1.
         -5    1    5    5    0  502 -0.73290103056E+02  0.13488636776E+02 -0.61885574312E+02  0.96980909647E+02  0.47000000000E+01 0.  1.
         13    1    6    6    0    0  0.20419263196E+02  0.37429868132E+02  0.41607244765E+02  0.59574358199E+02  0.00000000000E+00 0. -1.
        -14    1    6    6    0    0 -0.57645616470E+02  0.27070917973E+02  0.18397534035E+02  0.66289674586E+02  0.00000000000E+00 0.  1.
</event>
<event>
12    1  0.8052519E-002  0.1977557E+03  0.7818608E-02  0.1153106E+00
         21   -1    0    0  503  502  0.00000000000E+00  0.00000000000E+00  0.52864310716E+02  0.52864310716E+02  0.00000000000E+00 0.  1.
         21   -1    0    0  501  503 -0.00000000000E+00 -0.00000000000E+00 -0.74343558716E+03  0.74343558716E+03  0.00000000000E+00 0.  1.
          6    2    1    2  501    0 -0.58374439402E+02 -0.55028500074E+02 -0.41750347032E+03  0.45914514487E+03  0.17340532095E+03 0.  0.
         24    2    3    3    0    0 -0.73279967597E+02 -0.55194463258E+02 -0.16023395181E+03  0.20140128468E+03  0.80443618332E+02 0.  0.
         -6    2    1    2    0  502  0.58374439402E+02  0.55028500074E+02 -0.27306780612E+03  0.33715475300E+03  0.18075284157E+03 0.  0.
        -24    2    5    5    0    0 -0.20586290808E+02  0.24345546416E+02 -0.52748138535E+02  0.10106348572E+03  0.80093451842E+02 0.  0.
          5    1    3    3  501    0  0.14905528194E+02  0.16596318314E+00 -0.25726951851E+03  0.25774386019E+03  0.47000000000E+01 0. -1.
        -11    1    4    4    0    0 -0.40061397571E+02  0.34441666668E+01 -0.18092411282E+02  0.44092099126E+02  0.00000000000E+00 0.  1.
         12    1    4    4    0    0 -0.33218570026E+02 -0.58638629924E+02 -0.14214154053E+03  0.15730918555E+03  0.00000000000E+00 0. -1.
         -5    1    5    5    0  502  0.78960730211E+02  0.30682953659E+02 -0.22031966759E+03  0.23609126728E+03  0.47000000000E+01 0.  1.
         13    1    6    6    0    0 -0.25025473303E+02  0.39311516933E+02 -0.65858191422E+02  0.80678194421E+02  0.00000000000E+00 0. -1.
        -14    1    6    6    0    0  0.44391824947E+01 -0.14965970517E+02  0.13110052887E+02  0.20385291302E+02  0.00000000000E+00 0.  1.
</event>
<event>
12    1  0.8052519E-002  0.2240272E+03  0.7818608E-02  0.1131269E+00
         21   -1    0    0  501  502  0.00000000000E+00  0.00000000000E+00  0.23487070590E+03  0.23487070590E+03  0.00000000000E+00 0.  1.
         21   -1    0    0  502  503 -0.00000000000E+00 -0.00000000000E+00 -0.24511502396E+03  0.24511502396E+03  0.00000000000E+00 0.  1.
         -6    2    1    2    0  503 -0.15629181406E+02 -0.14282970753E+03 -0.93555436555E+02  0.24277726237E+03  0.17188246784E+03 0.  0.
        -24    2    3    3    0    0 -0.64985645043E+02 -0.11117103313E+03 -0.97516007061E+02  0.18381873215E+03  0.87737232615E+02 0.  0.
          6    2    1    2  501    0  0.15629181406E+02  0.14282970753E+03  0.83311118495E+02  0.23720846748E+03  0.16935913886E+03 0.  0.
         24    2    5    5    0    0  0.11528393068E+02  0.17302090164E+03  0.76436752267E+02  0.20562252792E+03  0.79805454955E+02 0.  0.
          5    1    5    5  501    0  0.41007883386E+01 -0.30191194110E+02  0.68743662287E+01  0.31585939559E+02  0.47000000000E+01 0. -1.
        -11    1    6    6    0    0 -0.23325973855E+02  0.10828091428E+03  0.19137136605E+02  0.11240590488E+03  0.00000000000E+00 0.  1.
         12    1    6    6    0    0  0.34854366923E+02  0.64739987360E+02  0.57299615661E+02  0.93216623045E+02  0.00000000000E+00 0. -1.
         -5    1    3    3    0  503  0.49356463637E+02 -0.31658674403E+02  0.39605705057E+01  0.58958530226E+02  0.47000000000E+01 0.  1.
         11    1    4    4    0    0 -0.14201756648E+02 -0.83139978867E+02 -0.93129767016E+02  0.12564672492E+03  0.00000000000E+00 0. -1.
        -12    1    4    4    0    0 -0.50783888395E+02 -0.28031054261E+02 -0.43862400447E+01  0.58172007231E+02  0.00000000000E+00 0.  1.
</event>
<event>
12    1  0.8052519E-002  0.2262386E+03  0.7818608E-02  0.1129495E+00
         21   -1    0    0  503  502  0.00000000000E+00  0.00000000000E+00  0.63062948102E+03  0.63062948102E+03  0.00000000000E+00 0.  1.
         21   -1    0    0  501  503 -0.00000000000E+00 -0.00000000000E+00 -0.96123412666E+02  0.96123412666E+02  0.00000000000E+00 0. -1.
          6    2    1    2  501    0  0.13762927169E+03 -0.49167106570E+02  0.12169814727E+03  0.25601485646E+03  0.17138829273E+03 0.  0.
         24    2    3    3    0    0 -0.25263209314E+01 -0.11614597169E+02  0.54502469300E+02  0.96042576849E+02  0.78181687390E+02 0.  0.
         -6    2    1    2    0  502 -0.13762927169E+03  0.49167106570E+02  0.41280792108E+03  0.47073803722E+03  0.17269828947E+03 0.  0.
        -24    2    5    5    0    0 -0.11991309847E+03  0.92672637818E+02  0.36808187622E+03  0.40570648233E+03  0.78397150574E+02 0.  0.
          5    1    3    3  501    0  0.14015559263E+03 -0.37552509400E+02  0.67195677969E+02  0.15997227961E+03  0.47000000000E+01 0. -1.
        -11    1    4    4    0    0  0.18979069178E+02 -0.38826889916E+02  0.21936132516E+02  0.48465723529E+02  0.00000000000E+00 0.  1.
         12    1    4    4    0    0 -0.21505390109E+02  0.27212292747E+02  0.32566336783E+02  0.47576853319E+02  0.00000000000E+00 0. -1.
         -5    1    5    5    0  502 -0.17716173224E+02 -0.43505531248E+02  0.44726044864E+02  0.65031554895E+02  0.47000000000E+01 0.  1.
         13    1    6    6    0    0 -0.17960055005E+02 -0.11761115569E+02  0.25514784179E+02  0.33345039014E+02  0.00000000000E+00 0. -1.
        -14    1    6    6    0    0 -0.10195304347E+03  0.10443375339E+03  0.34256709204E+03  0.37236144331E+03  0.00000000000E+00 0.  1.
</event>
<event>
12    1  0.8052519E-002  0.4328123E+03  0.7818608E-02  0.1033034E+00
         21   -1    0    0  503  502  0.00000000000E+00  0.00000000000E+00  0.58607451666E+03  0.58607451666E+03  0.00000000000E+00 0. -1.
         21   -1    0    0  501  503 -0.00000000000E+00 -0.00000000000E+00 -0.44870007384E+03  0.44870007384E+03  0.00000000000E+00 0.  1.
          6    2    1    2  501    0  0.22719398177E+03  0.32477075585E+03 -0.20935455087E+03  0.48078667329E+03  0.17387739369E+03 0.  0.
         24    2    3    3    0    0  0.15568755444E+03  0.31495533773E+03 -0.18005640013E+03  0.40274832875E+03  0.79689583443E+02 0.  0.
         -6    2    1    2    0  502 -0.22719398177E+03 -0.32477075585E+03  0.34672899368E+03  0.55398791721E+03  0.17201298830E+03 0.  0.
        -24    2    5    5    0    0 -0.67713318828E+02 -0.16339736246E+03  0.21885807592E+03  0.29351044111E+03  0.83460949177E+02 0.  0.
          5    1    3    3  501    0  0.71506427332E+02  0.98154181214E+01 -0.29298150742E+02  0.78038344547E+02  0.47000000000E+01 0. -1.
        -13    1    4    4    0    0  0.81990523104E+02  0.11123482461E+03 -0.10471411142E+03  0.17338015231E+03  0.00000000000E+00 0.  1.
         14    1    4    4    0    0  0.73697031332E+02  0.20372051312E+03 -0.75342288709E+02  0.22936817644E+03  0.00000000000E+00 0. -1.
         -5    1    5    5    0  502 -0.15948066294E+03 -0.16137339339E+03  0.12787091776E+03  0.26047747610E+03  0.47000000000E+01 0.  1.
         13    1    6    6    0    0 -0.72406411428E+02 -0.12349885011E+03  0.20689160933E+03  0.25159251262E+03  0.00000000000E+00 0. -1.
        -14    1    6    6    0    0  0.46930926005E+01 -0.39898512354E+02  0.11966466589E+02  0.41917928489E+02  0.00000000000E+00 0.  1.
</event>
<event>
12    1  0.8052519E-002  0.1839313E+03  0.7818608E-02  0.1168498E+00
         21   -1    0    0  501  502  0.00000000000E+00  0.00000000000E+00  0.24671724857E+03  0.24671724857E+03  0.00000000000E+00 0.  1.
         21   -1    0    0  502  503 -0.00000000000E+00 -0.00000000000E+00 -0.12418806609E+03  0.12418806609E+03  0.00000000000E+00 0. -1.
         -6    2    1    2    0  503 -0.43987941634E+02 -0.48668117654E+02  0.53369827872E+02  0.17440154718E+03  0.15252552719E+03 0.  0.
        -24    2    3    3    0    0 -0.77577625955E+02 -0.27072716161E+02  0.66602959593E+02  0.13207148654E+03  0.79093004249E+02 0.  0.
          6    2    1    2  501    0  0.43987941634E+02  0.48668117654E+02  0.69159354599E+02  0.19650376748E+03  0.17183477419E+03 0.  0.
         24    2    5    5    0    0  0.93112504334E+02  0.19603009106E+02  0.68154653394E+02  0.13922285775E+03  0.75390522689E+02 0.  0.
          5    1    5    5  501    0 -0.49124562700E+02  0.29065108549E+02  0.10047012050E+01  0.57280909734E+02  0.47000000000E+01 0. -1.
        -11    1    6    6    0    0  0.13990069061E+02 -0.17772116404E+02  0.42316999751E+02  0.47982274037E+02  0.00000000000E+00 0.  1.
         12    1    6    6    0    0  0.79122435273E+02  0.37375125510E+02  0.25837653643E+02  0.91240583713E+02  0.00000000000E+00 0. -1.
         -5    1    3    3    0  503  0.33589684321E+02 -0.21595401493E+02 -0.13233131721E+02  0.42330060638E+02  0.47000000000E+01 0.  1.
         11    1    4    4    0    0 -0.40251538426E+02 -0.31577248078E+02 -0.47905461256E+01  0.51383443579E+02  0.00000000000E+00 0. -1.
        -12    1    4    4    0    0 -0.37326087529E+02  0.45045319173E+01  0.71393505719E+02  0.80688042961E+02  0.00000000000E+00 0.  1.
</event>
<event>
12    1  0.8052519E-002  0.2197571E+03  0.7818608E-02  0.1134369E+00
         21   -1    0    0  503  502  0.00000000000E+00  0.00000000000E+00  0.16922644355E+03  0.16922644355E+03  0.00000000000E+00 0.  1.
         21   -1    0    0  501  503 -0.00000000000E+00 -0.00000000000E+00 -0.29625441725E+03  0.29625441725E+03  0.00000000000E+00 0. -1.
          6    2    1    2  501    0 -0.85562785814E+02  0.10613949111E+03 -0.15010620370E+02  0.22026913143E+03  0.17235599684E+03 0.  0.
         24    2    3    3    0    0 -0.87354517589E+02  0.34518479214E+02  0.42460332297E+02  0.12830294173E+03  0.76396517504E+02 0.  0.
         -6    2    1    2    0  502  0.85562785814E+02 -0.10613949111E+03 -0.11201735333E+03  0.24521172938E+03  0.17027719427E+03 0.  0.
        -24    2    5    5    0    0  0.11532860157E+03 -0.77943665206E+02 -0.11557230210E+03  0.20379028510E+03  0.93795639558E+02 0.  0.
          5    1    3    3  501    0  0.17917317746E+01  0.71621011892E+02 -0.57470952667E+02  0.91966189698E+02  0.47000000000E+01 0. -1.
        -11    1    4    4    0    0 -0.78440112060E+02  0.26887169602E+02 -0.13672898146E+01  0.82931541349E+02  0.00000000000E+00 0.  1.
         12    1    4    4    0    0 -0.89144055293E+01  0.76313096113E+01  0.43827622111E+02  0.45371400378E+02  0.00000000000E+00 0. -1.
         -5    1    5    5    0  502 -0.29765815757E+02 -0.28195825900E+02  0.35549487722E+01  0.41421444284E+02  0.47000000000E+01 0.  1.
         11    1    6    6    0    0  0.33656562499E+02 -0.47461805342E+02 -0.99327850198E+02  0.11511476443E+03  0.00000000000E+00 0. -1.
        -12    1    6    6    0    0  0.81672039072E+02 -0.30481859864E+02 -0.16244451903E+02  0.88675520662E+02  0.00000000000E+00 0.  1.
</event>
<event>
12    1  0.8052519E-002  0.2641076E+03  0.7818608E-02  0.1104812E+00
         21   -1    0    0  503  502  0.00000000000E+00  0.00000000000E+00  0.38919489076E+03  0.38919489076E+03  0.00000000000E+00 0.  1.
         21   -1    0    0  501  503 -0.00000000000E+00 -0.00000000000E+00 -0.19789885927E+03  0.19789885927E+03  0.00000000000E+00 0. -1.
          6    2    1    2  501    0 -0.97410680691E+01  0.20106810064E+03  0.18718241072E+03  0.32371295702E+03  0.17096652936E+03 0.  0.
         24    2    3    3    0    0 -0.17577804716E+01  0.60531434950E+02  0.13383406851E+03  0.17310610824E+03  0.91580687955E+02 0.  0.
         -6    2    1    2    0  502  0.97410680691E+01 -0.20106810064E+03  0.41136207665E+01  0.26338079301E+03  0.16979178646E+03 0.  0.
        -24    2    5    5    0    0 -0.47840331708E+02 -0.14250519705E+03 -0.32482707145E+02  0.17334406443E+03  0.79978808977E+02 0.  0.
          5    1    3    3  501    0 -0.79832875975E+01  0.14053666569E+03  0.53348342210E+02  0.15060684878E+03  0.47000000000E+01 0. -1.
        -11    1    4    4    0    0 -0.13641609019E+02 -0.11877832786E+02 -0.25191014826E+01  0.18262592385E+02  0.00000000000E+00 0.  1.
         12    1    4    4    0    0  0.11883828548E+02  0.72409267736E+02  0.13635317000E+03  0.15484351586E+03  0.00000000000E+00 0. -1.
         -5    1    5    5    0  502  0.57581399777E+02 -0.58562903594E+02  0.36596327912E+02  0.90036728585E+02  0.47000000000E+01 0.  1.
         11    1    6    6    0    0 -0.29180919930E+02 -0.38477571945E+01 -0.12654996201E+02  0.32038730503E+02  0.00000000000E+00 0. -1.
        -12    1    6    6    0    0 -0.18659411778E+02 -0.13865743985E+03 -0.19827710944E+02  0.14130533392E+03  0.00000000000E+00 0.  1.
</event>
<event>
12    1  0.8052519E-002  0.3816425E+03  0.7818608E-02  0.1050339E+00
         21   -1    0    0  503  502  0.00000000000E+00  0.00000000000E+00  0.37625325476E+03  0.37625325476E+03  0.00000000000E+00 0. -1.
         21   -1    0    0  501  503 -0.00000000000E+00 -0.00000000000E+00 -0.46118509321E+03  0.46118509321E+03  0.00000000000E+00 0.  1.
          6    2    1    2  501    0  0.11312577707E+03 -0.32133069766E+03  0.12548100685E+03  0.40163500922E+03  0.17179737733E+03 0.  0.
         24    2    3    3    0    0  0.99936778775E+02 -0.21538529665E+03  0.15006734743E+03  0.29197664969E+03  0.79699243630E+02 0.  0.
         -6    2    1    2    0  502 -0.11312577707E+03  0.32133069766E+03 -0.21041284530E+03  0.43580333875E+03  0.17204687123E+03 0.  0.
        -24    2    5    5    0    0 -0.57881313897E+01  0.10876242729E+03 -0.12161884419E+03  0.18161226027E+03  0.79555651971E+02 0.  0.
          5    1    3    3  501    0  0.13188998291E+02 -0.10594540101E+03 -0.24586340584E+02  0.10965835953E+03  0.47000000000E+01 0. -1.
        -11    1    4    4    0    0  0.53444510495E+02 -0.12687818799E+03  0.40185124107E+02  0.14341978416E+03  0.00000000000E+00 0.  1.
         12    1    4    4    0    0  0.46492268279E+02 -0.88507108660E+02  0.10988222333E+03  0.14855686553E+03  0.00000000000E+00 0. -1.
         -5    1    5    5    0  502 -0.10733764568E+03  0.21256827037E+03 -0.88794001109E+02  0.25419107848E+03  0.47000000000E+01 0.  1.
         13    1    6    6    0    0 -0.40240612866E+02  0.34670245760E+02 -0.50348293922E+02  0.73186635158E+02  0.00000000000E+00 0. -1.
        -14    1    6    6    0    0  0.34452481477E+02  0.74092181531E+02 -0.71270550271E+02  0.10842562511E+03  0.00000000000E+00 0.  1.
</event>
<event>
12    1  0.8052519E-002  0.3316047E+03  0.7818608E-02  0.1070512E+00
         21   -1    0    0  503  502  0.00000000000E+00  0.00000000000E+00  0.84140740677E+02  0.84140740677E+02  0.00000000000E+00 0. -1.
         21   -1    0    0  501  503 -0.00000000000E+00 -0.00000000000E+00 -0.15258365458E+04  0.15258365458E+04  0.00000000000E+00 0. -1.
          6    2    1    2  501    0  0.17600525384E+03 -0.22244262495E+03 -0.10271429494E+04  0.10791140923E+04  0.17031152300E+03 0.  0.
         24    2    3    3    0    0  0.14783597219E+02 -0.54522677658E+02 -0.28614636534E+03  0.30239821188E+03  0.79835199172E+02 0.  0.
         -6    2    1    2    0  502 -0.17600525384E+03  0.22244262495E+03 -0.41455285568E+03  0.53086319417E+03  0.17176463545E+03 0.  0.
        -24    2    5    5    0    0 -0.10927445273E+03  0.98364311838E+02 -0.32254572170E+03  0.36253069491E+03  0.76002094078E+02 0.  0.
          5    1    3    3  501    0  0.16122165662E+03 -0.16791994729E+03 -0.74099658408E+03  0.77671588041E+03  0.47000000000E+01 0. -1.
        -13    1    4    4    0    0  0.29549048823E+02  0.48059594828E+00 -0.17534102976E+03  0.17781409949E+03  0.00000000000E+00 0.  1.
         14    1    4    4    0    0 -0.14765451604E+02 -0.55003273606E+02 -0.11080533557E+03  0.12458411239E+03  0.00000000000E+00 0. -1.
         -5    1    5    5    0  502 -0.66730801109E+02  0.12407831311E+03 -0.92007133982E+02  0.16833249925E+03  0.47000000000E+01 0.  1.
         11    1    6    6    0    0 -0.11100213117E+03  0.58691901666E+02 -0.23657371682E+03  0.26783079721E+03  0.00000000000E+00 0. -1.
        -12    1    6    6    0    0  0.17276784368E+01  0.39672410172E+02 -0.85972004878E+02  0.94699897700E+02  0.00000000000E+00 0.  1.
</event>
<event>
12    1  0.8052519E-002  0.2137335E+03  0.7818608E-02  0.1138833E+00
         21   -1    0    0  503  502  0.00000000000E+00  0.00000000000E+00  0.27804507327E+03  0.27804507327E+03  0.00000000000E+00 0. -1.
         21   -1    0    0  501  503 -0.00000000000E+00 -0.00000000000E+00 -0.48907967516E+03  0.48907967516E+03  0.00000000000E+00 0. -1.
          6    2    1    2  501    0  0.75277788829E+02 -0.10064653728E+03 -0.41852695175E+03  0.46994342901E+03  0.17287436527E+03 0.  0.
         24    2    3    3    0    0  0.60335061551E+02 -0.73585684728E+02 -0.12909371958E+03  0.17882616616E+03  0.79110281384E+02 0.  0.
         -6    2    1    2    0  502 -0.75277788829E+02  0.10064653728E+03  0.20749234986E+03  0.29718131943E+03  0.17166010138E+03 0.  0.
        -24    2    5    5    0    0 -0.40340131869E+02  0.11960696572E+03  0.20989163979E+03  0.25708163972E+03  0.78123725854E+02 0.  0.
          5    1    3    3  501    0  0.14942727278E+02 -0.27060852552E+02 -0.28943323217E+03  0.29111726284E+03  0.47000000000E+01 0. -1.
        -11    1    4    4    0    0  0.64025671715E+01  0.34862389515E+01  0.90966711585E+01  0.11657450604E+02  0.00000000000E+00 0.  1.
         12    1    4    4    0    0  0.53932494379E+02 -0.77071923680E+02 -0.13819039074E+03  0.16716871556E+03  0.00000000000E+00 0. -1.
         -5    1    5    5    0  502 -0.34937656960E+02 -0.18960428435E+02 -0.23992899262E+01  0.40099679705E+02  0.47000000000E+01 0.  1.
         13    1    6    6    0    0  0.42781351898E+01  0.96236733106E+02  0.11836244109E+03  0.15260890767E+03  0.00000000000E+00 0. -1.
        -14    1    6    6    0    0 -0.44618267058E+02  0.23370232610E+02  0.91529198702E+02  0.10447273205E+03  0.00000000000E+00 0.  1.
</event>
<event>
12    1  0.8052519E-002  0.1772156E+03  0.7818608E-02  0.1170584E+00
         21   -1    0    0  501  502  0.00000000000E+00  0.00000000000E+00  0.78390672661E+03  0.78390672661E+03  0.00000000000E+00 0.  1.
         21   -1    0    0  502  503 -0.00000000000E+00 -0.00000000000E+00 -0.45717145627E+02  0.45717145627E+02  0.00000000000E+00 0.  1.
         -6    2    1    2    0  503  0.11901698901E+01  0.45160875429E+02  0.22229894556E+03  0.28414378763E+03  0.17111385006E+03 0.  0.
        -24    2    3    3    0    0 -0.47375599262E+02  0.39530940543E+02  0.20943967328E+03  0.23337193536E+03  0.82403524216E+02 0.  0.
          6    2    1    2  501    0 -0.11901698901E+01 -0.45160875429E+02  0.51589063543E+03  0.54548008461E+03  0.17136059583E+03 0.  0.
         24    2    5    5    0    0 -0.10537807191E+02 -0.93104736555E+02  0.40094347172E+03  0.42049635531E+03  0.85334518037E+02 0.  0.
          5    1    5    5  501    0  0.93476373007E+01  0.47943861127E+02  0.11494716371E+03  0.12498372930E+03  0.47000000000E+01 0. -1.
        -11    1    6    6    0    0  0.20055162977E+02 -0.54301758988E+02  0.32345406585E+03  0.32859309687E+03  0.00000000000E+00 0.  1.
         12    1    6    6    0    0 -0.30592970168E+02 -0.38802977567E+02  0.77489405863E+02  0.91903258445E+02  0.00000000000E+00 0. -1.
         -5    1    3    3    0  503  0.48565769152E+02  0.56299348858E+01  0.12859272277E+02  0.50771852277E+02  0.47000000000E+01 0.  1.
         13    1    4    4    0    0 -0.25145814623E+01 -0.42892196915E+01 -0.66859045309E+01  0.83319772497E+01  0.00000000000E+00 0. -1.
        -14    1    4    4    0    0 -0.44861017799E+02  0.43820160234E+02  0.21612557781E+03  0.22503995811E+03  0.00000000000E+00 0.  1.
</event>
<event>
12    1  0.8052519E-002  0.2373890E+03  0.7818608E-02  0.1121924E+00
         21   -1    0    0  503  502  0.00000000000E+00  0.00000000000E+00  0.15016284404E+04  0.15016284404E+04  0.00000000000E+00 0. -1.
         21   -1    0    0  501  503 -0.00000000000E+00 -0.00000000000E+00 -0.40433293117E+02  0.40433293117E+02  0.00000000000E+00 0.  1.
          6    2    1    2  501    0  0.22818921669E+02 -0.16195094119E+03  0.51491638369E+03  0.56700300880E+03  0.17206021983E+03 0.  0.
         24    2    3    3    0    0 -0.27756978464E+02 -0.29344596615E+02  0.13229197674E+03  0.15887816136E+03  0.78163596670E+02 0.  0.
         -6    2    1    2    0  502 -0.22818921669E+02  0.16195094119E+03  0.94627876362E+03  0.97505872475E+03  0.16895918945E+03 0.  0.
        -24    2    5    5    0    0 -0.56232443966E+02  0.16217038116E+03  0.65623830292E+03  0.68306202876E+03  0.80397168090E+02 0.  0.
          5    1    3    3  501    0  0.50575900133E+02 -0.13260634457E+03  0.38262440696E+03  0.40812484744E+03  0.47000000000E+01 0. -1.
        -13    1    4    4    0    0 -0.47006734705E+01 -0.33408648030E+02  0.11206663010E+02  0.35550293811E+02  0.00000000000E+00 0.  1.
         14    1    4    4    0    0 -0.23056304993E+02  0.40640514144E+01  0.12108531373E+03  0.12332786755E+03  0.00000000000E+00 0. -1.
         -5    1    5    5    0  502  0.33413522297E+02 -0.21943997008E+00  0.29004046070E+03  0.29199669599E+03  0.47000000000E+01 0.  1.
         11    1    6    6    0    0 -0.61083438966E+01  0.12958181269E+03  0.45450003497E+03  0.47265107619E+03  0.00000000000E+00 0. -1.
        -12    1    6    6    0    0 -0.50124100070E+02  0.32588568473E+02  0.20173826795E+03  0.21041095257E+03  0.00000000000E+00 0.  1.
</event>
<event>
12    1  0.8052519E-002  0.1899973E+03  0.7818608E-02  0.1158762E+00
         21   -1    0    0  503  502  0.00000000000E+00  0.00000000000E+00  0.22888547470E+03  0.22888547470E+03  0.00000000000E+00 0. -1.
         21   -1    0    0  501  503 -0.00000000000E+00 -0.00000000000E+00 -0.15863491202E+03  0.15863491202E+03  0.00000000000E+00 0.  1.
          6    2    1    2  501    0 -0.72562128313E+02 -0.31811720119E+02  0.13195593730E+02  0.18914137828E+03  0.17123985891E+03 0.  0.
         24    2    3    3    0    0 -0.81637311132E+02  0.60489699970E+01 -0.42221673096E+02  0.12125209885E+03  0.78855318076E+02 0.  0.
         -6    2    1    2    0  502  0.72562128313E+02  0.31811720119E+02  0.57054968950E+02  0.19837900844E+03  0.17268964504E+03 0.  0.
        -24    2    5    5    0    0  0.10026807508E+03  0.34303075886E+01 -0.31633163424E+00  0.12847421465E+03  0.80250045946E+02 0.  0.
          5    1    3    3  501    0  0.90751828185E+01 -0.37860690116E+02  0.55417266826E+02  0.67889279432E+02  0.47000000000E+01 0. -1.
        -11    1    4    4    0    0 -0.88602582581E+01 -0.30756219824E+02 -0.14229001099E+02  0.35027327996E+02  0.00000000000E+00 0.  1.
         12    1    4    4    0    0 -0.72777052873E+02  0.36805189821E+02 -0.27992671997E+02  0.86224770850E+02  0.00000000000E+00 0. -1.
         -5    1    5    5    0  502 -0.27705946767E+02  0.28381412531E+02  0.57371300584E+02  0.69904793786E+02  0.47000000000E+01 0.  1.
         13    1    6    6    0    0  0.42270223157E+01 -0.40203622963E+01  0.27577150148E+02  0.28187412810E+02  0.00000000000E+00 0. -1.
        -14    1    6    6    0    0  0.96041052764E+02  0.74506698849E+01 -0.27893481782E+02  0.10028680184E+03  0.00000000000E+00 0.  1.
</event>
<event>
12    1  0.8052519E-002  0.1788555E+03  0.7818608E-02  0.1169004E+00
         21   -1    0    0  501  502  0.00000000000E+00  0.00000000000E+00  0.17411046927E+03  0.17411046927E+03  0.00000000000E+00 0. -1.
         21   -1    0    0  502  503 -0.00000000000E+00 -0.00000000000E+00 -0.41493211968E+03  0.41493211968E+03  0.00000000000E+00 0. -1.
         -6    2    1    2    0  503  0.48202000550E+02 -0.11879130491E+02 -0.34038239409E+03  0.38434371454E+03  0.17145078041E+03 0.  0.
        -24    2    3    3    0    0  0.32401344814E+02  0.57945266399E+02 -0.24910358236E+03  0.26824453886E+03  0.74128515699E+02 0.  0.
          6    2    1    2  501    0 -0.48202000550E+02  0.11879130491E+02  0.99560743683E+02  0.20469887441E+03  0.17182764884E+03 0.  0.
         24    2    5    5    0    0 -0.48232335189E+02 -0.61003255061E+01  0.13537099112E+03  0.16435379318E+03  0.79519129574E+02 0.  0.
          5    1    5    5  501    0  0.30334639433E-01  0.17979455998E+02 -0.35810247434E+02  0.40345081230E+02  0.47000000000E+01 0. -1.
        -11    1    6    6    0    0 -0.16445829893E+02 -0.38410696245E+02  0.36073310723E+02  0.55200821130E+02  0.00000000000E+00 0.  1.
         12    1    6    6    0    0 -0.31786505297E+02  0.32310370739E+02  0.99297680393E+02  0.10915297205E+03  0.00000000000E+00 0. -1.
         -5    1    3    3    0  503  0.15800655735E+02 -0.69824396890E+02 -0.91278811734E+02  0.11609917568E+03  0.47000000000E+01 0.  1.
         13    1    4    4    0    0 -0.66788472312E+00  0.14207409678E+02 -0.17744508730E+03  0.17801420047E+03  0.00000000000E+00 0. -1.
        -14    1    4    4    0    0  0.33069229537E+02  0.43737856721E+02 -0.71658495056E+02  0.90230338393E+02  0.00000000000E+00 0.  1.
</event>
<event>
12    1  0.8052519E-002  0.1928606E+03  0.7818608E-02  0.1156071E+00
         21   -1    0    0  501  502  0.00000000000E+00  0.00000000000E+00  0.91299425159E+02  0.91299425159E+02  0.00000000000E+00 0. -1.
         21   -1    0    0  502  503 -0.00000000000E+00 -0.00000000000E+00 -0.50511439965E+03  0.50511439965E+03  0.00000000000E+00 0. -1.
         -6    2    1    2    0  503  0.26164131929E+02  0.81196495203E+02 -0.33879603713E+03  0.38947652797E+03  0.17213883475E+03 0.  0.
        -24    2    3    3    0    0 -0.35697688200E+02  0.72271226361E+02 -0.13779737900E+03  0.17893176840E+03  0.80814633448E+02 0.  0.
          6    2    1    2  501    0 -0.26164131929E+02 -0.81196495203E+02 -0.75018937359E+02  0.20693729684E+03  0.17296754386E+03 0.  0.
         24    2    5    5    0    0 -0.55584330684E+02 -0.51793381856E+02  0.11411226064E+02  0.11090420713E+03  0.79983466153E+02 0.  0.
          5    1    5    5  501    0  0.29420198755E+02 -0.29403113347E+02 -0.86430163423E+02  0.96033089707E+02  0.47000000000E+01 0. -1.
        -11    1    6    6    0    0 -0.19378235113E+02 -0.19287563622E+02 -0.34490455421E+02  0.44012698414E+02  0.00000000000E+00 0.  1.
         12    1    6    6    0    0 -0.36206095570E+02 -0.32505818234E+02  0.45901681485E+02  0.66891508719E+02  0.00000000000E+00 0. -1.
         -5    1    3    3    0  503  0.61861820129E+02  0.89252688423E+01 -0.20099865813E+03  0.21054475958E+03  0.47000000000E+01 0.  1.
         13    1    4    4    0    0 -0.80633295915E+01  0.75857327102E+02 -0.12871573574E+03  0.14962316661E+03  0.00000000000E+00 0. -1.
        -14    1    4    4    0    0 -0.27634358609E+02 -0.35861007409E+01 -0.90816432565E+01  0.29308601783E+02  0.00000000000E+00 0.  1.
</event>
<event>
12    1  0.8052519E-002  0.1808592E+03  0.7818608E-02  0.1167581E+00
         21   -1    0    0  503  502  0.00000000000E+00  0.00000000000E+00  0.66760681963E+02  0.66760681963E+02  0.00000000000E+00 0. -1.
         21   -1    0    0  501  503 -0.00000000000E+00 -0.00000000000E+00 -0.54096520013E+03  0.54096520013E+03  0.00000000000E+00 0.  1.
          6    2    1    2  501    0 -0.26180777673E+02 -0.40506241622E+02 -0.13928378769E+03  0.22827623459E+03  0.17430971583E+03 0.  0.
         24    2    3    3    0    0 -0.14108097187E+01 -0.13621554998E+02 -0.16469691315E+03  0.18350733207E+03  0.79764218648E+02 0.  0.
         -6    2    1    2    0  502  0.26180777673E+02  0.40506241622E+02 -0.33492073048E+03  0.37944964751E+03  0.17170891230E+03 0.  0.
        -24    2    5    5    0    0 -0.42144095937E+02  0.25075266502E+02 -0.27132015217E+03  0.28472094590E+03  0.71038709516E+02 0.  0.
          5    1    3    3  501    0 -0.24769967955E+02 -0.26884686623E+02  0.25413125457E+02  0.44768902519E+02  0.47000000000E+01 0. -1.
        -13    1    4    4    0    0  0.38298273415E+02  0.17807907384E+01 -0.78068651085E+02  0.86974957571E+02  0.00000000000E+00 0.  1.
         14    1    4    4    0    0 -0.39709083133E+02 -0.15402345737E+02 -0.86628262066E+02  0.96532374497E+02  0.00000000000E+00 0. -1.
         -5    1    5    5    0  502  0.68324873611E+02  0.15430975120E+02 -0.63600578306E+02  0.94728701606E+02  0.47000000000E+01 0.  1.
         13    1    6    6    0    0  0.98607509349E+01 -0.16333689897E+02 -0.77635785901E+02  0.79945850969E+02  0.00000000000E+00 0. -1.
        -14    1    6    6    0    0 -0.52004846872E+02  0.41408956399E+02 -0.19368436627E+03  0.20477509494E+03  0.00000000000E+00 0.  1.
</event>
<event>
12    1  0.8052519E-002  0.2334827E+03  0.7818608E-02  0.1124437E+00
         21   -1    0    0  503  502  0.00000000000E+00  0.00000000000E+00  0.78891823855E+03  0.78891823855E+03  0.00000000000E+00 0. -1.
         21   -1    0    0  501  503 -0.00000000000E+00 -0.00000000000E+00 -0.11472563363E+03  0.11472563363E+03  0.00000000000E+00 0. -1.
          6    2    1    2  501    0 -0.15593118924E+03 -0.11607217468E+02  0.62378970599E+03  0.66605386066E+03  0.17339228567E+03 0.  0.
         24    2    3    3    0    0 -0.52459411451E+02 -0.62821436016E+02  0.38257756667E+03  0.39859416064E+03  0.76244263434E+02 0.  0.
         -6    2    1    2    0  502  0.15593118924E+03  0.11607217468E+02  0.50402898926E+02  0.23759001152E+03  0.17163711161E+03 0.  0.
        -24    2    5    5    0    0  0.11303719039E+03  0.65157061785E+02 -0.58591590896E+01  0.14873625451E+03  0.71170882723E+02 0.  0.
          5    1    3    3  501    0 -0.10347177778E+03  0.51214218547E+02  0.24121213932E+03  0.26745970002E+03  0.47000000000E+01 0. -1.
        -13    1    4    4    0    0  0.28210199731E+01 -0.51638558441E+02  0.13248532888E+03  0.14222117015E+03  0.00000000000E+00 0.  1.
         14    1    4    4    0    0 -0.55280431424E+02 -0.11182877575E+02  0.25009223779E+03  0.25637299049E+03  0.00000000000E+00 0. -1.
         -5    1    5    5    0  502  0.42893998843E+02 -0.53549844316E+02  0.56262058015E+02  0.88853757012E+02  0.47000000000E+01 0.  1.
         11    1    6    6    0    0  0.29757416976E+02  0.57411821303E+02  0.22524133403E+01  0.64704671054E+02  0.00000000000E+00 0. -1.
        -12    1    6    6    0    0  0.83279773417E+02  0.77452404819E+01 -0.81115724299E+01  0.84031583454E+02  0.00000000000E+00 0.  1.
</event>
<event>
12    1  0.8052519E-002  0.2290510E+03  0.7818608E-02  0.1127318E+00
         21   -1    0    0  503  502  0.00000000000E+00  0.00000000000E+00  0.54483315950E+02  0.54483315950E+02  0.00000000000E+00 0.  1.
         21   -1    0    0  501  503 -0.00000000000E+00 -0.00000000000E+00 -0.98820262863E+03  0.98820262863E+03  0.00000000000E+00 0. -1.
          6    2    1    2  501    0 -0.11689607071E+03 -0.93493592469E+02 -0.55060693322E+03  0.59634918676E+03  0.17337420356E+03 0.  0.
         24    2    3    3    0    0 -0.30771121101E+02 -0.10930451385E+03 -0.30209229611E+03  0.33281720191E+03  0.81321558508E+02 0.  0.
         -6    2    1    2    0  502  0.11689607071E+03  0.93493592469E+02 -0.38311237947E+03  0.44633675782E+03  0.17330800011E+03 0.  0.
        -24    2    5    5    0    0  0.91071717776E+02  0.18473657474E+01 -0.28402349791E+03  0.30883539592E+03  0.80077986176E+02 0.  0.
          5    1    3    3  501    0 -0.86124949609E+02  0.15810921383E+02 -0.24851463711E+03  0.26353198485E+03  0.47000000000E+01 0. -1.
        -13    1    4    4    0    0 -0.46001517504E+02 -0.50911120151E+02 -0.95516861791E+02  0.11760762158E+03  0.00000000000E+00 0.  1.
         14    1    4    4    0    0  0.15230396403E+02 -0.58393393701E+02 -0.20657543432E+03  0.21520958033E+03  0.00000000000E+00 0. -1.
         -5    1    5    5    0  502  0.25824352934E+02  0.91646226722E+02 -0.99088881557E+02  0.13750136190E+03  0.47000000000E+01 0.  1.
         11    1    6    6    0    0  0.33165180088E+02 -0.31663618722E+02 -0.17511121523E+03  0.18101505910E+03  0.00000000000E+00 0. -1.
        -12    1    6    6    0    0  0.57906537688E+02  0.33510984470E+02 -0.10891228268E+03  0.12782033682E+03  0.00000000000E+00 0.  1.
</event>
<event>
12    1  0.8052519E-002  0.2256012E+03  0.7818608E-02  0.1129789E+00
         21   -1    0    0  503  502  0.00000000000E+00  0.00000000000E+00  0.62790317748E+03  0.62790317748E+03  0.00000000000E+00 0. -1.
         21   -1    0    0  501  503 -0.00000000000E+00 -0.00000000000E+00 -0.26094641895E+03  0.26094641895E+03  0.00000000000E+00 0. -1.
          6    2    1    2  501    0  0.63994427515E+02  0.13147500152E+03 -0.18556105571E+03  0.29204824713E+03  0.17169248812E+03 0.  0.
         24    2    3    3    0    0  0.25604917850E+02  0.44390502615E+01 -0.10572023874E+03  0.13710137424E+03  0.83334872369E+02 0.  0.
         -6    2    1    2    0  502 -0.63994427515E+02 -0.13147500152E+03  0.55251781424E+03  0.59680134930E+03  0.17179916385E+03 0.  0.
        -24    2    5    5    0    0 -0.85537776933E+02 -0.12971331071E+03  0.33288583112E+03  0.37605824643E+03  0.80402573872E+02 0.  0.
          5    1    3    3  501    0  0.38389509665E+02  0.12703595126E+03 -0.79840816971E+02  0.15494687289E+03  0.47000000000E+01 0. -1.
        -11    1    4    4    0    0 -0.10813051023E+02 -0.36845209197E+01  0.10205707876E+02  0.15318428120E+02  0.00000000000E+00 0.  1.
         12    1    4    4    0    0  0.36417968873E+02  0.81235711812E+01 -0.11592594662E+03  0.12178294612E+03  0.00000000000E+00 0. -1.
         -5    1    5    5    0  502  0.21543349418E+02 -0.17616908081E+01  0.21963198312E+03  0.22074310288E+03  0.47000000000E+01 0.  1.
         13    1    6    6    0    0  0.16649477077E+01 -0.27508251909E+02  0.12883253436E+03  0.13174709819E+03  0.00000000000E+00 0. -1.
        -14    1    6    6    0    0 -0.87202724641E+02 -0.10220505880E+03  0.20405329676E+03  0.24431114823E+03  0.00000000000E+00 0.  1.
</event>
<event>
12    1  0.8052519E-002  0.3210170E+03  0.7818608E-02  0.1075203E+00
         21   -1    0    0  501  502  0.00000000000E+00  0.00000000000E+00  0.12028789089E+04  0.12028789089E+04  0.00000000000E+00 0.  1.
         21   -1    0    0  502  503 -0.00000000000E+00 -0.00000000000E+00 -0.14831614353E+03  0.14831614353E+03  0.00000000000E+00 0.  1.
         -6    2    1    2    0  503  0.20336773069E+03 -0.17909444212E+03  0.87952884301E+02  0.33267328608E+03  0.17176307034E+03 0.  0.
        -24    2    3    3    0    0  0.16849739522E+03 -0.69404752320E+02  0.88153442145E+02  0.21747824032E+03  0.79481845814E+02 0.  0.
          6    2    1    2  501    0 -0.20336773069E+03  0.17909444212E+03  0.96660988104E+03  0.10185217663E+04  0.17210076488E+03 0.  0.
         24    2    5    5    0    0 -0.20054731295E+03  0.13132320710E+03  0.90989978911E+03  0.94417010072E+03  0.77939357315E+02 0.  0.
          5    1    5    5  501    0 -0.28204177376E+01  0.47771235021E+02  0.56710091931E+02  0.74351665606E+02  0.47000000000E+01 0. -1.
        -13    1    6    6    0    0 -0.30687510452E+02  0.59515997722E+02  0.27453501061E+03  0.28258334936E+03  0.00000000000E+00 0.  1.
         14    1    6    6    0    0 -0.16985980250E+03  0.71807209374E+02  0.63536477849E+03  0.66158675136E+03  0.00000000000E+00 0. -1.
         -5    1    3    3    0  503  0.34870335471E+02 -0.10968968980E+03 -0.20055784337E+00  0.11519504576E+03  0.47000000000E+01 0.  1.
         13    1    4    4    0    0  0.91946639252E+02 -0.55446270987E+02  0.89305836416E+02  0.13965674296E+03  0.00000000000E+00 0. -1.
        -14    1    4    4    0    0  0.76550755963E+02 -0.13958481333E+02 -0.11523942713E+01  0.77821497365E+02  0.00000000000E+00 0.  1.
</event>
<event>
12    1  0.8052519E-002  0.1734850E+03  0.7818608E-02  0.1174311E+00
         21   -1    0    0  503  502  0.00000000000E+00  0.00000000000E+00  0.53961840097E+02  0.53961840097E+02  0.00000000000E+00 0. -1.
         21   -1    0    0  501  503 -0.00000000000E+00 -0.00000000000E+00 -0.60311321805E+03  0.60311321805E+03  0.00000000000E+00 0. -1.
          6    2    1    2  501    0  0.42186109762E+01  0.20536427044E+02 -0.36544281251E+03  0.40453122400E+03  0.17221358966E+03 0.  0.
         24    2    3    3    0    0  0.48992292305E+01 -0.21580681708E+02 -0.34964681068E+03  0.35929940152E+03  0.79708465321E+02 0.  0.
         -6    2    1    2    0  502 -0.42186109762E+01 -0.20536427044E+02 -0.18370856545E+03  0.25254383415E+03  0.17201746898E+03 0.  0.
        -24    2    5    5    0    0  0.55025278989E+01 -0.40058473084E+02 -0.20350130109E+03  0.22272013205E+03  0.80972332296E+02 0.  0.
          5    1    3    3  501    0 -0.68061825426E+00  0.42117108753E+02 -0.15796001824E+02  0.45231822476E+02  0.47000000000E+01 0. -1.
        -13    1    4    4    0    0 -0.20440482542E+02 -0.22317792796E+02 -0.49046691033E+02  0.57632240137E+02  0.00000000000E+00 0.  1.
         14    1    4    4    0    0  0.25339711773E+02  0.73711108755E+00 -0.30060011965E+03  0.30166716139E+03  0.00000000000E+00 0. -1.
         -5    1    5    5    0  502 -0.97211388751E+01  0.19522046040E+02  0.19792735641E+02  0.29823702097E+02  0.47000000000E+01 0.  1.
         13    1    6    6    0    0 -0.17946278487E+02  0.18999187928E+02 -0.46385882910E+02  0.53241789854E+02  0.00000000000E+00 0. -1.
        -14    1    6    6    0    0  0.23448806386E+02 -0.59057661011E+02 -0.15711541818E+03  0.16947834220E+03  0.00000000000E+00 0.  1.
</event>
<event>
12    1  0.8052519E-002  0.1817534E+03  0.7818608E-02  0.1166426E+00
         21   -1    0    0  501  502  0.00000000000E+00  0.00000000000E+00  0.13175687047E+03  0.13175687047E+03  0.00000000000E+00 0. -1.
         21   -1    0    0  502  503 -0.00000000000E+00 -0.00000000000E+00 -0.10010055872E+04  0.10010055872E+04  0.00000000000E+00 0. -1.
         -6    2    1    2    0  503 -0.49235785964E+02  0.26871415401E+02 -0.92593494015E+03  0.94360468292E+03  0.17288160298E+03 0.  0.
        -24    2    3    3    0    0 -0.94170872355E+02  0.18476795348E+02 -0.79332635970E+03  0.80325954675E+03  0.81545332770E+02 0.  0.
          6    2    1    2  501    0  0.49235785964E+02 -0.26871415401E+02  0.56686223440E+02  0.18915777472E+03  0.17152580047E+03 0.  0.
         24    2    5    5    0    0  0.44715798362E+02  0.42174202787E+02  0.64687970771E+02  0.11934484154E+03  0.79249552911E+02 0.  0.
          5    1    5    5  501    0  0.45199876018E+01 -0.69045618188E+02 -0.80017473310E+01  0.69812933181E+02  0.47000000000E+01 0. -1.
        -11    1    6    6    0    0  0.15335070916E+02  0.55156313724E+02  0.13347109109E+02  0.58783744906E+02  0.00000000000E+00 0.  1.
         12    1    6    6    0    0  0.29380727447E+02 -0.12982110937E+02  0.51340861662E+02  0.60561096637E+02  0.00000000000E+00 0. -1.
         -5    1    3    3    0  503  0.44935086391E+02  0.83946200529E+01 -0.13260858045E+03  0.14034513616E+03  0.47000000000E+01 0.  1.
         11    1    4    4    0    0 -0.27923884105E+01  0.24023529728E+01 -0.36415355027E+03  0.36417218031E+03  0.00000000000E+00 0. -1.
        -12    1    4    4    0    0 -0.91378483945E+02  0.16074442375E+02 -0.42917280942E+03  0.43908736645E+03  0.00000000000E+00 0.  1.
</event>
<event>
12    1  0.8052519E-002  0.1755191E+03  0.7818608E-02  0.1172265E+00
         21   -1    0    0  503  502  0.00000000000E+00  0.00000000000E+00  0.52259582422E+03  0.52259582422E+03  0.00000000000E+00 0.  1.
         21   -1    0    0  501  503 -0.00000000000E+00 -0.00000000000E+00 -0.73330818849E+02  0.73330818849E+02  0.00000000000E+00 0.  1.
          6    2    1    2  501    0  0.11700498611E+02 -0.27621004925E+02  0.92240966782E+02  0.19809111685E+03  0.17271905813E+03 0.  0.
         24    2    3    3    0    0  0.48204479404E+02 -0.14631392328E+02 -0.31155158313E+01  0.95056077056E+02  0.80549375357E+02 0.  0.
         -6    2    1    2    0  502 -0.11700498611E+02  0.27621004925E+02  0.35702403859E+03  0.39783552622E+03  0.17293675205E+03 0.  0.
        -24    2    5    5    0    0  0.27877138662E+02 -0.39876879490E+02  0.23789518364E+03  0.25523073017E+03  0.78621287511E+02 0.  0.
          5    1    3    3  501    0 -0.36503980793E+02 -0.12989612597E+02  0.95356482613E+02  0.10303503979E+03  0.47000000000E+01 0. -1.
        -13    1    4    4    0    0  0.20059577323E+02 -0.47070162577E+02  0.47825119704E+01  0.51389291377E+02  0.00000000000E+00 0.  1.
         14    1    4    4    0    0  0.28144902081E+02  0.32438770249E+02 -0.78980278017E+01  0.43666785679E+02  0.00000000000E+00 0. -1.
         -5    1    5    5    0  502 -0.39577637273E+02  0.67497884416E+02  0.11912885496E+03  0.14260479605E+03  0.47000000000E+01 0.  1.
         11    1    6    6    0    0  0.37529818218E+02 -0.22099512137E+02  0.50247229449E+02  0.66495561953E+02  0.00000000000E+00 0. -1.
        -12    1    6    6    0    0 -0.96526795560E+01 -0.17777367353E+02  0.18764795419E+03  0.18873516822E+03  0.00000000000E+00 0.  1.
</event>
<event>
12    1  0.8052519E-002  0.2140670E+03  0.7818608E-02  0.1138544E+00
         21   -1    0    0  501  502  0.00000000000E+00  0.00000000000E+00  0.65242190965E+03  0.65242190965E+03  0.00000000000E+00 0.  1.
         21   -1    0    0  502  503 -0.00000000000E+00 -0.00000000000E+00 -0.69979921858E+02  0.69979921858E+02  0.00000000000E+00 0.  1.
         -6    2    1    2    0  503 -0.66084680835E+02  0.11048546248E+03  0.29529024193E+03  0.36423870984E+03  0.16999790677E+03 0.  0.
        -24    2    3    3    0    0  0.18301080418E+02  0.13561086962E+02  0.11865697318E+03  0.14575142668E+03  0.81517902771E+02 0.  0.
          6    2    1    2  501    0  0.66084680835E+02 -0.11048546248E+03  0.28715174586E+03  0.35816312166E+03  0.17102769983E+03 0.  0.
         24    2    5    5    0    0  0.37251071334E+02 -0.26697812704E+01  0.63278978491E+02  0.10796978818E+03  0.79110530227E+02 0.  0.
          5    1    5    5  501    0  0.28833609501E+02 -0.10781568121E+03  0.22387276737E+03  0.25019333349E+03  0.47000000000E+01 0. -1.
        -11    1    6    6    0    0  0.43635960846E+02 -0.75917004819E+01  0.78848551111E+02  0.90436856467E+02  0.00000000000E+00 0.  1.
         12    1    6    6    0    0 -0.63848895120E+01  0.49219192115E+01 -0.15569572621E+02  0.17532931712E+02  0.00000000000E+00 0. -1.
         -5    1    3    3    0  503 -0.84385761253E+02  0.96924375519E+02  0.17663326875E+03  0.21848728316E+03  0.47000000000E+01 0.  1.
         13    1    4    4    0    0  0.35905515023E+02 -0.20167102278E+02  0.87010718816E+02  0.96264132533E+02  0.00000000000E+00 0. -1.
        -14    1    4    4    0    0 -0.17604434605E+02  0.33728189240E+02  0.31646254363E+02  0.49487294151E+02  0.00000000000E+00 0.  1.
</event>
<event>
12    1  0.8052519E-002  0.3157226E+03  0.7818608E-02  0.1077662E+00
         21   -1    0    0  501  502  0.00000000000E+00  0.00000000000E+00  0.13606027322E+04  0.13606027322E+04  0.00000000000E+00 0.  1.
         21   -1    0    0  502  503 -0.00000000000E+00 -0.00000000000E+00 -0.11506848907E+03  0.11506848907E+03  0.00000000000E+00 0. -1.
         -6    2    1    2    0  503 -0.15343604036E+03 -0.21558174243E+03  0.17789302199E+03  0.36239022203E+03  0.17222845178E+03 0.  0.
        -24    2    3    3    0    0 -0.17033488813E+03 -0.19937558966E+03  0.11897781866E+03  0.29881898933E+03  0.79827734469E+02 0.  0.
          6    2    1    2  501    0  0.15343604036E+03  0.21558174243E+03  0.10676412212E+04  0.11132809993E+04  0.17181006961E+03 0.  0.
         24    2    5    5    0    0  0.61551267319E+02  0.74884183964E+02  0.65135417354E+03  0.66433154721E+03  0.87623887763E+02 0.  0.
          5    1    5    5  501    0  0.91884773040E+02  0.14069755847E+03  0.41628704765E+03  0.44894945207E+03  0.47000000000E+01 0. -1.
        -13    1    6    6    0    0 -0.72415125220E+00  0.68001557626E+02  0.34269982340E+03  0.34938217641E+03  0.00000000000E+00 0.  1.
         14    1    6    6    0    0  0.62275418572E+02  0.68826263380E+01  0.30865435014E+03  0.31494937079E+03  0.00000000000E+00 0. -1.
         -5    1    3    3    0  503  0.16898847767E+02 -0.16206152776E+02  0.58915203330E+02  0.63571232701E+02  0.47000000000E+01 0.  1.
         13    1    4    4    0    0 -0.12843046653E+03 -0.19183447544E+03  0.10787668829E+03  0.25481803425E+03  0.00000000000E+00 0. -1.
        -14    1    4    4    0    0 -0.41904421599E+02 -0.75411142122E+01  0.11101130367E+02  0.44000955087E+02  0.00000000000E+00 0.  1.
</event>
<event>
12    1  0.8052519E-002  0.2117197E+03  0.7818608E-02  0.1140260E+00
         21   -1    0    0  501  502  0.00000000000E+00  0.00000000000E+00  0.16903887644E+04  0.16903887644E+04  0.00000000000E+00 0.  1.
         21   -1    0    0  502  503 -0.00000000000E+00 -0.00000000000E+00 -0.66489898305E+02  0.66489898305E+02  0.00000000000E+00 0. -1.
         -6    2    1    2    0  503 -0.67690070695E+02 -0.10378236102E+03  0.13039468791E+03  0.24844240180E+03  0.17137131688E+03 0.  0.
        -24    2    3    3    0    0 -0.46294738582E+02 -0.81807996171E+02  0.90669668328E+01  0.12321006233E+03  0.79137592297E+02 0.  0.
          6    2    1    2  501    0  0.67690070695E+02  0.10378236102E+03  0.14935041782E+04  0.15084362609E+04  0.17167556269E+03 0.  0.
         24    2    5    5    0    0  0.17002619393E+00  0.84149821096E+02  0.12417524449E+04  0.12470066944E+04  0.77429581896E+02 0.  0.
          5    1    5    5  501    0  0.67520044501E+02  0.19632539924E+02  0.25175173330E+03  0.26142956653E+03  0.47000000000E+01 0. -1.
        -13    1    6    6    0    0  0.15454733225E+01  0.96694132370E+02  0.11812621777E+04  0.11852141057E+04  0.00000000000E+00 0.  1.
         14    1    6    6    0    0 -0.13754471286E+01 -0.12544311274E+02  0.60490267139E+02  0.61792588703E+02  0.00000000000E+00 0. -1.
         -5    1    3    3    0  503 -0.21395332112E+02 -0.21974364849E+02  0.12132772108E+03  0.12523233947E+03  0.47000000000E+01 0.  1.
         13    1    4    4    0    0 -0.33226967069E+02 -0.30097134946E+02 -0.32679944686E+02  0.55478353050E+02  0.00000000000E+00 0. -1.
        -14    1    4    4    0    0 -0.13067771513E+02 -0.51710861225E+02  0.41746911518E+02  0.67731709282E+02  0.00000000000E+00 0.  1.
</event>
<event>
12    1  0.8052519E-002  0.1900172E+03  0.7818608E-02  0.1158569E+00
         21   -1    0    0  503  502  0.00000000000E+00  0.00000000000E+00  0.40212168191E+02  0.40212168191E+02  0.00000000000E+00 0.  1.
         21   -1    0    0  501  503 -0.00000000000E+00 -0.00000000000E+00 -0.89573773068E+03  0.89573773068E+03  0.00000000000E+00 0.  1.
          6    2    1    2  501    0  0.29993094686E+02 -0.73585451757E+02 -0.41709331681E+03  0.45811168504E+03  0.17200312962E+03 0.  0.
         24    2    3    3    0    0  0.48105779475E+02 -0.11023196741E+03 -0.27467175299E+03  0.30986517310E+03  0.78144743606E+02 0.  0.
         -6    2    1    2    0  502 -0.29993094686E+02  0.73585451757E+02 -0.43843224568E+03  0.47783821383E+03  0.17260394002E+03 0.  0.
        -24    2    5    5    0    0 -0.66660866331E+02  0.32127771554E+02 -0.38828519281E+03  0.40300452064E+03  0.78558181611E+02 0.  0.
          5    1    3    3  501    0 -0.18112684789E+02  0.36646515654E+02 -0.14242156382E+03  0.14824651193E+03  0.47000000000E+01 0. -1.
        -11    1    4    4    0    0  0.30760510833E+02 -0.45818463128E+02 -0.20934717004E+03  0.21649891037E+03  0.00000000000E+00 0.  1.
         12    1    4    4    0    0  0.17345268642E+02 -0.64413504283E+02 -0.65324582955E+02  0.93366262732E+02  0.00000000000E+00 0. -1.
         -5    1    5    5    0  502  0.36667771645E+02  0.41457680202E+02 -0.50147052869E+02  0.74833693191E+02  0.47000000000E+01 0.  1.
         13    1    6    6    0    0 -0.21879227732E+02 -0.65877787727E+01 -0.21176219651E+02  0.31153357990E+02  0.00000000000E+00 0. -1.
        -14    1    6    6    0    0 -0.44781638599E+02  0.38715550327E+02 -0.36710897316E+03  0.37185116265E+03  0.00000000000E+00 0.  1.
</event>
<event>
12    1  0.8052519E-002  0.1729741E+03  0.7818608E-02  0.1174815E+00
         21   -1    0    0  503  502  0.00000000000E+00  0.00000000000E+00  0.40332836851E+03  0.40332836851E+03  0.00000000000E+00 0. -1.
         21   -1    0    0  501  503 -0.00000000000E+00 -0.00000000000E+00 -0.29007073396E+03  0.29007073396E+03  0.00000000000E+00 0. -1.
          6    2    1    2  501    0 -0.57790327813E+01 -0.18232362379E+02 -0.24250380458E+03  0.29787268341E+03  0.17191342014E+03 0.  0.
         24    2    3    3    0    0  0.15402420535E+02 -0.15403086047E+02 -0.34601108736E+02  0.88821781209E+02  0.78851648513E+02 0.  0.
         -6    2    1    2    0  502  0.57790327813E+01  0.18232362379E+02  0.35576143913E+03  0.39552641906E+03  0.17178221779E+03 0.  0.
        -24    2    5    5    0    0  0.10402545412E+02  0.21560437634E+02  0.72301338435E+02  0.11197012547E+03  0.82077768216E+02 0.  0.
          5    1    3    3  501    0 -0.21181453316E+02 -0.28292763317E+01 -0.20790269585E+03  0.20905090220E+03  0.47000000000E+01 0. -1.
        -13    1    4    4    0    0  0.12847619053E+02 -0.44250055809E+02 -0.33253116483E+01  0.46197255892E+02  0.00000000000E+00 0.  1.
         14    1    4    4    0    0  0.25548014819E+01  0.28846969761E+02 -0.31275797087E+02  0.42624525317E+02  0.00000000000E+00 0. -1.
         -5    1    5    5    0  502 -0.46235126303E+01 -0.33280752547E+01  0.28346010069E+03  0.28355629360E+03  0.47000000000E+01 0.  1.
         13    1    6    6    0    0 -0.88982427086E+01  0.56313480366E+01  0.83779170473E+02  0.84438381137E+02  0.00000000000E+00 0. -1.
        -14    1    6    6    0    0  0.19300788120E+02  0.15929089597E+02 -0.11477832038E+02  0.27531744328E+02  0.00000000000E+00 0.  1.
</event>
<event>
12    1  0.8052519E-002  0.3007104E+03  0.7818608E-02  0.1085335E+00
         21   -1    0    0  503  502  0.00000000000E+00  0.00000000000E+00  0.23663770318E+03  0.23663770318E+03  0.00000000000E+00 0. -1.
         21   -1    0    0  501  503 -0.00000000000E+00 -0.00000000000E+00 -0.49400684569E+03  0.49400684569E+03  0.00000000000E+00 0.  1.
          6    2    1    2  501    0 -0.24326597737E+03 -0.82494286957E+01 -0.30661424372E+03  0.42946369270E+03  0.17657967062E+03 0.  0.
         24    2    3    3    0    0 -0.23294999529E+03 -0.15015703335E+02 -0.32432774107E+03  0.40737161387E+03  0.79195811176E+02 0.  0.
         -6    2    1    2    0  502  0.24326597737E+03  0.82494286957E+01  0.49245101210E+02  0.30118085617E+03  0.17040668798E+03 0.  0.
        -24    2    5    5    0    0  0.11524637589E+03  0.68229846559E+02  0.32151577703E+02  0.15869946287E+03  0.78833726594E+02 0.  0.
          5    1    3    3  501    0 -0.10315982082E+02  0.67662746390E+01  0.17713497347E+02  0.22092078831E+02  0.47000000000E+01 0. -1.
        -11    1    4    4    0    0 -0.16439691044E+03  0.17621426420E+02 -0.25865569970E+03  0.30698473874E+03  0.00000000000E+00 0.  1.
         12    1    4    4    0    0 -0.68553084852E+02 -0.32637129755E+02 -0.65672041372E+02  0.10038687513E+03  0.00000000000E+00 0. -1.
         -5    1    5    5    0  502  0.12801960148E+03 -0.59980417863E+02  0.17093523507E+02  0.14248139330E+03  0.47000000000E+01 0.  1.
         13    1    6    6    0    0  0.40187121858E+02  0.28393508452E+02  0.51838566276E+02  0.71473302981E+02  0.00000000000E+00 0. -1.
        -14    1    6    6    0    0  0.75059254033E+02  0.39836338106E+02 -0.19686988573E+02  0.87226159888E+02  0.00000000000E+00 0.  1.
</event>
<event>
12    1  0.8052519E-002  0.1902750E+03  0.7818608E-02  0.1158218E+00
         21   -1    0    0  501  502  0.00000000000E+00  0.00000000000E+00  0.17890691994E+03  0.17890691994E+03  0.00000000000E+00 0. -1.
         21   -1    0    0  502  503 -0.00000000000E+00 -0.00000000000E+00 -0.74527057389E+03  0.74527057389E+03  0.00000000000E+00 0.  1.
         -6    2    1    2    0  503  0.76543730475E+02  0.28514416306E+02 -0.67758772266E+03  0.70379663071E+03  0.17185040263E+03 0.  0.
        -24    2    3    3    0    0  0.72917421861E+02  0.60244836345E+02 -0.29997173029E+03  0.32480336248E+03  0.81041931042E+02 0.  0.
          6    2    1    2  501    0 -0.76543730475E+02 -0.28514416306E+02  0.11122406871E+03  0.22038086312E+03  0.17182816055E+03 0.  0.
         24    2    5    5    0    0 -0.12894608427E+01 -0.67060253217E+02  0.69326777042E+02  0.12590091980E+03  0.80907968212E+02 0.  0.
          5    1    5    5  501    0 -0.75254269632E+02  0.38545836911E+02  0.41897291665E+02  0.94479943320E+02  0.47000000000E+01 0. -1.
        -11    1    6    6    0    0  0.11308695962E+02 -0.27470537518E+02 -0.13962494210E+02  0.32824811964E+02  0.00000000000E+00 0.  1.
         12    1    6    6    0    0 -0.12598156805E+02 -0.39589715699E+02  0.83289271251E+02  0.93076107834E+02  0.00000000000E+00 0. -1.
         -5    1    3    3    0  503  0.36263086132E+01 -0.31730420038E+02 -0.37761599237E+03  0.37899326823E+03  0.47000000000E+01 0.  1.
         11    1    4    4    0    0 -0.11540240836E+02 -0.43133486324E+01 -0.97074351849E+01  0.15684910993E+02  0.00000000000E+00 0. -1.
        -12    1    4    4    0    0  0.84457662698E+02  0.64558184977E+02 -0.29026429511E+03  0.30911845149E+03  0.00000000000E+00 0.  1.
</event>
<event>
12    1  0.8052519E-002  0.1875061E+03  0.7818608E-02  0.1160952E+00
         21   -1    0    0  503  502  0.00000000000E+00  0.00000000000E+00  0.33519445356E+02  0.33519445356E+02  0.00000000000E+00 0. -1.
         21   -1    0    0  501  503 -0.00000000000E+00 -0.00000000000E+00 -0.21903296820E+04  0.21903296820E+04  0.00000000000E+00 0. -1.
          6    2    1    2  501    0  0.66465645959E+02 -0.27260474599E+02 -0.18816577469E+04  0.18908815272E+04  0.17215184527E+03 0.  0.
         24    2    3    3    0    0  0.82525143919E+02  0.35950849308E+02 -0.11578438334E+04  0.11641200461E+04  0.80438028093E+02 0.  0.
         -6    2    1    2    0  502 -0.66465645959E+02  0.27260474599E+02 -0.27515248980E+03  0.33296760022E+03  0.17319848321E+03 0.  0.
        -24    2    5    5    0    0 -0.70341448861E+02 -0.15453805981E+02 -0.83359614796E+02  0.13638141425E+03  0.80401027521E+02 0.  0.
          5    1    3    3  501    0 -0.16059497960E+02 -0.63211323906E+02 -0.72381391350E+03  0.72676148104E+03  0.47000000000E+01 0. -1.
        -13    1    4    4    0    0 -0.88164930376E+01  0.84646525331E+01 -0.32195236569E+02  0.34437104258E+02  0.00000000000E+00 0.  1.
         14    1    4    4    0    0  0.91341636957E+02  0.27486196775E+02 -0.11256485968E+04  0.11296829419E+04  0.00000000000E+00 0. -1.
         -5    1    5    5    0  502  0.38758029018E+01  0.42714280580E+02 -0.19179287500E+03  0.19658618597E+03  0.47000000000E+01 0.  1.
         11    1    6    6    0    0 -0.41543583253E+02 -0.40689820516E+02 -0.78634415963E+02  0.97800317878E+02  0.00000000000E+00 0. -1.
        -12    1    6    6    0    0 -0.28797865608E+02  0.25236014535E+02 -0.47251988328E+01  0.38581096371E+02  0.00000000000E+00 0.  1.
</event>
<event>
12    1  0.8052519E-002  0.2203899E+03  0.7818608E-02  0.1133629E+00
         21   -1    0    0  503  502  0.00000000000E+00  0.00000000000E+00  0.12969529946E+03  0.12969529946E+03  0.00000000000E+00 0. -1.
         21   -1    0    0  501  503 -0.00000000000E+00 -0.00000000000E+00 -0.37585729612E+03  0.37585729612E+03  0.00000000000E+00 0. -1.
          6    2    1    2  501    0  0.13738798430E+03  0.63037847692E+01 -0.14004695019E+03  0.26112232683E+03  0.17221070054E+03 0.  0.
         24    2    3    3    0    0  0.75966484280E+02  0.71051342657E+02 -0.84698722443E+02  0.15600161892E+03  0.79645662126E+02 0.  0.
         -6    2    1    2    0  502 -0.13738798430E+03 -0.63037847692E+01 -0.10611504647E+03  0.24443026875E+03  0.17196091783E+03 0.  0.
        -24    2    5    5    0    0 -0.17984978159E+02  0.37953378559E+02 -0.28507761525E+02  0.95229883165E+02  0.80573691718E+02 0.  0.
          5    1    3    3  501    0  0.61421500020E+02 -0.64747557888E+02 -0.55348227749E+02  0.10512070791E+03  0.47000000000E+01 0. -1.
        -13    1    4    4    0    0  0.11430036954E+01  0.47531416383E+02 -0.11948802586E+02  0.49023625774E+02  0.00000000000E+00 0.  1.
         14    1    4    4    0    0  0.74823480585E+02  0.23519926274E+02 -0.72749919856E+02  0.10697799315E+03  0.00000000000E+00 0. -1.
         -5    1    5    5    0  502 -0.11940300614E+03 -0.44257163328E+02 -0.77607284946E+02  0.14920038558E+03  0.47000000000E+01 0.  1.
         13    1    6    6    0    0 -0.15869528406E+02  0.59374507168E+02 -0.37395766270E+02  0.71941763728E+02  0.00000000000E+00 0. -1.
        -14    1    6    6    0    0 -0.21154497526E+01 -0.21421128610E+02  0.88880047451E+01  0.23288119437E+02  0.00000000000E+00 0.  1.
</event>
<event>
12    1  0.8052519E-002  0.2239069E+03  0.7818608E-02  0.1131190E+00
         21   -1    0    0  501  502  0.00000000000E+00  0.00000000000E+00  0.12856324223E+04  0.12856324223E+04  0.00000000000E+00 0.  1.
         21   -1    0    0  502  503 -0.00000000000E+00 -0.00000000000E+00 -0.39925664552E+02  0.39925664552E+02  0.00000000000E+00 0.  1.
         -6    2    1    2    0  503 -0.13755536477E+03 -0.35248966962E+02  0.51385816584E+03  0.56052165728E+03  0.17311945481E+03 0.  0.
        -24    2    3    3    0    0 -0.53462356570E+02  0.37180817660E+02  0.16937526783E+03  0.19857101873E+03  0.80633934260E+02 0.  0.
          6    2    1    2  501    0  0.13755536477E+03  0.35248966962E+02  0.73184859190E+03  0.76503642957E+03  0.17179758159E+03 0.  0.
         24    2    5    5    0    0  0.15891639578E+03  0.45471714169E+02  0.70642755759E+03  0.72997766188E+03  0.80656029385E+02 0.  0.
          5    1    5    5  501    0 -0.21361031011E+02 -0.10222747206E+02  0.25421034311E+02  0.35058767687E+02  0.47000000000E+01 0. -1.
        -13    1    6    6    0    0  0.98221774900E+02  0.46149936852E+02  0.57578435894E+03  0.58592231715E+03  0.00000000000E+00 0.  1.
         14    1    6    6    0    0  0.60694620882E+02 -0.67822268309E+00  0.13064319865E+03  0.14405534473E+03  0.00000000000E+00 0. -1.
         -5    1    3    3    0  503 -0.84093008200E+02 -0.72429784623E+02  0.34448289801E+03  0.36195063855E+03  0.47000000000E+01 0.  1.
         13    1    4    4    0    0  0.20614189529E+02  0.56132591938E+01  0.22216158117E+02  0.30822251219E+02  0.00000000000E+00 0. -1.
        -14    1    4    4    0    0 -0.74076546099E+02  0.31567558466E+02  0.14715910971E+03  0.16774876751E+03  0.00000000000E+00 0.  1.
</event>
<event>
12    1  0.8052519E-002  0.2189087E+03  0.7818608E-02  0.1135099E+00
         21   -1    0    0  503  502  0.00000000000E+00  0.00000000000E+00  0.15187287923E+03  0.15187287923E+03  0.00000000000E+00 0.  1.
         21   -1    0    0  501  503 -0.00000000000E+00 -0.00000000000E+00 -0.38466369473E+03  0.38466369473E+03  0.00000000000E+00 0.  1.
          6    2    1    2  501    0 -0.11427906314E+03 -0.68255979912E+02 -0.23214133913E+03  0.31762686511E+03  0.17111002613E+03 0.  0.
         24    2    3    3    0    0 -0.14179068552E+03 -0.31004836590E+02 -0.20542201610E+03  0.26395611640E+03  0.80054533248E+02 0.  0.
         -6    2    1    2    0  502  0.11427906314E+03  0.68255979912E+02 -0.64947636914E+00  0.21890970884E+03  0.17378853742E+03 0.  0.
        -24    2    5    5    0    0  0.30307569608E+02 -0.24536493280E+02  0.25185883637E+02  0.91037856448E+02  0.78313308538E+02 0.  0.
          5    1    3    3  501    0  0.27511622377E+02 -0.37251143323E+02 -0.26719323032E+02  0.53670748718E+02  0.47000000000E+01 0. -1.
        -13    1    4    4    0    0 -0.12544798252E+03 -0.24825739902E+01 -0.18988832324E+03  0.22759818715E+03  0.00000000000E+00 0.  1.
         14    1    4    4    0    0 -0.16342702997E+02 -0.28522262599E+02 -0.15533692856E+02  0.36357929243E+02  0.00000000000E+00 0. -1.
         -5    1    5    5    0  502  0.83971493535E+02  0.92792473192E+02 -0.25835360006E+02  0.12787185239E+03  0.47000000000E+01 0.  1.
         11    1    6    6    0    0  0.33071108879E+02 -0.32472291592E+02 -0.15978055057E+02  0.49024954943E+02  0.00000000000E+00 0. -1.
        -12    1    6    6    0    0 -0.27635392713E+01  0.79357983116E+01  0.41163938694E+02  0.42012901505E+02  0.00000000000E+00 0.  1.
</event>
<event>
12    1  0.8052519E-002  0.1956493E+03  0.7818608E-02  0.1153784E+00
         21   -1    0    0  501  502  0.00000000000E+00  0.00000000000E+00  0.58453070205E+03  0.58453070205E+03  0.00000000000E+00 0.  1.
         21   -1    0    0  502  503 -0.00000000000E+00 -0.00000000000E+00 -0.21637234385E+03  0.21637234385E+03  0.00000000000E+00 0.  1.
         -6    2    1    2    0  503 -0.88231192504E+02  0.69093533459E+01 -0.15108201963E+03  0.24602538380E+03  0.17283006198E+03 0.  0.
        -24    2    3    3    0    0 -0.64258459757E+02 -0.53455599184E+01 -0.11167846223E+02  0.10346683185E+03  0.80143245765E+02 0.  0.
          6    2    1    2  501    0  0.88231192504E+02 -0.69093533459E+01  0.51924037783E+03  0.55487766210E+03  0.17448830169E+03 0.  0.
         24    2    5    5    0    0  0.24397450901E+02 -0.65415818693E+02  0.23609196897E+03  0.25874785189E+03  0.79602563381E+02 0.  0.
          5    1    5    5  501    0  0.63833741603E+02  0.58506465347E+02  0.28314840886E+03  0.29612981021E+03  0.47000000000E+01 0. -1.
        -13    1    6    6    0    0  0.45619742528E+01  0.12220064389E+02  0.99776357410E+02  0.10062536003E+03  0.00000000000E+00 0.  1.
         14    1    6    6    0    0  0.19835476648E+02 -0.77635883083E+02  0.13631561156E+03  0.15812249186E+03  0.00000000000E+00 0. -1.
         -5    1    3    3    0  503 -0.23972732747E+02  0.12254913264E+02 -0.13991417341E+03  0.14255855195E+03  0.47000000000E+01 0.  1.
         13    1    4    4    0    0 -0.47341069552E+02 -0.30861689279E+02  0.19838535085E+02  0.59893139889E+02  0.00000000000E+00 0. -1.
        -14    1    4    4    0    0 -0.16917390205E+02  0.25516129361E+02 -0.31006381308E+02  0.43573691956E+02  0.00000000000E+00 0.  1.
</event>
<event>
12    1  0.8052519E-002  0.1726103E+03  0.7818608E-02  0.1175357E+00
         21   -1    0    0  501  502  0.00000000000E+00  0.00000000000E+00  0.27642958853E+03  0.27642958853E+03  0.00000000000E+00 0.  1.
         21   -1    0    0  502  503 -0.00000000000E+00 -0.00000000000E+00 -0.18911479671E+03  0.18911479671E+03  0.00000000000E+00 0.  1.
         -6    2    1    2    0  503  0.85476135336E+01 -0.75524266982E+01 -0.10940290170E+03  0.20436077260E+03  0.17223306776E+03 0.  0.
        -24    2    3    3    0    0 -0.33805315839E+02  0.19119459765E+02 -0.87829131650E+01  0.91881297818E+02  0.82805073543E+02 0.  0.
          6    2    1    2  501    0 -0.85476135336E+01  0.75524266982E+01  0.19671769352E+03  0.26118361264E+03  0.17143199153E+03 0.  0.
         24    2    5    5    0    0  0.10102354401E+02  0.31094489072E+02  0.21013452078E+03  0.22795484109E+03  0.82085126156E+02 0.  0.
          5    1    5    5  501    0 -0.18649967935E+02 -0.23542062373E+02 -0.13416827264E+02  0.33228771548E+02  0.47000000000E+01 0. -1.
        -13    1    6    6    0    0 -0.36237657060E+02  0.13950879514E+02  0.86688079649E+02  0.94987462234E+02  0.00000000000E+00 0.  1.
         14    1    6    6    0    0  0.46340011462E+02  0.17143609558E+02  0.12344644114E+03  0.13296737886E+03  0.00000000000E+00 0. -1.
         -5    1    3    3    0  503  0.42352929372E+02 -0.26671886463E+02 -0.10061998853E+03  0.11247947478E+03  0.47000000000E+01 0.  1.
         11    1    4    4    0    0 -0.37903394067E+02  0.48574891764E+02 -0.38261027736E+01  0.61731891710E+02  0.00000000000E+00 0. -1.
        -12    1    4    4    0    0  0.40980782281E+01 -0.29455431999E+02 -0.49568103913E+01  0.30149406108E+02  0.00000000000E+00 0.  1.
</event>
<event>
12    1  0.8052519E-002  0.4963559E+03  0.7818608E-02  0.1014799E+00
         21   -1    0    0  503  502  0.00000000000E+00  0.00000000000E+00  0.50348887788E+03  0.50348887788E+03  0.00000000000E+00 0.  1.
         21   -1    0    0  501  503 -0.00000000000E+00 -0.00000000000E+00 -0.81765235904E+03  0.81765235904E+03  0.00000000000E+00 0. -1.
          6    2    1    2  501    0 -0.10103141312E+03  0.45365482531E+03 -0.57637988308E+03  0.76064639807E+03  0.17423870500E+03 0.  0.
         24    2    3    3    0    0 -0.11229118731E+03  0.21919214571E+03 -0.26349693237E+03  0.36947206164E+03  0.80152750885E+02 0.  0.
         -6    2    1    2    0  502  0.10103141312E+03 -0.45365482531E+03  0.26221640193E+03  0.56049483885E+03  0.17142629897E+03 0.  0.
        -24    2    5    5    0    0  0.80858551793E+01 -0.33097574321E+03  0.16734941594E+03  0.37963337541E+03  0.80655744179E+02 0.  0.
          5    1    3    3  501    0  0.11259774191E+02  0.23446267960E+03 -0.31288295071E+03  0.39117433644E+03  0.47000000000E+01 0. -1.
        -11    1    4    4    0    0 -0.11038646592E+03  0.18864130204E+03 -0.18906567544E+03  0.28899228766E+03  0.00000000000E+00 0.  1.
         12    1    4    4    0    0 -0.19047213934E+01  0.30550843665E+02 -0.74431256929E+02  0.80479773982E+02  0.00000000000E+00 0. -1.
         -5    1    5    5    0  502  0.92945557941E+02 -0.12267908210E+03  0.94866985992E+02  0.18086146344E+03  0.47000000000E+01 0.  1.
         11    1    6    6    0    0 -0.35790509195E+01 -0.14641422401E+03  0.11841122456E+03  0.18833786847E+03  0.00000000000E+00 0. -1.
        -12    1    6    6    0    0  0.11664906099E+02 -0.18456151919E+03  0.48938191378E+02  0.19129550694E+03  0.00000000000E+00 0.  1.
</event>
<event>
12    1  0.8052519E-002  0.1736652E+03  0.7818608E-02  0.1174315E+00
         21   -1    0    0  503  502  0.00000000000E+00  0.00000000000E+00  0.16719105493E+03  0.16719105493E+03  0.00000000000E+00 0. -1.
         21   -1    0    0  501  503 -0.00000000000E+00 -0.00000000000E+00 -0.23244033268E+03  0.23244033268E+03  0.00000000000E+00 0. -1.
          6    2    1    2  501    0  0.16153835473E+02  0.15172311462E+02 -0.12811707213E+03  0.21580914426E+03  0.17224533996E+03 0.  0.
         24    2    3    3    0    0  0.58372404728E+02  0.50912585494E+01 -0.22201894901E+02  0.10124846171E+03  0.79530298091E+02 0.  0.
         -6    2    1    2    0  502 -0.16153835473E+02 -0.15172311462E+02  0.62867794375E+02  0.18382224335E+03  0.17130998846E+03 0.  0.
        -24    2    5    5    0    0  0.43966607746E+02  0.30994730934E+02  0.36333800035E+02  0.10337346243E+03  0.80449933294E+02 0.  0.
          5    1    3    3  501    0 -0.42218569255E+02  0.10081052913E+02 -0.10591517723E+03  0.11456068255E+03  0.47000000000E+01 0. -1.
        -13    1    4    4    0    0  0.25111415152E+02 -0.28582826264E+02  0.15151980542E+02  0.40952944248E+02  0.00000000000E+00 0.  1.
         14    1    4    4    0    0  0.33260989575E+02  0.33674084814E+02 -0.37353875444E+02  0.60295517464E+02  0.00000000000E+00 0. -1.
         -5    1    5    5    0  502 -0.60120443219E+02 -0.46167042397E+02  0.26533994340E+02  0.80448780924E+02  0.47000000000E+01 0.  1.
         11    1    6    6    0    0  0.35903428029E+01 -0.86340191171E+01 -0.20900623911E+02  0.22897006953E+02  0.00000000000E+00 0. -1.
        -12    1    6    6    0    0  0.40376264943E+02  0.39628750051E+02  0.57234423946E+02  0.80476455475E+02  0.00000000000E+00 0.  1.
</event>
<event>
12    1  0.8052519E-002  0.3348331E+03  0.7818608E-02  0.1069221E+00
         21   -1    0    0  503  502  0.00000000000E+00  0.00000000000E+00  0.44894574412E+03  0.44894574412E+03  0.00000000000E+00 0. -1.
         21   -1    0    0  501  503 -0.00000000000E+00 -0.00000000000E+00 -0.47234880081E+03  0.47234880081E+03  0.00000000000E+00 0. -1.
          6    2    1    2  501    0  0.68942432714E+02  0.27890541890E+03 -0.32894826156E+03  0.46938276371E+03  0.17196490445E+03 0.  0.
         24    2    3    3    0    0 -0.15884545917E+02  0.18558340103E+03 -0.16207221140E+03  0.26015962579E+03  0.81988484846E+02 0.  0.
         -6    2    1    2    0  502 -0.68942432714E+02 -0.27890541890E+03  0.30554520486E+03  0.45191178122E+03  0.16830060626E+03 0.  0.
        -24    2    5    5    0    0  0.13749555100E+02 -0.17979088050E+03  0.22693029739E+03  0.30070314969E+03  0.80070052981E+02 0.  0.
          5    1    3    3  501    0  0.84826978631E+02  0.93322017871E+02 -0.16687605016E+03  0.20922313792E+03  0.47000000000E+01 0. -1.
        -13    1    4    4    0    0  0.15395797740E+02  0.95029059545E+01 -0.39216679745E+02  0.43188931219E+02  0.00000000000E+00 0.  1.
         14    1    4    4    0    0 -0.31280343657E+02  0.17608049508E+03 -0.12285553166E+03  0.21697069457E+03  0.00000000000E+00 0. -1.
         -5    1    5    5    0  502 -0.82691987814E+02 -0.99114538400E+02  0.78614907475E+02  0.15120863153E+03  0.47000000000E+01 0.  1.
         13    1    6    6    0    0 -0.28336239022E+02 -0.31550048038E+02  0.38419820378E+02  0.57222640371E+02  0.00000000000E+00 0. -1.
        -14    1    6    6    0    0  0.42085794122E+02 -0.14824083246E+03  0.18851047701E+03  0.24348050932E+03  0.00000000000E+00 0.  1.
</event>
<event>
12    1  0.8052519E-002  0.1859463E+03  0.7818608E-02  0.1162915E+00
         21   -1    0    0  503  502  0.00000000000E+00  0.00000000000E+00  0.79562934954E+03  0.79562934954E+03  0.00000000000E+00 0.  1.
         21   -1    0    0  501  503 -0.00000000000E+00 -0.00000000000E+00 -0.64661741853E+02  0.64661741853E+02  0.00000000000E+00 0. -1.
          6    2    1    2  501    0 -0.62943792817E+02 -0.19741462232E+01  0.11281469370E+03  0.21477652205E+03  0.17156917265E+03 0.  0.
         24    2    3    3    0    0 -0.74034207920E+02  0.59722609487E-01  0.14770277763E+03  0.17781164237E+03  0.65725201674E+02 0.  0.
         -6    2    1    2    0  502  0.62943792817E+02  0.19741462232E+01  0.61815291399E+03  0.64551456935E+03  0.17495775448E+03 0.  0.
        -24    2    5    5    0    0  0.93434036134E+02 -0.33143552288E+02  0.53048387403E+03  0.54616237634E+03  0.83974916259E+02 0.  0.
          5    1    3    3  501    0  0.11090415103E+02 -0.20338688327E+01 -0.34888083928E+02  0.36964879680E+02  0.47000000000E+01 0. -1.
        -11    1    4    4    0    0 -0.60195005296E+02 -0.15220770817E+02  0.14406767279E+03  0.15687767486E+03  0.00000000000E+00 0.  1.
         12    1    4    4    0    0 -0.13839202624E+02  0.15280493426E+02  0.36351048393E+01  0.20933967512E+02  0.00000000000E+00 0. -1.
         -5    1    5    5    0  502 -0.30490243317E+02  0.35117698511E+02  0.87669039963E+02  0.99352193002E+02  0.47000000000E+01 0.  1.
         13    1    6    6    0    0  0.37411461827E+02 -0.43003814391E+02  0.13400651779E+03  0.14562517755E+03  0.00000000000E+00 0. -1.
        -14    1    6    6    0    0  0.56022574308E+02  0.98602621031E+01  0.39647735624E+03  0.40053719879E+03  0.00000000000E+00 0.  1.
</event>
<event>
12    1  0.8052519E-002  0.2509760E+03  0.7818608E-02  0.1112823E+00
         21   -1    0    0  503  502  0.00000000000E+00  0.00000000000E+00  0.24232730734E+03  0.24232730734E+03  0.00000000000E+00 0.  1.
         21   -1    0    0  501  503 -0.00000000000E+00 -0.00000000000E+00 -0.17828392804E+04  0.17828392804E+04  0.00000000000E+00 0.  1.
          6    2    1    2  501    0  0.18090679805E+03  0.11868722958E+02 -0.17065743948E+04  0.17249304693E+04  0.17355351558E+03 0.  0.
         24    2    3    3    0    0  0.18533554442E+03  0.46270303412E+02 -0.12403963247E+04  0.12574401854E+04  0.77990848435E+02 0.  0.
         -6    2    1    2    0  502 -0.18090679805E+03 -0.11868722958E+02  0.16606242174E+03  0.30023611843E+03  0.17232777702E+03 0.  0.
        -24    2    5    5    0    0 -0.12850223652E+03  0.52407302909E+02  0.14101644991E+03  0.21347762447E+03  0.80172980570E+02 0.  0.
          5    1    3    3  501    0 -0.44287463718E+01 -0.34401580454E+02 -0.46617807008E+03  0.46749028392E+03  0.47000000000E+01 0. -1.
        -11    1    4    4    0    0  0.13463322914E+03  0.60092183320E+02 -0.10340071944E+04  0.10444654398E+04  0.00000000000E+00 0.  1.
         12    1    4    4    0    0  0.50702315280E+02 -0.13821879908E+02 -0.20638913032E+03  0.21297474557E+03  0.00000000000E+00 0. -1.
         -5    1    5    5    0  502 -0.52404561525E+02 -0.64276025867E+02  0.25045971828E+02  0.86758493962E+02  0.47000000000E+01 0.  1.
         13    1    6    6    0    0 -0.48556396599E+02  0.36280089065E+02  0.13480015666E+02  0.62094116755E+02  0.00000000000E+00 0. -1.
        -14    1    6    6    0    0 -0.79945839923E+02  0.16127213844E+02  0.12753643425E+03  0.15138350771E+03  0.00000000000E+00 0.  1.
</event>
<event>
12    1  0.8052519E-002  0.1823725E+03  0.7818608E-02  0.1166550E+00
         21   -1    0    0  501  502  0.00000000000E+00  0.00000000000E+00  0.11032669495E+04  0.11032669495E+04  0.00000000000E+00 0.  1.
         21   -1    0    0  502  503 -0.00000000000E+00 -0.00000000000E+00 -0.52536765952E+02  0.52536765952E+02  0.00000000000E+00 0.  1.
         -6    2    1    2    0  503 -0.47800695359E+02  0.15166955054E+02  0.14574476855E+03  0.23345506134E+03  0.17534190915E+03 0.  0.
        -24    2    3    3    0    0 -0.23308515738E+02  0.78799417340E+02  0.93099365205E+02  0.14718463992E+03  0.79013868072E+02 0.  0.
          6    2    1    2  501    0  0.47800695359E+02 -0.15166955054E+02  0.90498541496E+03  0.92234865407E+03  0.17091955820E+03 0.  0.
         24    2    5    5    0    0  0.54113539229E+02 -0.20564366988E+02  0.30065617983E+03  0.31794407228E+03  0.85692043461E+02 0.  0.
          5    1    5    5  501    0 -0.63128438697E+01  0.53974119335E+01  0.60432923513E+03  0.60440458179E+03  0.47000000000E+01 0. -1.
        -13    1    6    6    0    0  0.35237542394E+02  0.20161716522E+02  0.23455419552E+03  0.23804169770E+03  0.00000000000E+00 0.  1.
         14    1    6    6    0    0  0.18875996834E+02 -0.40726083510E+02  0.66101984308E+02  0.79902374583E+02  0.00000000000E+00 0. -1.
         -5    1    3    3    0  503 -0.24492179621E+02 -0.63632462286E+02  0.52645403346E+02  0.86270421424E+02  0.47000000000E+01 0.  1.
         11    1    4    4    0    0  0.15338566174E+02  0.38767108834E+02  0.79707462064E+02  0.89952431031E+02  0.00000000000E+00 0. -1.
        -12    1    4    4    0    0 -0.38647081911E+02  0.40032308506E+02  0.13391903141E+02  0.57232208889E+02  0.00000000000E+00 0.  1.
</event>
<event>
12    1  0.8052519E-002  0.2155271E+03  0.7818608E-02  0.1137543E+00
         21   -1    0    0  503  502  0.00000000000E+00  0.00000000000E+00  0.21997275941E+03  0.21997275941E+03  0.00000000000E+00 0.  1.
         21   -1    0    0  501  503 -0.00000000000E+00 -0.00000000000E+00 -0.20981550908E+03  0.20981550908E+03  0.00000000000E+00 0.  1.
          6    2    1    2  501    0  0.95358880329E+02  0.87091202539E+02  0.90195618669E+01  0.21425816177E+03  0.17072496529E+03 0.  0.
         24    2    3    3    0    0 -0.66249113763E+01  0.72434008774E+02  0.16150698841E+02  0.11087310379E+03  0.82106181208E+02 0.  0.
         -6    2    1    2    0  502 -0.95358880329E+02 -0.87091202539E+02  0.11376884566E+01  0.21553010672E+03  0.17255068516E+03 0.  0.
        -24    2    5    5    0    0 -0.18979032565E+01 -0.64355569634E+02 -0.37572872933E+02  0.11173964087E+03  0.83239324724E+02 0.  0.
          5    1    3    3  501    0  0.10198379171E+03  0.14657193765E+02 -0.71311369743E+01  0.10338505798E+03  0.47000000000E+01 0. -1.
        -13    1    4    4    0    0  0.35945304871E+02  0.18107071466E+02  0.10658879019E+02  0.41635834101E+02  0.00000000000E+00 0.  1.
         14    1    4    4    0    0 -0.42570216248E+02  0.54326937308E+02  0.54918198219E+01  0.69237269686E+02  0.00000000000E+00 0. -1.
         -5    1    5    5    0  502 -0.93460977073E+02 -0.22735632905E+02  0.38710561390E+02  0.10379046585E+03  0.47000000000E+01 0.  1.
         13    1    6    6    0    0  0.28469051288E+02  0.42863526277E+01 -0.18747113949E+02  0.34355697948E+02  0.00000000000E+00 0. -1.
        -14    1    6    6    0    0 -0.30366954544E+02 -0.68641922262E+02 -0.18825758984E+02  0.77383942917E+02  0.00000000000E+00 0.  1.
</event>
<event>
12    1  0.8052519E-002  0.1775028E+03  0.7818608E-02  0.1170760E+00
         21   -1    0    0  501  502  0.00000000000E+00  0.00000000000E+00  0.40111958236E+03  0.40111958236E+03  0.00000000000E+00 0.  1.
         21   -1    0    0  502  503 -0.00000000000E+00 -0.00000000000E+00 -0.23037801597E+03  0.23037801597E+03  0.00000000000E+00 0.  1.
         -6    2    1    2    0  503 -0.39748651529E+02 -0.21178422783E+01 -0.17156469465E+03  0.24686372371E+03  0.17298211780E+03 0.  0.
        -24    2    3    3    0    0 -0.33898585190E+02  0.69925790972E+01 -0.19822735280E+03  0.21770535625E+03  0.83087474996E+02 0.  0.
          6    2    1    2  501    0  0.39748651529E+02  0.21178422783E+01  0.34230626104E+03  0.38463387462E+03  0.17083676597E+03 0.  0.
         24    2    5    5    0    0  0.39385642107E+02  0.81375515591E+01  0.35726816749E+03  0.36783157359E+03  0.77730782051E+02 0.  0.
          5    1    5    5  501    0  0.36300942232E+00 -0.60197092808E+01 -0.14961906446E+02  0.16802301038E+02  0.47000000000E+01 0. -1.
        -13    1    6    6    0    0 -0.37772462893E+01 -0.23706503133E+02  0.20482889935E+03  0.20623080248E+03  0.00000000000E+00 0.  1.
         14    1    6    6    0    0  0.43162888396E+02  0.31844054692E+02  0.15243926814E+03  0.16160077111E+03  0.00000000000E+00 0. -1.
         -5    1    3    3    0  503 -0.58500663387E+01 -0.91104213755E+01  0.26662658143E+02  0.29158367462E+02  0.47000000000E+01 0.  1.
         13    1    4    4    0    0 -0.17989683082E+02 -0.84699772622E+01 -0.17293764938E+01  0.19958956768E+02  0.00000000000E+00 0. -1.
        -14    1    4    4    0    0 -0.15908902109E+02  0.15462556359E+02 -0.19649797630E+03  0.19774639948E+03  0.00000000000E+00 0.  1.
</event>
<event>
12    1  0.8052519E-002  0.1737046E+03  0.7818608E-02  0.1174115E+00
         21   -1    0    0  501  502  0.00000000000E+00  0.00000000000E+00  0.86683600040E+03  0.86683600040E+03  0.00000000000E+00 0.  1.
         21   -1    0    0  502  503 -0.00000000000E+00 -0.00000000000E+00 -0.91680629572E+02  0.91680629572E+02  0.00000000000E+00 0.  1.
         -6    2    1    2    0  503  0.83555561236E+01  0.19001003043E+02  0.10037040829E+02  0.17399438957E+03  0.17246000110E+03 0.  0.
        -24    2    3    3    0    0  0.34189258341E+02  0.36733260232E+02 -0.49718652023E+02  0.10635826059E+03  0.79510360604E+02 0.  0.
          6    2    1    2  501    0 -0.83555561236E+01 -0.19001003043E+02  0.76511833000E+03  0.78452224040E+03  0.17215758290E+03 0.  0.
         24    2    5    5    0    0 -0.52523003152E+02 -0.11724996310E+01  0.68308972365E+03  0.68955171250E+03  0.78166188574E+02 0.  0.
          5    1    5    5  501    0  0.44167447028E+02 -0.17828503412E+02  0.82028606349E+02  0.94970527905E+02  0.47000000000E+01 0. -1.
        -13    1    6    6    0    0  0.10666738311E+02  0.21933124408E+02  0.11975493119E+03  0.12221327587E+03  0.00000000000E+00 0.  1.
         14    1    6    6    0    0 -0.63189741463E+02 -0.23105624039E+02  0.56333479246E+03  0.56733843663E+03  0.00000000000E+00 0. -1.
         -5    1    3    3    0  503 -0.25833702217E+02 -0.17732257188E+02  0.59755692851E+02  0.67636128980E+02  0.47000000000E+01 0.  1.
         13    1    4    4    0    0  0.34383161642E+02  0.29213772066E+01  0.11541662701E+02  0.36386071884E+02  0.00000000000E+00 0. -1.
        -14    1    4    4    0    0 -0.19390330076E+00  0.33811883025E+02 -0.61260314723E+02  0.69972188705E+02  0.00000000000E+00 0.  1.
</event>
<event>
12    1  0.8052519E-002  0.1757112E+03  0.7818608E-02  0.1172188E+00
         21   -1    0    0  503  502  0.00000000000E+00  0.00000000000E+00  0.21412850636E+03  0.21412850636E+03  0.00000000000E+00 0. -1.
         21   -1    0    0  501  503 -0.00000000000E+00 -0.00000000000E+00 -0.16596968489E+03  0.16596968489E+03  0.00000000000E+00 0. -1.
          6    2    1    2  501    0 -0.26391126596E+02 -0.23369096632E+02 -0.45600072432E+02  0.18153176444E+03  0.17213892255E+03 0.  0.
         24    2    3    3    0    0  0.62475666809E+01  0.36516795125E+01 -0.88445976381E+02  0.12108949341E+03  0.82386939646E+02 0.  0.
         -6    2    1    2    0  502  0.26391126596E+02  0.23369096632E+02  0.93758893895E+02  0.19856642681E+03  0.17145054514E+03 0.  0.
        -24    2    5    5    0    0 -0.34965992730E+02 -0.12949486211E+02  0.91498363208E+02  0.12707561935E+03  0.79912156291E+02 0.  0.
          5    1    3    3  501    0 -0.32638693277E+02 -0.27020776144E+02  0.42845903949E+02  0.60442271032E+02  0.47000000000E+01 0. -1.
        -11    1    4    4    0    0  0.23337628090E+02 -0.32211153052E+02 -0.27568889733E+02  0.48396765873E+02  0.00000000000E+00 0.  1.
         12    1    4    4    0    0 -0.17090061409E+02  0.35862832565E+02 -0.60877086648E+02  0.72692727540E+02  0.00000000000E+00 0. -1.
         -5    1    5    5    0  502  0.61357119326E+02  0.36318582843E+02  0.22605306870E+01  0.71490807456E+02  0.47000000000E+01 0.  1.
         11    1    6    6    0    0  0.95387069558E+01 -0.36086334335E+02  0.31251178133E+02  0.48681070149E+02  0.00000000000E+00 0. -1.
        -12    1    6    6    0    0 -0.44504699686E+02  0.23136848124E+02  0.60247185074E+02  0.78394549202E+02  0.00000000000E+00 0.  1.
</event>
<event>
12    1  0.8052519E-002  0.1881750E+03  0.7818608E-02  0.1160753E+00
         21   -1    0    0  503  502  0.00000000000E+00  0.00000000000E+00  0.36548709690E+03  0.36548709690E+03  0.00000000000E+00 0.  1.
         21   -1    0    0  501  503 -0.00000000000E+00 -0.00000000000E+00 -0.13336647354E+03  0.13336647354E+03  0.00000000000E+00 0.  1.
          6    2    1    2  501    0 -0.19119950718E+02  0.63903915778E+02 -0.17513836996E+02  0.18624008518E+03  0.17300101698E+03 0.  0.
         24    2    3    3    0    0 -0.69175984759E+02  0.80006346544E+02 -0.17485960973E+02  0.13344817673E+03  0.79475308666E+02 0.  0.
         -6    2    1    2    0  502  0.19119950718E+02 -0.63903915778E+02  0.24963446035E+03  0.31261348526E+03  0.17595608657E+03 0.  0.
        -24    2    5    5    0    0 -0.34909933299E+02 -0.44385015473E+02  0.62524321320E+02  0.11682658588E+03  0.80934710548E+02 0.  0.
          5    1    3    3  501    0  0.50056034041E+02 -0.16102430766E+02 -0.27876022738E-01  0.52791908448E+02  0.47000000000E+01 0. -1.
        -11    1    4    4    0    0  0.60423996111E+01  0.51346277685E+02 -0.42659801278E+01  0.51876289494E+02  0.00000000000E+00 0.  1.
         12    1    4    4    0    0 -0.75218384370E+02  0.28660068858E+02 -0.13219980846E+02  0.81571887239E+02  0.00000000000E+00 0. -1.
         -5    1    5    5    0  502  0.54029884017E+02 -0.19518900305E+02  0.18711013903E+03  0.19578689937E+03  0.47000000000E+01 0.  1.
         11    1    6    6    0    0 -0.72753116275E+01 -0.22650746097E+02 -0.17424475028E+02  0.29488960444E+02  0.00000000000E+00 0. -1.
        -12    1    6    6    0    0 -0.27634621672E+02 -0.21734269376E+02  0.79948796348E+02  0.87337625441E+02  0.00000000000E+00 0.  1.
</event>
<event>
12    1  0.8052519E-002  0.2591456E+03  0.7818608E-02  0.1107746E+00
         21   -1    0    0  503  502  0.00000000000E+00  0.00000000000E+00  0.47726729878E+03  0.47726729878E+03  0.00000000000E+00 0.  1.
         21   -1    0    0  501  503 -0.00000000000E+00 -0.00000000000E+00 -0.33948332484E+03  0.33948332484E+03  0.00000000000E+00 0. -1.
          6    2    1    2  501    0 -0.16747884680E+03  0.97505864128E+02 -0.24387311738E+03  0.35542797308E+03  0.17116772185E+03 0.  0.
         24    2    3    3    0    0 -0.19658271201E+02  0.71675297366E+02 -0.10555678080E+03  0.15129164679E+03  0.78886833721E+02 0.  0.
         -6    2    1    2    0  502  0.16747884680E+03 -0.97505864128E+02  0.38165709132E+03  0.46132265054E+03  0.17204619986E+03 0.  0.
        -24    2    5    5    0    0  0.10470656321E+03 -0.81382980181E+01  0.12488179190E+03  0.18224816971E+03  0.81174116207E+02 0.  0.
          5    1    3    3  501    0 -0.14782057560E+03  0.25830566762E+02 -0.13831633657E+03  0.20413632630E+03  0.47000000000E+01 0. -1.
        -11    1    4    4    0    0 -0.26946663695E+02  0.27467094203E+01 -0.26456752573E+01  0.27215192347E+02  0.00000000000E+00 0.  1.
         12    1    4    4    0    0  0.72883924941E+01  0.68928587946E+02 -0.10291110555E+03  0.12407645444E+03  0.00000000000E+00 0. -1.
         -5    1    5    5    0  502  0.62772283596E+02 -0.89367566110E+02  0.25677529941E+03  0.27907448083E+03  0.47000000000E+01 0.  1.
         13    1    6    6    0    0  0.78552081936E+02 -0.20226805349E+02  0.35874563602E+02  0.88693503396E+02  0.00000000000E+00 0. -1.
        -14    1    6    6    0    0  0.26154481273E+02  0.12088507331E+02  0.89007228301E+02  0.93554666319E+02  0.00000000000E+00 0.  1.
</event>
<event>
12    1  0.8052519E-002  0.2362317E+03  0.7818608E-02  0.1122363E+00
         21   -1    0    0  503  502  0.00000000000E+00  0.00000000000E+00  0.60857874638E+02  0.60857874638E+02  0.00000000000E+00 0.  1.
         21   -1    0    0  501  503 -0.00000000000E+00 -0.00000000000E+00 -0.10128659210E+04  0.10128659210E+04  0.00000000000E+00 0. -1.
          6    2    1    2  501    0 -0.68535603916E+02  0.14709874085E+03 -0.64203348982E+03  0.68411434618E+03  0.17166906546E+03 0.  0.
         24    2    3    3    0    0 -0.23441616232E+02  0.13721124230E+03 -0.60033864288E+03  0.62173020866E+03  0.82252853081E+02 0.  0.
         -6    2    1    2    0  502  0.68535603916E+02 -0.14709874085E+03 -0.30997455650E+03  0.38960944942E+03  0.17139465812E+03 0.  0.
        -24    2    5    5    0    0  0.23673662057E+02 -0.19879025368E+02 -0.19400878857E+03  0.21165552514E+03  0.78759338204E+02 0.  0.
          5    1    3    3  501    0 -0.45093987684E+02  0.98874985552E+01 -0.41694846938E+02  0.62384137520E+02  0.47000000000E+01 0. -1.
        -13    1    4    4    0    0 -0.28352232041E+02  0.23129213932E+02 -0.67354688953E+02  0.76651573518E+02  0.00000000000E+00 0.  1.
         14    1    4    4    0    0  0.49106158091E+01  0.11408202836E+03 -0.53298395393E+03  0.54507863514E+03  0.00000000000E+00 0. -1.
         -5    1    5    5    0  502  0.44861941859E+02 -0.12721971548E+03 -0.11596576793E+03  0.17795392428E+03  0.47000000000E+01 0.  1.
         13    1    6    6    0    0  0.36137639798E+02 -0.34613040312E+02 -0.69388175713E+02  0.85549462293E+02  0.00000000000E+00 0. -1.
        -14    1    6    6    0    0 -0.12463977741E+02  0.14734014944E+02 -0.12462061286E+03  0.12610606285E+03  0.00000000000E+00 0.  1.
</event>
<event>
12    1  0.8052519E-002  0.2357888E+03  0.7818608E-02  0.1122833E+00
         21   -1    0    0  503  502  0.00000000000E+00  0.00000000000E+00  0.70066565589E+03  0.70066565589E+03  0.00000000000E+00 0.  1.
         21   -1    0    0  501  503 -0.00000000000E+00 -0.00000000000E+00 -0.11242712016E+03  0.11242712016E+03  0.00000000000E+00 0.  1.
          6    2    1    2  501    0  0.68189822062E+02  0.14496142832E+03  0.72792140013E+02  0.24676922271E+03  0.17301065312E+03 0.  0.
         24    2    3    3    0    0  0.38977598517E+02  0.17042891925E+03  0.43386271058E+02  0.19789446207E+03  0.81942540219E+02 0.  0.
         -6    2    1    2    0  502 -0.68189822062E+02 -0.14496142832E+03  0.51544639572E+03  0.56632355333E+03  0.17138760944E+03 0.  0.
        -24    2    5    5    0    0 -0.10217231408E+02 -0.14507446216E+03  0.32521374699E+03  0.36739797759E+03  0.89812589968E+02 0.  0.
          5    1    3    3  501    0  0.29212223545E+02 -0.25467490929E+02  0.29405868956E+02  0.48874760641E+02  0.47000000000E+01 0. -1.
        -11    1    4    4    0    0  0.40571212878E+02  0.25382794206E+02  0.72180533109E+01  0.48398448836E+02  0.00000000000E+00 0.  1.
         12    1    4    4    0    0 -0.15936143608E+01  0.14504612504E+03  0.36168217747E+02  0.14949601323E+03  0.00000000000E+00 0. -1.
         -5    1    5    5    0  502 -0.57972590654E+02  0.11303383899E+00  0.19023264873E+03  0.19892557575E+03  0.47000000000E+01 0.  1.
         11    1    6    6    0    0 -0.13470078208E+02 -0.62977811954E+02  0.54105124296E+02  0.84113092206E+02  0.00000000000E+00 0. -1.
        -12    1    6    6    0    0  0.32528468000E+01 -0.82096650205E+02  0.27110862269E+03  0.28328488538E+03  0.00000000000E+00 0.  1.
</event>
<event>
12    1  0.8052519E-002  0.2073344E+03  0.7818608E-02  0.1143819E+00
         21   -1    0    0  501  502  0.00000000000E+00  0.00000000000E+00  0.13504609054E+03  0.13504609054E+03  0.00000000000E+00 0. -1.
         21   -1    0    0  502  503 -0.00000000000E+00 -0.00000000000E+00 -0.39822976470E+03  0.39822976470E+03  0.00000000000E+00 0. -1.
         -6    2    1    2    0  503  0.36309947938E+02 -0.10768121118E+03 -0.25158443640E+03  0.32561727691E+03  0.17267954953E+03 0.  0.
        -24    2    3    3    0    0 -0.45958831153E+02 -0.73792634720E+02 -0.15154354728E+03  0.19165139647E+03  0.78786064414E+02 0.  0.
          6    2    1    2  501    0 -0.36309947938E+02  0.10768121118E+03 -0.11599237750E+02  0.20765857833E+03  0.17341824378E+03 0.  0.
         24    2    5    5    0    0 -0.71100934768E+02  0.52167807722E+02  0.38136228688E+02  0.12527012435E+03  0.80382890142E+02 0.  0.
          5    1    5    5  501    0  0.34790986830E+02  0.55513403455E+02 -0.49735466438E+02  0.82388453982E+02  0.47000000000E+01 0. -1.
        -13    1    6    6    0    0 -0.88513285283E+02  0.43425764645E+02  0.24812478123E+02  0.10166640437E+03  0.00000000000E+00 0.  1.
         14    1    6    6    0    0  0.17412350515E+02  0.87420430766E+01  0.13323750565E+02  0.23603719977E+02  0.00000000000E+00 0. -1.
         -5    1    3    3    0  503  0.82268779091E+02 -0.33888576456E+02 -0.10004088912E+03  0.13396588045E+03  0.47000000000E+01 0.  1.
         11    1    4    4    0    0 -0.12468824364E+02  0.12914916912E+02 -0.54030668826E+02  0.56934873616E+02  0.00000000000E+00 0. -1.
        -12    1    4    4    0    0 -0.33490006789E+02 -0.86707551633E+02 -0.97512878452E+02  0.13471652285E+03  0.00000000000E+00 0.  1.
</event>
<event>
12    1  0.8052519E-002  0.2424435E+03  0.7818608E-02  0.1118229E+00
         21   -1    0    0  503  502  0.00000000000E+00  0.00000000000E+00  0.86328205356E+03  0.86328205356E+03  0.00000000000E+00 0. -1.
         21   -1    0    0  501  503 -0.00000000000E+00 -0.00000000000E+00 -0.79062846071E+02  0.79062846071E+02  0.00000000000E+00 0. -1.
          6    2    1    2  501    0  0.54307087715E+02  0.16154879510E+03  0.21560627527E+03  0.32420290703E+03  0.17197146860E+03 0.  0.
         24    2    3    3    0    0  0.21559926587E+02  0.15755346250E+03  0.99648449738E+02  0.20355197853E+03  0.78839523390E+02 0.  0.
         -6    2    1    2    0  502 -0.54307087715E+02 -0.16154879510E+03  0.56861293221E+03  0.61814199260E+03  0.17242848768E+03 0.  0.
        -24    2    5    5    0    0 -0.72399897534E+02 -0.35368380313E+02  0.30542911814E+03  0.32567548711E+03  0.79277419284E+02 0.  0.
          5    1    3    3  501    0  0.32747161128E+02  0.39953326046E+01  0.11595782554E+03  0.12065092850E+03  0.47000000000E+01 0. -1.
        -13    1    4    4    0    0 -0.29381574605E+02  0.64467863629E+02  0.47671132291E+02  0.85392735178E+02  0.00000000000E+00 0.  1.
         14    1    4    4    0    0  0.50941501192E+02  0.93085598869E+02  0.51977317447E+02  0.11815924335E+03  0.00000000000E+00 0. -1.
         -5    1    5    5    0  502  0.18092809819E+02 -0.12618041479E+03  0.26318381407E+03  0.29246650549E+03  0.47000000000E+01 0.  1.
         11    1    6    6    0    0  0.41021337953E+01 -0.34201224997E+02  0.12579701434E+03  0.13042791154E+03  0.00000000000E+00 0. -1.
        -12    1    6    6    0    0 -0.76502031329E+02 -0.11671553160E+01  0.17963210380E+03  0.19524757557E+03  0.00000000000E+00 0.  1.
</event>
<event>
12    1  0.8052519E-002  0.1960926E+03  0.7818608E-02  0.1153789E+00
         21   -1    0    0  501  502  0.00000000000E+00  0.00000000000E+00  0.15724852352E+03  0.15724852352E+03  0.00000000000E+00 0.  1.
         21   -1    0    0  502  503 -0.00000000000E+00 -0.00000000000E+00 -0.25882558035E+03  0.25882558035E+03  0.00000000000E+00 0.  1.
         -6    2    1    2    0  503  0.62097616802E+02  0.70962594992E+02 -0.10655240141E+03  0.22317193536E+03  0.17193165673E+03 0.  0.
        -24    2    3    3    0    0  0.67929429659E+02  0.63767810431E+01 -0.11746807075E+03  0.15724334337E+03  0.79193753790E+02 0.  0.
          6    2    1    2  501    0 -0.62097616802E+02 -0.70962594992E+02  0.49753445842E+01  0.19290216850E+03  0.16821025135E+03 0.  0.
         24    2    5    5    0    0 -0.75271143272E+02  0.84932301672E+01 -0.10347729902E+02  0.11078239888E+03  0.80173464555E+02 0.  0.
          5    1    5    5  501    0  0.13173526470E+02 -0.79455825159E+02  0.15323074486E+02  0.82119769623E+02  0.47000000000E+01 0. -1.
        -11    1    6    6    0    0 -0.57214552904E+02 -0.28899860654E+02 -0.21804675846E+02  0.67706357889E+02  0.00000000000E+00 0.  1.
         12    1    6    6    0    0 -0.18056590368E+02  0.37393090821E+02  0.11456945944E+02  0.43076040989E+02  0.00000000000E+00 0. -1.
         -5    1    3    3    0  503 -0.58318128566E+01  0.64585813948E+02  0.10915669334E+02  0.65928591988E+02  0.47000000000E+01 0.  1.
         13    1    4    4    0    0  0.69423283947E+01 -0.25136690434E+01  0.11865776664E+02  0.13975375181E+02  0.00000000000E+00 0. -1.
        -14    1    4    4    0    0  0.60987101264E+02  0.88904500865E+01 -0.12933384741E+03  0.14326796819E+03  0.00000000000E+00 0.  1.
</event>
<event>
12    1  0.8052519E-002  0.1774853E+03  0.7818608E-02  0.1170573E+00
         21   -1    0    0  503  502  0.00000000000E+00  0.00000000000E+00  0.42625009398E+02  0.42625009398E+02  0.00000000000E+00 0.  1.
         21   -1    0    0  501  503 -0.00000000000E+00 -0.00000000000E+00 -0.74198819002E+03  0.74198819002E+03  0.00000000000E+00 0.  1.
          6    2    1    2  501    0  0.40316574600E+02  0.15972161715E+02 -0.38975428001E+03  0.42773969118E+03  0.17079902954E+03 0.  0.
         24    2    3    3    0    0  0.34377374021E+02  0.15174964938E+02 -0.86821176262E+02  0.12471087247E+03  0.81257625236E+02 0.  0.
         -6    2    1    2    0  502 -0.40316574600E+02 -0.15972161715E+02 -0.30960890061E+03  0.35687350823E+03  0.17210605278E+03 0.  0.
        -24    2    5    5    0    0  0.21237799749E+02 -0.35860983086E+01 -0.27008236090E+03  0.28253110506E+03  0.80096438227E+02 0.  0.
          5    1    3    3  501    0  0.59392005784E+01  0.79719677720E+00 -0.30293310375E+03  0.30302881871E+03  0.47000000000E+01 0. -1.
        -11    1    4    4    0    0  0.50359788609E+02  0.29154260847E+02 -0.85517418800E+02  0.10343746010E+03  0.00000000000E+00 0.  1.
         12    1    4    4    0    0 -0.15982414588E+02 -0.13979295909E+02 -0.13037574616E+01  0.21273412366E+02  0.00000000000E+00 0. -1.
         -5    1    5    5    0  502 -0.61554374349E+02 -0.12386063406E+02 -0.39526539714E+02  0.74342403176E+02  0.47000000000E+01 0.  1.
         13    1    6    6    0    0  0.39574016134E+02 -0.22458631347E+02 -0.23084913091E+03  0.23529091380E+03  0.00000000000E+00 0. -1.
        -14    1    6    6    0    0 -0.18336216385E+02  0.18872533038E+02 -0.39233229987E+02  0.47240191255E+02  0.00000000000E+00 0.  1.
</event>
<event>
12    1  0.8052519E-002  0.1811556E+03  0.7818608E-02  0.1167952E+00
         21   -1    0    0  503  502  0.00000000000E+00  0.00000000000E+00  0.43349510443E+03  0.43349510443E+03  0.00000000000E+00 0.  1.
         21   -1    0    0  501  503 -0.00000000000E+00 -0.00000000000E+00 -0.19801911195E+03  0.19801911195E+03  0.00000000000E+00 0.  1.
          6    2    1    2  501    0 -0.22714573163E+02 -0.38789565551E+02 -0.13195313465E+03  0.22411821499E+03  0.17549006331E+03 0.  0.
         24    2    3    3    0    0 -0.49185593586E+02 -0.39244381573E+02 -0.13841469440E+02  0.10298449864E+03  0.80342246562E+02 0.  0.
         -6    2    1    2    0  502  0.22714573163E+02  0.38789565551E+02  0.36742912713E+03  0.40739600138E+03  0.17013746282E+03 0.  0.
        -24    2    5    5    0    0 -0.33880338487E+01  0.12544808578E+02  0.36026408185E+03  0.36940177504E+03  0.80613967397E+02 0.  0.
          5    1    3    3  501    0  0.26471020423E+02  0.45481602172E+00 -0.11811166520E+03  0.12113371635E+03  0.47000000000E+01 0. -1.
        -13    1    4    4    0    0 -0.19194190651E+01 -0.42000438224E+02 -0.31412210572E+02  0.52482834847E+02  0.00000000000E+00 0.  1.
         14    1    4    4    0    0 -0.47266174521E+02  0.27560566508E+01  0.17570741131E+02  0.50501663794E+02  0.00000000000E+00 0. -1.
         -5    1    5    5    0  502  0.26102607012E+02  0.26244756974E+02  0.71650452766E+01  0.37994226341E+02  0.47000000000E+01 0.  1.
         13    1    6    6    0    0  0.16272791639E+02 -0.83515689130E+01  0.17096403842E+02  0.25036762478E+02  0.00000000000E+00 0. -1.
        -14    1    6    6    0    0 -0.19660825487E+02  0.20896377491E+02  0.34316767801E+03  0.34436501257E+03  0.00000000000E+00 0.  1.
</event>
<event>
12    1  0.8052519E-002  0.2115956E+03  0.7818608E-02  0.1141118E+00
         21   -1    0    0  503  502  0.00000000000E+00  0.00000000000E+00  0.89919373213E+02  0.89919373213E+02  0.00000000000E+00 0.  1.
         21   -1    0    0  501  503 -0.00000000000E+00 -0.00000000000E+00 -0.11831331359E+04  0.11831331359E+04  0.00000000000E+00 0. -1.
          6    2    1    2  501    0  0.49009536308E+01  0.11440251503E+03 -0.10321767642E+04  0.10528294149E+04  0.17305764805E+03 0.  0.
         24    2    3    3    0    0 -0.46985768069E+02  0.31028945824E+02 -0.68960169366E+03  0.69642633848E+03  0.79301268279E+02 0.  0.
         -6    2    1    2    0  502 -0.49009536308E+01 -0.11440251503E+03 -0.61036998432E+02  0.22022309415E+03  0.17793465438E+03 0.  0.
        -24    2    5    5    0    0  0.33286500463E+01 -0.14308918052E+03 -0.13767692384E+02  0.16412382100E+03  0.79129550583E+02 0.  0.
          5    1    3    3  501    0  0.51886721699E+02  0.83373569206E+02 -0.34257507055E+03  0.35640307643E+03  0.47000000000E+01 0. -1.
        -11    1    4    4    0    0 -0.15556125169E+02 -0.59115742323E+01 -0.24849814095E+02  0.29907407121E+02  0.00000000000E+00 0.  1.
         12    1    4    4    0    0 -0.31429642900E+02  0.36940520057E+02 -0.66475187957E+03  0.66651893136E+03  0.00000000000E+00 0. -1.
         -5    1    5    5    0  502 -0.82296036772E+01  0.28686665486E+02 -0.47269306048E+02  0.56099273147E+02  0.47000000000E+01 0.  1.
         11    1    6    6    0    0 -0.16911764689E+02 -0.14163839264E+03 -0.73215743120E+01  0.14283223552E+03  0.00000000000E+00 0. -1.
        -12    1    6    6    0    0  0.20240414735E+02 -0.14507878783E+01 -0.64461180718E+01  0.21291585482E+02  0.00000000000E+00 0.  1.
</event>
<event>
12    1  0.8052519E-002  0.1773261E+03  0.7818608E-02  0.1170508E+00
         21   -1    0    0  501  502  0.00000000000E+00  0.00000000000E+00  0.62166539015E+02  0.62166539015E+02  0.00000000000E+00 0. -1.
         21   -1    0    0  502  503 -0.00000000000E+00 -0.00000000000E+00 -0.60880459917E+03  0.60880459917E+03  0.00000000000E+00 0. -1.
         -6    2    1    2    0  503 -0.16964588545E+02  0.39868313563E+02 -0.41225171352E+03  0.44877167706E+03  0.17195133946E+03 0.  0.
        -24    2    3    3    0    0  0.27823703006E+02  0.52861455128E+02 -0.13963920854E+03  0.17215916712E+03  0.81062805118E+02 0.  0.
          6    2    1    2  501    0  0.16964588545E+02 -0.39868313563E+02 -0.13438634664E+03  0.22219946113E+03  0.17156815168E+03 0.  0.
         24    2    5    5    0    0 -0.31401442933E+02 -0.63816812105E+02 -0.40907720047E+02  0.11415712122E+03  0.79371094485E+02 0.  0.
          5    1    5    5  501    0  0.48366031478E+02  0.23948498542E+02 -0.93478626595E+02  0.10804233991E+03  0.47000000000E+01 0. -1.
        -11    1    6    6    0    0 -0.33537354721E+02  0.81997386633E+01 -0.13611350336E+02  0.37111436698E+02  0.00000000000E+00 0.  1.
         12    1    6    6    0    0  0.21359117878E+01 -0.72016550768E+02 -0.27296369711E+02  0.77045684520E+02  0.00000000000E+00 0. -1.
         -5    1    3    3    0  503 -0.44788291551E+02 -0.12993141565E+02 -0.27261250497E+03  0.27661250994E+03  0.47000000000E+01 0.  1.
         11    1    4    4    0    0 -0.18071563381E+02  0.76941100349E+01 -0.14394647404E+01  0.19693978547E+02  0.00000000000E+00 0. -1.
        -12    1    4    4    0    0  0.45895266387E+02  0.45167345093E+02 -0.13819974380E+03  0.15246518857E+03  0.00000000000E+00 0.  1.
</event>
<event>
12    1  0.8052519E-002  0.1976823E+03  0.7818608E-02  0.1152182E+00
         21   -1    0    0  503  502  0.00000000000E+00  0.00000000000E+00  0.54792598583E+02  0.54792598583E+02  0.00000000000E+00 0. -1.
         21   -1    0    0  501  503 -0.00000000000E+00 -0.00000000000E+00 -0.89198313277E+03  0.89198313277E+03  0.00000000000E+00 0. -1.
          6    2    1    2  501    0  0.81101481477E+02  0.53674737639E+02 -0.63330380298E+03  0.66278964904E+03  0.16958179221E+03 0.  0.
         24    2    3    3    0    0  0.92521946056E+00  0.18781229731E+01 -0.14481583620E+03  0.16504101170E+03  0.79136121670E+02 0.  0.
         -6    2    1    2    0  502 -0.81101481477E+02 -0.53674737639E+02 -0.20388673121E+03  0.28398608231E+03  0.17210423593E+03 0.  0.
        -24    2    5    5    0    0 -0.95513818944E+02 -0.49981209005E+02 -0.77861500384E+02  0.15699865605E+03  0.83457497543E+02 0.  0.
          5    1    3    3  501    0  0.80176262017E+02  0.51796614666E+02 -0.48848796678E+03  0.49774863733E+03  0.47000000000E+01 0. -1.
        -13    1    4    4    0    0  0.28695528542E+02 -0.11619767683E+02 -0.20941434824E+02  0.37376410366E+02  0.00000000000E+00 0.  1.
         14    1    4    4    0    0 -0.27770309082E+02  0.13497890656E+02 -0.12387440138E+03  0.12766460134E+03  0.00000000000E+00 0. -1.
         -5    1    5    5    0  502  0.14412337467E+02 -0.36935286338E+01 -0.12602523082E+03  0.12698742626E+03  0.47000000000E+01 0.  1.
         11    1    6    6    0    0 -0.10561891010E+02 -0.46126896265E+02 -0.46547834845E+02  0.66377293026E+02  0.00000000000E+00 0. -1.
        -12    1    6    6    0    0 -0.84951927934E+02 -0.38543127395E+01 -0.31313665539E+02  0.90621363022E+02  0.00000000000E+00 0.  1.
</event>
<event>
12    1  0.8052519E-002  0.1802830E+03  0.7818608E-02  0.1167906E+00
         21   -1    0    0  501  502  0.00000000000E+00  0.00000000000E+00  0.43489022997E+03  0.43489022997E+03  0.00000000000E+00 0. -1.
         21   -1    0    0  502  503 -0.00000000000E+00 -0.00000000000E+00 -0.10413590707E+03  0.10413590707E+03  0.00000000000E+00 0. -1.
         -6    2    1    2    0  503  0.51619831415E+02 -0.44682116393E+01  0.20110326077E+02  0.17985812635E+03  0.17105539596E+03 0.  0.
        -24    2    3    3    0    0  0.30610483015E+02 -0.25717294709E+02 -0.51049121732E+02  0.10253624546E+03  0.79431025965E+02 0.  0.
          6    2    1    2  501    0 -0.51619831415E+02  0.44682116393E+01  0.31064399682E+03  0.35916801069E+03  0.17267714161E+03 0.  0.
         24    2    5    5    0    0 -0.34975895539E+02  0.70693007651E+02  0.19247142849E+03  0.22260450856E+03  0.79288724599E+02 0.  0.
          5    1    5    5  501    0 -0.16643935876E+02 -0.66224796012E+02  0.11817256833E+03  0.13656350213E+03  0.47000000000E+01 0. -1.
        -11    1    6    6    0    0 -0.30891798638E+02  0.19841473064E+02  0.18120222136E+02  0.40943005834E+02  0.00000000000E+00 0.  1.
         12    1    6    6    0    0 -0.40840969012E+01  0.50851534587E+02  0.17435120635E+03  0.18166150273E+03  0.00000000000E+00 0. -1.
         -5    1    3    3    0  503  0.21009348400E+02  0.21249083070E+02  0.71159447809E+02  0.77321880888E+02  0.47000000000E+01 0.  1.
         13    1    4    4    0    0  0.51926052889E+02 -0.13380518071E+02 -0.98240262507E+01  0.54514811971E+02  0.00000000000E+00 0. -1.
        -14    1    4    4    0    0 -0.21315569874E+02 -0.12336776638E+02 -0.41225095481E+02  0.48021433489E+02  0.00000000000E+00 0.  1.
</event>
<event>
12    1  0.8052519E-002  0.1902748E+03  0.7818608E-02  0.1158407E+00
         21   -1    0    0  503  502  0.00000000000E+00  0.00000000000E+00  0.51880058592E+03  0.51880058592E+03  0.00000000000E+00 0. -1.
         21   -1    0    0  501  503 -0.00000000000E+00 -0.00000000000E+00 -0.18474280323E+03  0.18474280323E+03  0.00000000000E+00 0. -1.
          6    2    1    2  501    0 -0.22995220725E+02 -0.74464165838E+02 -0.11069657500E+03  0.22013226192E+03  0.17358222505E+03 0.  0.
         24    2    3    3    0    0 -0.35157160327E+02 -0.36668599392E+01 -0.12243681491E+03  0.14719328379E+03  0.73658790139E+02 0.  0.
         -6    2    1    2    0  502  0.22995220725E+02  0.74464165838E+02  0.44475435769E+03  0.48341112722E+03  0.17264468445E+03 0.  0.
        -24    2    5    5    0    0 -0.23601368373E+02 -0.10314989239E+02  0.28507337698E+03  0.29665231792E+03  0.77925245424E+02 0.  0.
          5    1    3    3  501    0  0.12161939602E+02 -0.70797305899E+02  0.11740239913E+02  0.72938978130E+02  0.47000000000E+01 0. -1.
        -11    1    4    4    0    0 -0.32980044181E+02 -0.20938972071E+02 -0.21154334293E+02  0.44425552613E+02  0.00000000000E+00 0.  1.
         12    1    4    4    0    0 -0.21771161457E+01  0.17272112132E+02 -0.10128248062E+03  0.10276773118E+03  0.00000000000E+00 0. -1.
         -5    1    5    5    0  502  0.46596589098E+02  0.84779155077E+02  0.15968098071E+03  0.18675880930E+03  0.47000000000E+01 0.  1.
         11    1    6    6    0    0  0.85812407804E+01  0.11110208264E+02  0.22354437229E+03  0.22398473341E+03  0.00000000000E+00 0. -1.
        -12    1    6    6    0    0 -0.32182609153E+02 -0.21425197503E+02  0.61529004691E+02  0.72667584508E+02  0.00000000000E+00 0.  1.
</event>
<event>
12    1  0.8052519E-002  0.2006762E+03  0.7818608E-02  0.1149244E+00
         21   -1    0    0  501  502  0.00000000000E+00  0.00000000000E+00  0.19348505102E+03  0.19348505102E+03  0.00000000000E+00 0.  1.
         21   -1    0    0  502  503 -0.00000000000E+00 -0.00000000000E+00 -0.23050698463E+03  0.23050698463E+03  0.00000000000E+00 0.  1.
         -6    2    1    2    0  503  0.50283083081E+02 -0.89563227359E+02  0.48055017965E+02  0.20634977458E+03  0.17239775108E+03 0.  0.
        -24    2    3    3    0    0  0.63735805516E+02 -0.94255270996E+02  0.87866005096E+02  0.16380573022E+03  0.78521165208E+02 0.  0.
          6    2    1    2  501    0 -0.50283083081E+02  0.89563227359E+02 -0.85076951576E+02  0.21764226107E+03  0.17198867979E+03 0.  0.
         24    2    5    5    0    0 -0.16571046361E+01 -0.99696355892E+01 -0.94940586616E+01  0.83455300871E+02  0.82295263923E+02 0.  0.
          5    1    5    5  501    0 -0.48625978445E+02  0.99532862949E+02 -0.75582892915E+02  0.13418696020E+03  0.47000000000E+01 0. -1.
        -13    1    6    6    0    0 -0.32639267839E+02  0.19519662504E+02  0.48558808317E+01  0.38339517577E+02  0.00000000000E+00 0.  1.
         14    1    6    6    0    0  0.30982163203E+02 -0.29489298094E+02 -0.14349939493E+02  0.45115783294E+02  0.00000000000E+00 0. -1.
         -5    1    3    3    0  503 -0.13452722434E+02  0.46920436371E+01 -0.39810987131E+02  0.42544044363E+02  0.47000000000E+01 0.  1.
         11    1    4    4    0    0 -0.17352237266E+02 -0.62958254237E+01  0.91886364446E+01  0.20619616767E+02  0.00000000000E+00 0. -1.
        -12    1    4    4    0    0  0.81088042781E+02 -0.87959445573E+02  0.78677368652E+02  0.14318611345E+03  0.00000000000E+00 0.  1.
</event>
<event>
12    1  0.8052519E-002  0.1735376E+03  0.7818608E-02  0.1174507E+00
         21   -1    0    0  501  502  0.00000000000E+00  0.00000000000E+00  0.27016639197E+03  0.27016639197E+03  0.00000000000E+00 0.  1.
         21   -1    0    0  502  503 -0.00000000000E+00 -0.00000000000E+00 -0.25714144039E+03  0.25714144039E+03  0.00000000000E+00 0.  1.
         -6    2    1    2    0  503 -0.18722207663E+01  0.57086626614E+01 -0.19245156204E+03  0.25835451028E+03  0.17225955767E+03 0.  0.
        -24    2    3    3    0    0  0.37045939771E+02  0.58757743817E+02 -0.10685901030E+03  0.15029432730E+03  0.79653390542E+02 0.  0.
          6    2    1    2  501    0  0.18722207663E+01 -0.57086626614E+01  0.20547651362E+03  0.26895332208E+03  0.17343355433E+03 0.  0.
         24    2    5    5    0    0  0.64844414052E+02 -0.28515384073E+02  0.12203938726E+03  0.16185762784E+03  0.79286534074E+02 0.  0.
          5    1    5    5  501    0 -0.62972193286E+02  0.22806721412E+02  0.83437126358E+02  0.10709569423E+03  0.47000000000E+01 0. -1.
        -13    1    6    6    0    0  0.14358846165E+02 -0.43951140184E+02  0.86913722185E+02  0.98447317336E+02  0.00000000000E+00 0.  1.
         14    1    6    6    0    0  0.50485567887E+02  0.15435756111E+02  0.35125665077E+02  0.63410310507E+02  0.00000000000E+00 0. -1.
         -5    1    3    3    0  503 -0.38918160537E+02 -0.53049081155E+02 -0.85592551745E+02  0.10806018298E+03  0.47000000000E+01 0.  1.
         11    1    4    4    0    0  0.43483147078E+01  0.86401207117E+01  0.13072961947E+02  0.16262283381E+02  0.00000000000E+00 0. -1.
        -12    1    4    4    0    0  0.32697625063E+02  0.50117623105E+02 -0.11993197225E+03  0.13403204392E+03  0.00000000000E+00 0.  1.
</event>
<event>
12    1  0.8052519E-002  0.2049061E+03  0.7818608E-02  0.1147065E+00
         21   -1    0    0  501  502  0.00000000000E+00  0.00000000000E+00  0.20498601582E+03  0.20498601582E+03  0.00000000000E+00 0.  1.
         21   -1    0    0  502  503 -0.00000000000E+00 -0.00000000000E+00 -0.29090146460E+03  0.29090146460E+03  0.00000000000E+00 0.  1.
         -6    2    1    2    0  503  0.70133754434E+02 -0.72286653688E+02 -0.18343503810E+03  0.27501801605E+03  0.17844436706E+03 0.  0.
        -24    2    3    3    0    0 -0.39127306367E+01 -0.92117224687E+02 -0.14148670550E+03  0.18750866737E+03  0.81486931240E+02 0.  0.
          6    2    1    2  501    0 -0.70133754434E+02  0.72286653688E+02  0.97519589319E+02  0.22086946437E+03  0.17067262867E+03 0.  0.
         24    2    5    5    0    0 -0.20055355914E+02  0.23762727088E+02  0.11186483280E+03  0.14952317181E+03  0.94215463653E+02 0.  0.
          5    1    5    5  501    0 -0.50078398520E+02  0.48523926601E+02 -0.14345243486E+02  0.71346292558E+02  0.47000000000E+01 0. -1.
        -11    1    6    6    0    0  0.37441620015E+02  0.13585908823E+02  0.35208193643E+02  0.53160781856E+02  0.00000000000E+00 0.  1.
         12    1    6    6    0    0 -0.57496975929E+02  0.10176818265E+02  0.76656639161E+02  0.96362389958E+02  0.00000000000E+00 0. -1.
         -5    1    3    3    0  503  0.74046485070E+02  0.19830570999E+02 -0.41948332603E+02  0.87509348675E+02  0.47000000000E+01 0.  1.
         11    1    4    4    0    0 -0.78126851144E+01 -0.69360636718E+02 -0.34129053998E+02  0.77696385382E+02  0.00000000000E+00 0. -1.
        -12    1    4    4    0    0  0.38999544777E+01 -0.22756587969E+02 -0.10735765150E+03  0.10981228199E+03  0.00000000000E+00 0.  1.
</event>
<event>
12    1  0.8052519E-002  0.2146388E+03  0.7818608E-02  0.1137951E+00
         21   -1    0    0  503  502  0.00000000000E+00  0.00000000000E+00  0.82852687682E+02  0.82852687682E+02  0.00000000000E+00 0.  1.
         21   -1    0    0  501  503 -0.00000000000E+00 -0.00000000000E+00 -0.56447934879E+03  0.56447934879E+03  0.00000000000E+00 0. -1.
          6    2    1    2  501    0 -0.54488578367E+02 -0.11374423884E+03 -0.20100782196E+03  0.29403790489E+03  0.17363003191E+03 0.  0.
         24    2    3    3    0    0  0.62112627765E+01 -0.90537756732E+02 -0.19468363692E+03  0.22857725378E+03  0.78167622990E+02 0.  0.
         -6    2    1    2    0  502  0.54488578367E+02  0.11374423884E+03 -0.28061883915E+03  0.35329413159E+03  0.17367513778E+03 0.  0.
        -24    2    5    5    0    0  0.81558928366E+02  0.23430780600E+02 -0.18492534550E+03  0.21887441831E+03  0.80670733901E+02 0.  0.
          5    1    3    3  501    0 -0.60699841144E+02 -0.23206482110E+02 -0.63241850389E+01  0.65460651106E+02  0.47000000000E+01 0. -1.
        -13    1    4    4    0    0  0.62697261243E+01 -0.23524250128E+02 -0.18321093763E+01  0.24414267028E+02  0.00000000000E+00 0.  1.
         14    1    4    4    0    0 -0.58463347858E-01 -0.67013506604E+02 -0.19285152754E+03  0.20416298675E+03  0.00000000000E+00 0. -1.
         -5    1    5    5    0  502 -0.27070349998E+02  0.90313458242E+02 -0.95693493653E+02  0.13441971327E+03  0.47000000000E+01 0.  1.
         11    1    6    6    0    0 -0.76102623178E+01  0.26197670968E+02 -0.53121973872E+02  0.59717486256E+02  0.00000000000E+00 0. -1.
        -12    1    6    6    0    0  0.89169190684E+02 -0.27668903681E+01 -0.13180337163E+03  0.15915693206E+03  0.00000000000E+00 0.  1.
</event>
<event>
12    1  0.8052519E-002  0.1916982E+03  0.7818608E-02  0.1156961E+00
         21   -1    0    0  503  502  0.00000000000E+00  0.00000000000E+00  0.85567575152E+03  0.85567575152E+03  0.00000000000E+00 0. -1.
         21   -1    0    0  501  503 -0.00000000000E+00 -0.00000000000E+00 -0.63372001514E+02  0.63372001514E+02  0.00000000000E+00 0. -1.
          6    2    1    2  501    0 -0.67574391148E+02 -0.48700591370E+02  0.13519503334E+03  0.23457601829E+03  0.17265620574E+03 0.  0.
         24    2    3    3    0    0 -0.43356772975E+02 -0.36981996637E+02  0.16614645076E+03  0.19329771003E+03  0.80696243819E+02 0.  0.
         -6    2    1    2    0  502  0.67574391148E+02  0.48700591370E+02  0.65710871667E+03  0.68447173474E+03  0.17254461511E+03 0.  0.
        -24    2    5    5    0    0  0.60402901396E+02  0.56237384343E+02  0.66201183449E+03  0.67204740064E+03  0.81098001268E+02 0.  0.
          5    1    3    3  501    0 -0.24217618174E+02 -0.11718594734E+02 -0.30951417418E+02  0.41278308259E+02  0.47000000000E+01 0. -1.
        -11    1    4    4    0    0 -0.62904455889E+02 -0.19476954707E+02  0.82075616289E+02  0.10522703609E+03  0.00000000000E+00 0.  1.
         12    1    4    4    0    0  0.19547682914E+02 -0.17505041930E+02  0.84070834469E+02  0.88070673942E+02  0.00000000000E+00 0. -1.
         -5    1    5    5    0  502  0.71714897523E+01 -0.75367929725E+01 -0.49031178205E+01  0.12424334104E+02  0.47000000000E+01 0.  1.
         11    1    6    6    0    0  0.48968667918E+02  0.68458333627E+02  0.36561145767E+03  0.37517490836E+03  0.00000000000E+00 0. -1.
        -12    1    6    6    0    0  0.11434233478E+02 -0.12220949285E+02  0.29640037682E+03  0.29687249228E+03  0.00000000000E+00 0.  1.
</event>
<event>
12    1  0.8052519E-002  0.2001088E+03  0.7818608E-02  0.1149751E+00
         21   -1    0    0  503  502  0.00000000000E+00  0.00000000000E+00  0.15520263719E+03  0.15520263719E+03  0.00000000000E+00 0.  1.
         21   -1    0    0  501  503 -0.00000000000E+00 -0.00000000000E+00 -0.48769356044E+03  0.48769356044E+03  0.00000000000E+00 0.  1.
          6    2    1    2  501    0  0.64844873194E+02  0.77548993485E+02 -0.38725596106E+03  0.43590216761E+03  0.17269862877E+03 0.  0.
         24    2    3    3    0    0  0.59112111094E+02 -0.19645099184E+02 -0.21989857922E+03  0.24222682207E+03  0.80238872057E+02 0.  0.
         -6    2    1    2    0  502 -0.64844873194E+02 -0.77548993485E+02  0.54765037818E+02  0.20699403002E+03  0.17212964628E+03 0.  0.
        -24    2    5    5    0    0 -0.63458196553E+02  0.17193926041E+02  0.45579101884E+02  0.11168078283E+03  0.77926689406E+02 0.  0.
          5    1    3    3  501    0  0.57327621003E+01  0.97194092669E+02 -0.16735738185E+03  0.19367534554E+03  0.47000000000E+01 0. -1.
        -13    1    4    4    0    0  0.37274557812E+02  0.29659598644E+02 -0.10557371207E+03  0.11582267969E+03  0.00000000000E+00 0.  1.
         14    1    4    4    0    0  0.21837553282E+02 -0.49304697828E+02 -0.11432486715E+03  0.12640414238E+03  0.00000000000E+00 0. -1.
         -5    1    5    5    0  502 -0.13866766416E+01 -0.94742919526E+02  0.91859359335E+01  0.95313247198E+02  0.47000000000E+01 0.  1.
         13    1    6    6    0    0 -0.76157420378E+02  0.29685928296E+02  0.27349624561E+02  0.86192859223E+02  0.00000000000E+00 0. -1.
        -14    1    6    6    0    0  0.12699223825E+02 -0.12492002256E+02  0.18229477324E+02  0.25487923603E+02  0.00000000000E+00 0.  1.
</event>
<event>
12    1  0.8052519E-002  0.1910768E+03  0.7818608E-02  0.1157592E+00
         21   -1    0    0  503  502  0.00000000000E+00  0.00000000000E+00  0.50757636178E+03  0.50757636178E+03  0.00000000000E+00 0.  1.
         21   -1    0    0  501  503 -0.00000000000E+00 -0.00000000000E+00 -0.11753737738E+03  0.11753737738E+03  0.00000000000E+00 0.  1.
          6    2    1    2  501    0  0.85661299636E+02  0.11947210205E+02  0.11031624255E+00  0.19107680167E+03  0.17038115471E+03 0.  0.
         24    2    3    3    0    0 -0.43712310452E+01  0.45658258396E+02 -0.14771073912E+02  0.93681539345E+02  0.80338421499E+02 0.  0.
         -6    2    1    2    0  502 -0.85661299636E+02 -0.11947210205E+02  0.38992866816E+03  0.43403693749E+03  0.16989144407E+03 0.  0.
        -24    2    5    5    0    0 -0.11549103891E+03  0.30586540201E+00  0.37064091498E+03  0.39616797091E+03  0.78968979321E+02 0.  0.
          5    1    3    3  501    0  0.90032530681E+02 -0.33711048191E+02  0.14881390154E+02  0.97395262328E+02  0.47000000000E+01 0. -1.
        -13    1    4    4    0    0  0.30172824664E+02  0.46793460035E+02  0.10087427107E+01  0.55687025528E+02  0.00000000000E+00 0.  1.
         14    1    4    4    0    0 -0.34544055709E+02 -0.11352016387E+01 -0.15779816622E+02  0.37994513818E+02  0.00000000000E+00 0. -1.
         -5    1    5    5    0  502  0.29829739276E+02 -0.12253075607E+02  0.19287753176E+02  0.37868966578E+02  0.47000000000E+01 0.  1.
         11    1    6    6    0    0 -0.19386745230E+02 -0.32414295475E+02  0.84702206189E+02  0.92741555815E+02  0.00000000000E+00 0. -1.
        -12    1    6    6    0    0 -0.96104293682E+02  0.32720160877E+02  0.28593870879E+03  0.30342641510E+03  0.00000000000E+00 0.  1.
</event>
<event>
12    1  0.8052519E-002  0.1821774E+03  0.7818608E-02  0.1166658E+00
         21   -1    0    0  503  502  0.00000000000E+00  0.00000000000E+00  0.39811238851E+03  0.39811238851E+03  0.00000000000E+00 0.  1.
         21   -1    0    0  501  503 -0.00000000000E+00 -0.00000000000E+00 -0.87094888229E+02  0.87094888229E+02  0.00000000000E+00 0.  1.
          6    2    1    2  501    0  0.50075928826E+02 -0.97553161646E+01  0.21814164056E+03  0.28420837029E+03  0.17488812868E+03 0.  0.
         24    2    3    3    0    0  0.69403408470E+02  0.35606612038E+02  0.79260114641E+02  0.13675863566E+03  0.79599589989E+02 0.  0.
         -6    2    1    2    0  502 -0.50075928826E+02  0.97553161646E+01  0.92875859723E+02  0.20099890646E+03  0.17079774658E+03 0.  0.
        -24    2    5    5    0    0 -0.69946428332E+02 -0.25480455377E+02  0.70985390930E+01  0.10604504881E+03  0.75189139362E+02 0.  0.
          5    1    3    3  501    0 -0.19327479643E+02 -0.45361928202E+02  0.13888152592E+03  0.14744973463E+03  0.47000000000E+01 0. -1.
        -11    1    4    4    0    0  0.44040034343E+02  0.25390505452E+02 -0.21486975870E+01  0.50880441167E+02  0.00000000000E+00 0.  1.
         12    1    4    4    0    0  0.25363374127E+02  0.10216106586E+02  0.81408812228E+02  0.85878194492E+02  0.00000000000E+00 0. -1.
         -5    1    5    5    0  502  0.19870499505E+02  0.35235771542E+02  0.85777320630E+02  0.94953857643E+02  0.47000000000E+01 0.  1.
         11    1    6    6    0    0 -0.13810784775E+02 -0.44435619097E+02  0.19722846407E+01  0.46574155144E+02  0.00000000000E+00 0. -1.
        -12    1    6    6    0    0 -0.56135643556E+02  0.18955163720E+02  0.51262544522E+01  0.59470893669E+02  0.00000000000E+00 0.  1.
</event>
<event>
12    1  0.8052519E-002  0.1802913E+03  0.7818608E-02  0.1167532E+00
         21   -1    0    0  503  502  0.00000000000E+00  0.00000000000E+00  0.21935809060E+04  0.21935809060E+04  0.00000000000E+00 0.  1.
         21   -1    0    0  501  503 -0.00000000000E+00 -0.00000000000E+00 -0.80397899317E+02  0.80397899317E+02  0.00000000000E+00 0.  1.
          6    2    1    2  501    0  0.58684855126E+02 -0.51023174730E+01  0.29709354574E+02  0.18272277839E+03  0.17039666114E+03 0.  0.
         24    2    3    3    0    0  0.66516942806E+02  0.48093381194E+02 -0.13246512200E+02  0.11374147335E+03  0.77615563385E+02 0.  0.
         -6    2    1    2    0  502 -0.58684855126E+02  0.51023174730E+01  0.20834736521E+04  0.20912560269E+04  0.17035071258E+03 0.  0.
        -24    2    5    5    0    0  0.19142869516E+02 -0.56566794747E+00  0.55701472718E+03  0.56279659983E+03  0.78152652271E+02 0.  0.
          5    1    3    3  501    0 -0.78320876802E+01 -0.53195698667E+02  0.42955866774E+02  0.68981305035E+02  0.47000000000E+01 0. -1.
        -13    1    4    4    0    0  0.31741821180E+02  0.11649846289E+02  0.31613331345E+02  0.46288927933E+02  0.00000000000E+00 0.  1.
         14    1    4    4    0    0  0.34775121626E+02  0.36443534904E+02 -0.44859843546E+02  0.67452545418E+02  0.00000000000E+00 0. -1.
         -5    1    5    5    0  502 -0.77827724642E+02  0.56679854205E+01  0.15264589249E+04  0.15284594271E+04  0.47000000000E+01 0.  1.
         13    1    6    6    0    0 -0.11248661880E+02  0.22398687587E+02  0.71054049395E+02  0.75345282103E+02  0.00000000000E+00 0. -1.
        -14    1    6    6    0    0  0.30391531396E+02 -0.22964355535E+02  0.48596067778E+03  0.48745131773E+03  0.00000000000E+00 0.  1.
</event>
<event>
12    1  0.8052519E-002  0.2069300E+03  0.7818608E-02  0.1144324E+00
         21   -1    0    0  503  502  0.00000000000E+00  0.00000000000E+00  0.49434362324E+03  0.49434362324E+03  0.00000000000E+00 0. -1.
         21   -1    0    0  501  503 -0.00000000000E+00 -0.00000000000E+00 -0.93716677980E+02  0.93716677980E+02  0.00000000000E+00 0. -1.
          6    2    1    2  501    0  0.84659950884E+02 -0.74983425032E+02  0.11524376269E+03  0.23554989297E+03  0.17150162077E+03 0.  0.
         24    2    3    3    0    0 -0.44385760579E+01 -0.64000751479E+02  0.10254496637E+03  0.14476158948E+03  0.79527671375E+02 0.  0.
         -6    2    1    2    0  502 -0.84659950884E+02  0.74983425032E+02  0.28538318258E+03  0.35251040826E+03  0.17329225522E+03 0.  0.
        -24    2    5    5    0    0 -0.82794899938E+02  0.41293882755E+02  0.29300194734E+03  0.31760196729E+03  0.80378406774E+02 0.  0.
          5    1    3    3  501    0  0.89098526942E+02 -0.10982673552E+02  0.12698796315E+02  0.90788303483E+02  0.47000000000E+01 0. -1.
        -13    1    4    4    0    0 -0.16964532658E+02  0.13711569393E+02  0.33941560257E+02  0.40346400288E+02  0.00000000000E+00 0.  1.
         14    1    4    4    0    0  0.12525956600E+02 -0.77712320873E+02  0.68603406117E+02  0.10441518920E+03  0.00000000000E+00 0. -1.
         -5    1    5    5    0  502 -0.18650509456E+01  0.33689542277E+02 -0.76187647643E+01  0.34908440962E+02  0.47000000000E+01 0.  1.
         13    1    6    6    0    0 -0.71509296254E+02  0.28605385525E+01  0.11743551564E+03  0.13752404323E+03  0.00000000000E+00 0. -1.
        -14    1    6    6    0    0 -0.11285603685E+02  0.38433344203E+02  0.17556643170E+03  0.18007792407E+03  0.00000000000E+00 0.  1.
</event>
<event>
12    1  0.8052519E-002  0.1757994E+03  0.7818608E-02  0.1172027E+00
         21   -1    0    0  503  502  0.00000000000E+00  0.00000000000E+00  0.54129981637E+03  0.54129981637E+03  0.00000000000E+00 0.  1.
         21   -1    0    0  501  503 -0.00000000000E+00 -0.00000000000E+00 -0.66950529212E+02  0.66950529212E+02  0.00000000000E+00 0.  1.
          6    2    1    2  501    0  0.22789580140E+02 -0.23799372415E+02  0.11953838876E+03  0.21227533467E+03  0.17229514280E+03 0.  0.
         24    2    3    3    0    0 -0.11356983814E+02 -0.74184084403E+02  0.54356483788E+02  0.12297036410E+03  0.80838256152E+02 0.  0.
         -6    2    1    2    0  502 -0.22789580140E+02  0.23799372415E+02  0.35481089840E+03  0.39597501091E+03  0.17268370090E+03 0.  0.
        -24    2    5    5    0    0  0.34525276021E+02  0.49284430867E+02  0.14987279521E+03  0.18160104542E+03  0.83042971676E+02 0.  0.
          5    1    3    3  501    0  0.34146563955E+02  0.50384711989E+02  0.65181904972E+02  0.89304970566E+02  0.47000000000E+01 0. -1.
        -13    1    4    4    0    0  0.23223529529E+02 -0.55612930295E+02  0.57881378986E+02  0.83560662833E+02  0.00000000000E+00 0.  1.
         14    1    4    4    0    0 -0.34580513344E+02 -0.18571154109E+02 -0.35248951981E+01  0.39409701270E+02  0.00000000000E+00 0. -1.
         -5    1    5    5    0  502 -0.57314856161E+02 -0.25485058452E+02  0.20493810319E+03  0.21437396549E+03  0.47000000000E+01 0.  1.
         13    1    6    6    0    0 -0.18239454646E+02  0.46231797392E+02  0.72446877712E+02  0.87855602474E+02  0.00000000000E+00 0. -1.
        -14    1    6    6    0    0  0.52764730666E+02  0.30526334751E+01  0.77425917495E+02  0.93745442947E+02  0.00000000000E+00 0.  1.
</event>
<event>
12    1  0.8052519E-002  0.2057007E+03  0.7818608E-02  0.1145221E+00
         21   -1    0    0  501  502  0.00000000000E+00  0.00000000000E+00  0.16522127584E+04  0.16522127584E+04  0.00000000000E+00 0.  1.
         21   -1    0    0  502  503 -0.00000000000E+00 -0.00000000000E+00 -0.38224765871E+02  0.38224765871E+02  0.00000000000E+00 0.  1.
         -6    2    1    2    0  503 -0.53517023553E+02 -0.99017057445E+02  0.32035617163E+03  0.38071096464E+03  0.17217523754E+03 0.  0.
        -24    2    3    3    0    0  0.26688855874E+02 -0.48596732228E+02  0.23055652196E+03  0.25009220882E+03  0.79472420917E+02 0.  0.
          6    2    1    2  501    0  0.53517023553E+02  0.99017057445E+02  0.12936318209E+04  0.13097265596E+04  0.17097345841E+03 0.  0.
         24    2    5    5    0    0  0.72116378364E+02  0.46574247362E+02  0.44227279667E+03  0.45653814991E+03  0.73837139099E+02 0.  0.
          5    1    5    5  501    0 -0.18599354811E+02  0.52442810084E+02  0.85135902424E+03  0.85318840972E+03  0.47000000000E+01 0. -1.
        -13    1    6    6    0    0  0.53059853423E+02  0.70146929846E+00  0.32308010151E+03  0.32740890656E+03  0.00000000000E+00 0.  1.
         14    1    6    6    0    0  0.19056524941E+02  0.45872778063E+02  0.11919269516E+03  0.12912924335E+03  0.00000000000E+00 0. -1.
         -5    1    3    3    0  503 -0.80205879427E+02 -0.50420325218E+02  0.89799649670E+02  0.13061875581E+03  0.47000000000E+01 0.  1.
         13    1    4    4    0    0  0.24108738732E+02 -0.14800067591E+02  0.15257282736E+02  0.32141219025E+02  0.00000000000E+00 0. -1.
        -14    1    4    4    0    0  0.25801171422E+01 -0.33796664637E+02  0.21529923922E+03  0.21795098980E+03  0.00000000000E+00 0.  1.
</event>
<event>
12    1  0.8052519E-002  0.1804772E+03  0.7818608E-02  0.1168383E+00
         21   -1    0    0  501  502  0.00000000000E+00  0.00000000000E+00  0.16407606512E+03  0.16407606512E+03  0.00000000000E+00 0. -1.
         21   -1    0    0  502  503 -0.00000000000E+00 -0.00000000000E+00 -0.27779465390E+03  0.27779465390E+03  0.00000000000E+00 0. -1.
         -6    2    1    2    0  503  0.25527560893E+02 -0.23194170567E+02  0.64106676450E+02  0.19152464582E+03  0.17715077781E+03 0.  0.
        -24    2    3    3    0    0 -0.38271744257E+02  0.30483025858E+02  0.51529713596E+02  0.10707428912E+03  0.80097757349E+02 0.  0.
          6    2    1    2  501    0 -0.25527560893E+02  0.23194170567E+02 -0.17782526523E+03  0.25034607320E+03  0.17280539778E+03 0.  0.
         24    2    5    5    0    0  0.11223572613E+02  0.18038725072E+01 -0.19088918062E+03  0.20561413215E+03  0.75559708321E+02 0.  0.
          5    1    5    5  501    0 -0.36751133505E+02  0.21390298059E+02  0.13063915397E+02  0.44731941054E+02  0.47000000000E+01 0. -1.
        -11    1    6    6    0    0  0.27300679230E+02 -0.23577059209E+02 -0.50585520243E+02  0.62129700350E+02  0.00000000000E+00 0.  1.
         12    1    6    6    0    0 -0.16077106618E+02  0.25380931717E+02 -0.14030366038E+03  0.14348443180E+03  0.00000000000E+00 0. -1.
         -5    1    3    3    0  503  0.63799305150E+02 -0.53677196425E+02  0.12576962853E+02  0.84450356709E+02  0.47000000000E+01 0.  1.
         13    1    4    4    0    0 -0.36651152467E+02 -0.15948230070E+02  0.44950081866E+02  0.60151166899E+02  0.00000000000E+00 0. -1.
        -14    1    4    4    0    0 -0.16205917901E+01  0.46431255928E+02  0.65796317301E+01  0.46923122216E+02  0.00000000000E+00 0.  1.
</event>
<event>
12    1  0.8052519E-002  0.1810261E+03  0.7818608E-02  0.1167231E+00
         21   -1    0    0  503  502  0.00000000000E+00  0.00000000000E+00  0.24033674951E+03  0.24033674951E+03  0.00000000000E+00 0.  1.
         21   -1    0    0  501  503 -0.00000000000E+00 -0.00000000000E+00 -0.34039369705E+03  0.34039369705E+03  0.00000000000E+00 0.  1.
          6    2    1    2  501    0  0.53424266278E+02 -0.17685100994E+02 -0.27564639630E+03  0.32977476439E+03  0.17205680577E+03 0.  0.
         24    2    3    3    0    0 -0.10711402481E+02 -0.56957551165E+02 -0.19956872053E+03  0.22269716589E+03  0.80046590840E+02 0.  0.
         -6    2    1    2    0  502 -0.53424266278E+02  0.17685100994E+02  0.17558944876E+03  0.25095568216E+03  0.17023567449E+03 0.  0.
        -24    2    5    5    0    0  0.39406893449E+02 -0.13938753216E+01  0.73904571352E+02  0.11187464159E+03  0.74156615511E+02 0.  0.
          5    1    3    3  501    0  0.64135668759E+02  0.39272450171E+02 -0.76077675779E+02  0.10707759850E+03  0.47000000000E+01 0. -1.
        -13    1    4    4    0    0 -0.36292340056E+02 -0.61884057304E+01 -0.11538133976E+03  0.12111269082E+03  0.00000000000E+00 0.  1.
         14    1    4    4    0    0  0.25580937575E+02 -0.50769145435E+02 -0.84187380764E+02  0.10158447507E+03  0.00000000000E+00 0. -1.
         -5    1    5    5    0  502 -0.92831159727E+02  0.19078976316E+02  0.10168487741E+03  0.13908104058E+03  0.47000000000E+01 0.  1.
         13    1    6    6    0    0 -0.12893922302E+02 -0.21612901287E+02  0.36996597546E+02  0.44745044020E+02  0.00000000000E+00 0. -1.
        -14    1    6    6    0    0  0.52300815751E+02  0.20219025966E+02  0.36907973806E+02  0.67129597568E+02  0.00000000000E+00 0.  1.
</event>
<event>
12    1  0.8052519E-002  0.2341609E+03  0.7818608E-02  0.1124071E+00
         21   -1    0    0  501  502  0.00000000000E+00  0.00000000000E+00  0.88348346377E+03  0.88348346377E+03  0.00000000000E+00 0. -1.
         21   -1    0    0  502  503 -0.00000000000E+00 -0.00000000000E+00 -0.68081564270E+02  0.68081564270E+02  0.00000000000E+00 0. -1.
         -6    2    1    2    0  503 -0.67634781882E+02 -0.14156701038E+03  0.55342093598E+03  0.60018865974E+03  0.17127758975E+03 0.  0.
        -24    2    3    3    0    0 -0.70854236661E+02 -0.10594432143E+03  0.54215605015E+03  0.56239542608E+03  0.78172312704E+02 0.  0.
          6    2    1    2  501    0  0.67634781882E+02  0.14156701038E+03  0.26198096352E+03  0.35137636830E+03  0.17382647901E+03 0.  0.
         24    2    5    5    0    0 -0.90109565001E+01  0.12238664573E+03  0.12611509208E+03  0.19413743985E+03  0.82003906676E+02 0.  0.
          5    1    5    5  501    0  0.76645738382E+02  0.19180364653E+02  0.13586587143E+03  0.15723892845E+03  0.47000000000E+01 0. -1.
        -13    1    6    6    0    0  0.21102524234E+02  0.10133739076E+03  0.11712997658E+03  0.15631383403E+03  0.00000000000E+00 0.  1.
         14    1    6    6    0    0 -0.30113480734E+02  0.21049254964E+02  0.89851155048E+01  0.37823605818E+02  0.00000000000E+00 0. -1.
         -5    1    3    3    0  503  0.32194547792E+01 -0.35622688952E+02  0.11264885833E+02  0.37793233655E+02  0.47000000000E+01 0.  1.
         11    1    4    4    0    0 -0.41032988018E+01  0.11862183861E+02  0.73781440460E+02  0.74841495331E+02  0.00000000000E+00 0. -1.
        -12    1    4    4    0    0 -0.66750937859E+02 -0.11780650529E+03  0.46837460969E+03  0.48755393075E+03  0.00000000000E+00 0.  1.
</event>
<event>
12    1  0.8052519E-002  0.1836331E+03  0.7818608E-02  0.1164400E+00
         21   -1    0    0  503  502  0.00000000000E+00  0.00000000000E+00  0.57288125406E+02  0.57288125406E+02  0.00000000000E+00 0. -1.
         21   -1    0    0  501  503 -0.00000000000E+00 -0.00000000000E+00 -0.21336989489E+04  0.21336989489E+04  0.00000000000E+00 0. -1.
          6    2    1    2  501    0 -0.11721798114E+02 -0.62933292693E+02 -0.19709231312E+04  0.19794592964E+04  0.17211367549E+03 0.  0.
         24    2    3    3    0    0 -0.71308511400E+02 -0.18293805512E+02 -0.12431582862E+04  0.12478808524E+04  0.79652558276E+02 0.  0.
         -6    2    1    2    0  502  0.11721798114E+02  0.62933292693E+02 -0.10548769229E+03  0.21152777786E+03  0.17180904430E+03 0.  0.
        -24    2    5    5    0    0 -0.19221296793E+02  0.93269023658E+02 -0.11169180031E+03  0.16750150557E+03  0.80703947157E+02 0.  0.
          5    1    3    3  501    0  0.59586713286E+02 -0.44639487181E+02 -0.72776484497E+03  0.73157844404E+03  0.47000000000E+01 0. -1.
        -13    1    4    4    0    0  0.63962197030E+00  0.19761846927E+02 -0.10704359414E+03  0.10885435571E+03  0.00000000000E+00 0.  1.
         14    1    4    4    0    0 -0.71948133370E+02 -0.38055652439E+02 -0.11361146920E+04  0.11390264966E+04  0.00000000000E+00 0. -1.
         -5    1    5    5    0  502  0.30943094907E+02 -0.30335730965E+02  0.62041080214E+01  0.44026272292E+02  0.47000000000E+01 0.  1.
         11    1    6    6    0    0  0.21680785658E+02  0.38753412059E+02 -0.10720893029E+02  0.45681735522E+02  0.00000000000E+00 0. -1.
        -12    1    6    6    0    0 -0.40902082452E+02  0.54515611599E+02 -0.10097090728E+03  0.12181977005E+03  0.00000000000E+00 0.  1.
</event>
<event>
12    1  0.8052519E-002  0.1790674E+03  0.7818608E-02  0.1168877E+00
         21   -1    0    0  501  502  0.00000000000E+00  0.00000000000E+00  0.18291514527E+03  0.18291514527E+03  0.00000000000E+00 0.  1.
         21   -1    0    0  502  503 -0.00000000000E+00 -0.00000000000E+00 -0.22578888703E+03  0.22578888703E+03  0.00000000000E+00 0.  1.
         -6    2    1    2    0  503  0.37163362570E+02  0.31442959965E+02 -0.11868130579E+03  0.21425112045E+03  0.17160569635E+03 0.  0.
        -24    2    3    3    0    0  0.81384332266E+02  0.49202510368E+02 -0.10718092894E+03  0.16500434939E+03  0.81819235058E+02 0.  0.
          6    2    1    2  501    0 -0.37163362570E+02 -0.31442959965E+02  0.75807564026E+02  0.19445291185E+03  0.17232345434E+03 0.  0.
         24    2    5    5    0    0  0.11282928582E+02 -0.36193436874E+02 -0.15280876686E+02  0.91066238687E+02  0.81377424918E+02 0.  0.
          5    1    5    5  501    0 -0.48446291152E+02  0.47504769088E+01  0.91088440712E+02  0.10338667317E+03  0.47000000000E+01 0. -1.
        -13    1    6    6    0    0  0.40347966646E+01 -0.23811742629E+02  0.32889651779E+02  0.40804507904E+02  0.00000000000E+00 0.  1.
         14    1    6    6    0    0  0.72481319176E+01 -0.12381694245E+02 -0.48170528465E+02  0.50261730783E+02  0.00000000000E+00 0. -1.
         -5    1    3    3    0  503 -0.44220969695E+02 -0.17759550403E+02 -0.11500376848E+02  0.49246771051E+02  0.47000000000E+01 0.  1.
         11    1    4    4    0    0  0.35312517012E+02  0.43361328704E+02 -0.93327389872E+01  0.56694609106E+02  0.00000000000E+00 0. -1.
        -12    1    4    4    0    0  0.46071815253E+02  0.58411816645E+01 -0.97848189954E+02  0.10830974029E+03  0.00000000000E+00 0.  1.
</event>
<event>
12    1  0.8052519E-002  0.2303474E+03  0.7818608E-02  0.1127572E+00
         21   -1    0    0  503  502  0.00000000000E+00  0.00000000000E+00  0.29192385253E+03  0.29192385253E+03  0.00000000000E+00 0. -1.
         21   -1    0    0  501  503 -0.00000000000E+00 -0.00000000000E+00 -0.40917335712E+03  0.40917335712E+03  0.00000000000E+00 0.  1.
          6    2    1    2  501    0 -0.15306894372E+03 -0.24612368592E+02 -0.32327128389E+03  0.39694364748E+03  0.17036450941E+03 0.  0.
         24    2    3    3    0    0 -0.15279736997E+03 -0.40075246854E+02 -0.33366730492E+03  0.37772538509E+03  0.79934563784E+02 0.  0.
         -6    2    1    2    0  502  0.15306894372E+03  0.24612368592E+02  0.20602177931E+03  0.30415356217E+03  0.16133364688E+03 0.  0.
        -24    2    5    5    0    0  0.10397973420E+03  0.54427708993E+02  0.66725286031E+02  0.15340772292E+03  0.72852625367E+02 0.  0.
          5    1    3    3  501    0 -0.27157374970E+00  0.15462878262E+02  0.10396021023E+02  0.19218262396E+02  0.47000000000E+01 0. -1.
        -13    1    4    4    0    0 -0.11652329083E+03 -0.83211563239E+01 -0.29013426090E+03  0.31276957700E+03  0.00000000000E+00 0.  1.
         14    1    4    4    0    0 -0.36274079141E+02 -0.31754090530E+02 -0.43533044021E+02  0.64955808090E+02  0.00000000000E+00 0. -1.
         -5    1    5    5    0  502  0.49089209515E+02 -0.29815340400E+02  0.13929649328E+03  0.15074583926E+03  0.47000000000E+01 0.  1.
         11    1    6    6    0    0  0.81313392182E+02  0.20011724801E+02  0.11536188237E+02  0.84530589236E+02  0.00000000000E+00 0. -1.
        -12    1    6    6    0    0  0.22666342022E+02  0.34415984192E+02  0.55189097794E+02  0.68877133679E+02  0.00000000000E+00 0.  1.
</event>
<event>
12    1  0.8052519E-002  0.1993372E+03  0.7818608E-02  0.1150931E+00
         21   -1    0    0  503  502  0.00000000000E+00  0.00000000000E+00  0.23910395007E+03  0.23910395007E+03  0.00000000000E+00 0.  1.
         21   -1    0    0  501  503 -0.00000000000E+00 -0.00000000000E+00 -0.18329740011E+03  0.18329740011E+03  0.00000000000E+00 0.  1.
          6    2    1    2  501    0 -0.24904926599E+02 -0.91585845287E+02 -0.40920888978E+02  0.20349410712E+03  0.17529150023E+03 0.  0.
         24    2    3    3    0    0 -0.63975555127E+02 -0.80639807480E+02 -0.75085799215E+02  0.15024318367E+03  0.79620894183E+02 0.  0.
         -6    2    1    2    0  502  0.24904926599E+02  0.91585845287E+02  0.96727438939E+02  0.21890724306E+03  0.17191847252E+03 0.  0.
        -24    2    5    5    0    0 -0.35407379699E+01  0.16456867816E+02 -0.89602330539E+01  0.86070903530E+02  0.83931813601E+02 0.  0.
          5    1    3    3  501    0  0.39070628528E+02 -0.10946037807E+02  0.34164910238E+02  0.53250923455E+02  0.47000000000E+01 0. -1.
        -13    1    4    4    0    0 -0.73343894708E+02 -0.33610554168E+02 -0.35854693120E+02  0.88286778518E+02  0.00000000000E+00 0.  1.
         14    1    4    4    0    0  0.93683395806E+01 -0.47029253312E+02 -0.39231106096E+02  0.61956405150E+02  0.00000000000E+00 0. -1.
         -5    1    5    5    0  502  0.28445664569E+02  0.75128977471E+02  0.10568767199E+03  0.13283633953E+03  0.47000000000E+01 0.  1.
         13    1    6    6    0    0  0.16124315729E+02  0.29433871664E+02 -0.36662691029E+02  0.49704117258E+02  0.00000000000E+00 0. -1.
        -14    1    6    6    0    0 -0.19665053699E+02 -0.12977003848E+02  0.27702457976E+02  0.36366786272E+02  0.00000000000E+00 0.  1.
</event>
<event>
12    1  0.8052519E-002  0.2292852E+03  0.7818608E-02  0.1127365E+00
         21   -1    0    0  503  502  0.00000000000E+00  0.00000000000E+00  0.23001481034E+03  0.23001481034E+03  0.00000000000E+00 0. -1.
         21   -1    0    0  501  503 -0.00000000000E+00 -0.00000000000E+00 -0.42688103118E+03  0.42688103118E+03  0.00000000000E+00 0. -1.
          6    2    1    2  501    0  0.13255705953E+02 -0.15076998508E+03 -0.32314726902E+03  0.39622702898E+03  0.17223355908E+03 0.  0.
         24    2    3    3    0    0  0.55775382301E+02 -0.15532795544E+03 -0.28363923975E+03  0.33781750623E+03  0.80198392606E+02 0.  0.
         -6    2    1    2    0  502 -0.13255705953E+02  0.15076998508E+03  0.12628104818E+03  0.26066881254E+03  0.17056970587E+03 0.  0.
        -24    2    5    5    0    0  0.47457428716E+02  0.64908511367E+02  0.10343430977E+03  0.15295464984E+03  0.78937608795E+02 0.  0.
          5    1    3    3  501    0 -0.42519676348E+02  0.45579703630E+01 -0.39508029265E+02  0.58409522742E+02  0.47000000000E+01 0. -1.
        -11    1    4    4    0    0  0.44494670966E+02 -0.14329593407E+03 -0.18687438782E+03  0.23965712442E+03  0.00000000000E+00 0.  1.
         12    1    4    4    0    0  0.11280711335E+02 -0.12032021374E+02 -0.96764851939E+02  0.98160381811E+02  0.00000000000E+00 0. -1.
         -5    1    5    5    0  502 -0.60713134669E+02  0.85861473714E+02  0.22846738407E+02  0.10771416270E+03  0.47000000000E+01 0.  1.
         13    1    6    6    0    0  0.30776213561E+01 -0.55898783809E+01  0.57446225122E+02  0.57799543894E+02  0.00000000000E+00 0. -1.
        -14    1    6    6    0    0  0.44379807360E+02  0.70498389748E+02  0.45988084647E+02  0.95155105947E+02  0.00000000000E+00 0.  1.
</event>
<event>
12    1  0.8052519E-002  0.2276302E+03  0.7818608E-02  0.1128725E+00
         21   -1    0    0  501  502  0.00000000000E+00  0.00000000000E+00  0.22059344751E+03  0.22059344751E+03  0.00000000000E+00 0.  1.
         21   -1    0    0  502  503 -0.00000000000E+00 -0.00000000000E+00 -0.23505214791E+03  0.23505214791E+03  0.00000000000E+00 0. -1.
         -6    2    1    2    0  503 -0.14745269828E+03 -0.24032773152E+02 -0.30718114033E+02  0.22969355329E+03  0.17174298669E+03 0.  0.
        -24    2    3    3    0    0 -0.24548699102E+02  0.11403402508E+02 -0.50657709489E+02  0.10015285302E+03  0.82047024444E+02 0.  0.
          6    2    1    2  501    0  0.14745269828E+03  0.24032773152E+02  0.16259413632E+02  0.22595204214E+03  0.16873080453E+03 0.  0.
         24    2    5    5    0    0  0.16575192112E+03  0.26684484805E+02  0.45182636886E+02  0.19130329072E+03  0.79810508596E+02 0.  0.
          5    1    5    5  501    0 -0.18299222837E+02 -0.26517116534E+01 -0.28923223253E+02  0.34648751413E+02  0.47000000000E+01 0. -1.
        -13    1    6    6    0    0  0.16449938195E+03  0.55507376701E+01  0.42260248537E+02  0.16993170969E+03  0.00000000000E+00 0.  1.
         14    1    6    6    0    0  0.12525391666E+01  0.21133747135E+02  0.29223883488E+01  0.21371581036E+02  0.00000000000E+00 0. -1.
         -5    1    3    3    0  503 -0.12290399918E+03 -0.35436175659E+02  0.19939595457E+02  0.12954070027E+03  0.47000000000E+01 0.  1.
         13    1    4    4    0    0  0.21479345051E+01  0.44075841620E+02 -0.23794256402E+02  0.50134420061E+02  0.00000000000E+00 0. -1.
        -14    1    4    4    0    0 -0.26696633607E+02 -0.32672439112E+02 -0.26863453088E+02  0.50018432955E+02  0.00000000000E+00 0.  1.
</event>
<event>
12    1  0.8052519E-002  0.1804169E+03  0.7818608E-02  0.1167620E+00
         21   -1    0    0  503  502  0.00000000000E+00  0.00000000000E+00  0.14992770454E+03  0.14992770454E+03  0.00000000000E+00 0.  1.
         21   -1    0    0  501  503 -0.00000000000E+00 -0.00000000000E+00 -0.52220357356E+03  0.52220357356E+03  0.00000000000E+00 0.  1.
          6    2    1    2  501    0 -0.50496820410E+02  0.10683171383E+02 -0.44327841007E+03  0.47824570282E+03  0.17192773019E+03 0.  0.
         24    2    3    3    0    0 -0.46397967199E+01  0.53023391519E+02 -0.37090827127E+03  0.38256347954E+03  0.77128868880E+02 0.  0.
         -6    2    1    2    0  502  0.50496820410E+02 -0.10683171383E+02  0.71002541038E+02  0.19388557529E+03  0.17287624605E+03 0.  0.
        -24    2    5    5    0    0  0.65177545348E+02  0.42662273162E+02  0.81629368987E+02  0.13734992626E+03  0.78316450339E+02 0.  0.
          5    1    3    3  501    0 -0.45857023690E+02 -0.42340220136E+02 -0.72370138793E+02  0.95682223280E+02  0.47000000000E+01 0. -1.
        -13    1    4    4    0    0 -0.34232915693E+02  0.90027767402E+01 -0.21461688147E+03  0.21751631736E+03  0.00000000000E+00 0.  1.
         14    1    4    4    0    0  0.29593118973E+02  0.44020614779E+02 -0.15629138980E+03  0.16504716217E+03  0.00000000000E+00 0. -1.
         -5    1    5    5    0  502 -0.14680724939E+02 -0.53345444545E+02 -0.10626827949E+02  0.56535649025E+02  0.47000000000E+01 0.  1.
         13    1    6    6    0    0 -0.18280512418E+02  0.97587262714E+01  0.14105505160E+02  0.25067412083E+02  0.00000000000E+00 0. -1.
        -14    1    6    6    0    0  0.83458057766E+02  0.32903546890E+02  0.67523863827E+02  0.11228251418E+03  0.00000000000E+00 0.  1.
</event>
<event>
12    1  0.8052519E-002  0.2024912E+03  0.7818608E-02  0.1147718E+00
         21   -1    0    0  501  502  0.00000000000E+00  0.00000000000E+00  0.19304777161E+03  0.19304777161E+03  0.00000000000E+00 0.  1.
         21   -1    0    0  502  503 -0.00000000000E+00 -0.00000000000E+00 -0.28039607370E+03  0.28039607370E+03  0.00000000000E+00 0.  1.
         -6    2    1    2    0  503  0.10834734561E+03  0.65127371530E+01 -0.16054905766E+03  0.25841574990E+03  0.17094191070E+03 0.  0.
        -24    2    3    3    0    0  0.11639326876E+03  0.38414082298E+02 -0.70102331130E+02  0.16205635471E+03  0.79529180436E+02 0.  0.
          6    2    1    2  501    0 -0.10834734561E+03 -0.65127371530E+01  0.73200755563E+02  0.21502809541E+03  0.17057892060E+03 0.  0.
         24    2    5    5    0    0 -0.13519713177E+03  0.26499320401E+02  0.62280286592E+02  0.17084604472E+03  0.79555379931E+02 0.  0.
          5    1    5    5  501    0  0.26849786159E+02 -0.33012057554E+02  0.10920468971E+02  0.44182050692E+02  0.47000000000E+01 0. -1.
        -13    1    6    6    0    0 -0.11254749279E+03 -0.10631351945E+02  0.58230579845E+02  0.12716431971E+03  0.00000000000E+00 0.  1.
         14    1    6    6    0    0 -0.22649638978E+02  0.37130672346E+02  0.40497067473E+01  0.43681725005E+02  0.00000000000E+00 0. -1.
         -5    1    3    3    0  503 -0.80459231477E+01 -0.31901345145E+02 -0.90446726529E+02  0.96359395189E+02  0.47000000000E+01 0.  1.
         13    1    4    4    0    0 -0.11986880963E+02  0.43823459828E+01 -0.24177103999E+01  0.12989826600E+02  0.00000000000E+00 0. -1.
        -14    1    4    4    0    0  0.12838014972E+03  0.34031736315E+02 -0.67684620730E+02  0.14906652811E+03  0.00000000000E+00 0.  1.
</event>
<event>
12    1  0.8052519E-002  0.2174114E+03  0.7818608E-02  0.1135848E+00
         21   -1    0    0  503  502  0.00000000000E+00  0.00000000000E+00  0.12215850794E+04  0.12215850794E+04  0.00000000000E+00 0.  1.
         21   -1    0    0  501  503 -0.00000000000E+00 -0.00000000000E+00 -0.42073517686E+02  0.42073517686E+02  0.00000000000E+00 0.  1.
          6    2    1    2  501    0 -0.54719332992E+01 -0.13283396962E+03  0.41003179610E+03  0.46405442794E+03  0.17188843108E+03 0.  0.
         24    2    3    3    0    0  0.35717098273E+01  0.59483685447E+00  0.12435735095E+03  0.14859125658E+03  0.81249614479E+02 0.  0.
         -6    2    1    2    0  502  0.54719332992E+01  0.13283396962E+03  0.76947976559E+03  0.79960416913E+03  0.17202590528E+03 0.  0.
        -24    2    5    5    0    0  0.57885162157E+02  0.13033273742E+03  0.63488026003E+03  0.65506171993E+03  0.75469185100E+02 0.  0.
          5    1    3    3  501    0 -0.90436431265E+01 -0.13342880647E+03  0.28567444515E+03  0.31546317137E+03  0.47000000000E+01 0. -1.
        -11    1    4    4    0    0  0.16532850871E+02 -0.37505640426E+02  0.66385347984E+02  0.78019373547E+02  0.00000000000E+00 0.  1.
         12    1    4    4    0    0 -0.12961141043E+02  0.38100477280E+02  0.57972002970E+02  0.70571883031E+02  0.00000000000E+00 0. -1.
         -5    1    5    5    0  502 -0.52413228858E+02  0.25012321954E+01  0.13459950556E+03  0.14454244920E+03  0.47000000000E+01 0.  1.
         11    1    6    6    0    0 -0.97374677842E+01  0.56844896588E+02  0.16810949711E+03  0.17772721673E+03  0.00000000000E+00 0. -1.
        -12    1    6    6    0    0  0.67622629942E+02  0.73487840832E+02  0.46677076292E+03  0.47733450321E+03  0.00000000000E+00 0.  1.
</event>
<event>
12    1  0.8052519E-002  0.2402508E+03  0.7818608E-02  0.1119883E+00
         21   -1    0    0  503  502  0.00000000000E+00  0.00000000000E+00  0.40477178649E+02  0.40477178649E+02  0.00000000000E+00 0. -1.
         21   -1    0    0  501  503 -0.00000000000E+00 -0.00000000000E+00 -0.17009082506E+04  0.17009082506E+04  0.00000000000E+00 0.  1.
          6    2    1    2  501    0  0.16583789706E+03  0.27954121059E+02 -0.47217685609E+03  0.52908657323E+03  0.16940477433E+03 0.  0.
         24    2    3    3    0    0  0.90832082140E+02 -0.11646978613E+02 -0.39839109513E+03  0.41656747314E+03  0.80167797388E+02 0.  0.
         -6    2    1    2    0  502 -0.16583789706E+03 -0.27954121059E+02 -0.11882542159E+04  0.12122988561E+04  0.17157154134E+03 0.  0.
        -24    2    5    5    0    0 -0.64453708088E+02  0.49778825333E+02 -0.61526748676E+03  0.62522386382E+03  0.75621344175E+02 0.  0.
          5    1    3    3  501    0  0.75005814918E+02  0.39601099672E+02 -0.73785760952E+02  0.11251910009E+03  0.47000000000E+01 0. -1.
        -13    1    4    4    0    0  0.30637821998E+02 -0.43736268786E+02 -0.18315499609E+03  0.19078073786E+03  0.00000000000E+00 0.  1.
         14    1    4    4    0    0  0.60194260143E+02  0.32089290173E+02 -0.21523609904E+03  0.22578673528E+03  0.00000000000E+00 0. -1.
         -5    1    5    5    0  502 -0.10138418897E+03 -0.77732946391E+02 -0.57298672915E+03  0.58707499224E+03  0.47000000000E+01 0.  1.
         11    1    6    6    0    0  0.13449472823E+02  0.26610544341E+02 -0.17291311653E+03  0.17546496874E+03  0.00000000000E+00 0. -1.
        -12    1    6    6    0    0 -0.77903180911E+02  0.23168280992E+02 -0.44235437023E+03  0.44975889508E+03  0.00000000000E+00 0.  1.
</event>
<event>
12    1  0.8052519E-002  0.2026890E+03  0.7818608E-02  0.1147515E+00
         21   -1    0    0  503  502  0.00000000000E+00  0.00000000000E+00  0.12608460125E+03  0.12608460125E+03  0.00000000000E+00 0. -1.
         21   -1    0    0  501  503 -0.00000000000E+00 -0.00000000000E+00 -0.35142211647E+03  0.35142211647E+03  0.00000000000E+00 0. -1.
          6    2    1    2  501    0  0.15802807769E+02  0.10588002500E+03 -0.17730819895E+03  0.26920486875E+03  0.17196730944E+03 0.  0.
         24    2    3    3    0    0 -0.17846658146E+02  0.39718310543E+01 -0.24109723465E+02  0.82096799867E+02  0.76317279392E+02 0.  0.
         -6    2    1    2    0  502 -0.15802807769E+02 -0.10588002500E+03 -0.48029316269E+02  0.20830184897E+03  0.17211198865E+03 0.  0.
        -24    2    5    5    0    0 -0.31640032660E+02 -0.55299513328E+02  0.36160722317E+02  0.10870637492E+03  0.80314072675E+02 0.  0.
          5    1    3    3  501    0  0.33649465915E+02  0.10190819395E+03 -0.15319847548E+03  0.18710806888E+03  0.47000000000E+01 0. -1.
        -13    1    4    4    0    0 -0.23348960716E+02  0.33455010687E+02  0.39976178088E+01  0.40992592681E+02  0.00000000000E+00 0.  1.
         14    1    4    4    0    0  0.55023025702E+01 -0.29483179633E+02 -0.28107341274E+02  0.41104207185E+02  0.00000000000E+00 0. -1.
         -5    1    5    5    0  502  0.15837224891E+02 -0.50580511676E+02 -0.84190038586E+02  0.99595474047E+02  0.47000000000E+01 0.  1.
         11    1    6    6    0    0 -0.23775397396E+02 -0.72654304825E+02  0.11134128893E+02  0.77252096135E+02  0.00000000000E+00 0. -1.
        -12    1    6    6    0    0 -0.78646352645E+01  0.17354791497E+02  0.25026593424E+02  0.31454278790E+02  0.00000000000E+00 0.  1.
</event>
<event>
12    1  0.8052519E-002  0.1755969E+03  0.7818608E-02  0.1172916E+00
         21   -1    0    0  503  502  0.00000000000E+00  0.00000000000E+00  0.24805243898E+04  0.24805243898E+04  0.00000000000E+00 0. -1.
         21   -1    0    0  501  503 -0.00000000000E+00 -0.00000000000E+00 -0.16734445645E+02  0.16734445645E+02  0.00000000000E+00 0. -1.
          6    2    1    2  501    0 -0.31417174659E+02 -0.15458700485E+02  0.57480072438E+03  0.60012559216E+03  0.16890483514E+03 0.  0.
         24    2    3    3    0    0  0.36949881775E+02 -0.14537170232E+01  0.43207395281E+03  0.44118152876E+03  0.81153148842E+02 0.  0.
         -6    2    1    2    0  502  0.31417174659E+02  0.15458700485E+02  0.18889892198E+04  0.18971332433E+04  0.17207050898E+03 0.  0.
        -24    2    5    5    0    0  0.65803594580E+02 -0.34384768976E+02  0.14616839104E+04  0.14655330640E+04  0.75860941241E+02 0.  0.
          5    1    3    3  501    0 -0.68367056434E+02 -0.14004983461E+02  0.14272677157E+03  0.15894406340E+03  0.47000000000E+01 0. -1.
        -11    1    4    4    0    0  0.13277166130E+02  0.31112290377E+02  0.32555680721E+03  0.32730947508E+03  0.00000000000E+00 0.  1.
         12    1    4    4    0    0  0.23672715645E+02 -0.32566007400E+02  0.10651714560E+03  0.11387205368E+03  0.00000000000E+00 0. -1.
         -5    1    5    5    0  502 -0.34386419922E+02  0.49843469461E+02  0.42730530935E+03  0.43160017924E+03  0.47000000000E+01 0.  1.
         11    1    6    6    0    0  0.42879719170E+02 -0.10672355556E+02  0.12872674840E+04  0.12880256771E+04  0.00000000000E+00 0. -1.
        -12    1    6    6    0    0  0.22923875411E+02 -0.23712413420E+02  0.17441642642E+03  0.17750738694E+03  0.00000000000E+00 0.  1.
</event>
<event>
12    1  0.8052519E-002  0.2173539E+03  0.7818608E-02  0.1137402E+00
         21   -1    0    0  501  502  0.00000000000E+00  0.00000000000E+00  0.41119335819E+03  0.41119335819E+03  0.00000000000E+00 0. -1.
         21   -1    0    0  502  503 -0.00000000000E+00 -0.00000000000E+00 -0.11622079201E+03  0.11622079201E+03  0.00000000000E+00 0. -1.
         -6    2    1    2    0  503  0.11330258983E+03 -0.68036457814E+02  0.87620390728E+02  0.22701834028E+03  0.16246094145E+03 0.  0.
        -24    2    3    3    0    0  0.11335754793E+03 -0.84715370883E+02  0.27092507327E+02  0.16405879906E+03  0.78451627512E+02 0.  0.
          6    2    1    2  501    0 -0.11330258983E+03  0.68036457814E+02  0.20735217545E+03  0.30039580993E+03  0.17255805256E+03 0.  0.
         24    2    5    5    0    0 -0.92228848380E+02 -0.11429612170E+02  0.17026447415E+03  0.21008220937E+03  0.80670608211E+02 0.  0.
          5    1    5    5  501    0 -0.21073741448E+02  0.79466069985E+02  0.37087701297E+02  0.90313600554E+02  0.47000000000E+01 0. -1.
        -13    1    6    6    0    0  0.10144974319E+02 -0.16495465004E+02  0.38965787718E+02  0.43512681854E+02  0.00000000000E+00 0.  1.
         14    1    6    6    0    0 -0.10237382270E+03  0.50658528332E+01  0.13129868643E+03  0.16656952752E+03  0.00000000000E+00 0. -1.
         -5    1    3    3    0  503 -0.54958098621E-01  0.16678913069E+02  0.60527883402E+02  0.62959541220E+02  0.47000000000E+01 0.  1.
         13    1    4    4    0    0  0.43783147284E+02 -0.68776965000E+02  0.41125669363E+02  0.91315691868E+02  0.00000000000E+00 0. -1.
        -14    1    4    4    0    0  0.69574400643E+02 -0.15938405883E+02 -0.14033162037E+02  0.72743107190E+02  0.00000000000E+00 0.  1.
</event>
<event>
12    1  0.8052519E-002  0.2326391E+03  0.7818608E-02  0.1125630E+00
         21   -1    0    0  503  502  0.00000000000E+00  0.00000000000E+00  0.54466518218E+03  0.54466518218E+03  0.00000000000E+00 0.  1.
         21   -1    0    0  501  503 -0.00000000000E+00 -0.00000000000E+00 -0.10870645337E+03  0.10870645337E+03  0.00000000000E+00 0.  1.
          6    2    1    2  501    0 -0.10371073363E+03 -0.11728889183E+03  0.11438506347E+03  0.25923906604E+03  0.17207077090E+03 0.  0.
         24    2    3    3    0    0 -0.13471769031E+03 -0.58689842840E+02  0.94777765274E+02  0.18994392878E+03  0.74178956268E+02 0.  0.
         -6    2    1    2    0  502  0.10371073363E+03  0.11728889183E+03  0.32157366534E+03  0.39413256951E+03  0.16558459981E+03 0.  0.
        -24    2    5    5    0    0  0.11280146693E+03  0.14146114472E+03  0.30464778478E+03  0.36289933923E+03  0.78423409977E+02 0.  0.
          5    1    3    3  501    0  0.31006956683E+02 -0.58599048992E+02  0.19607298192E+02  0.69295137260E+02  0.47000000000E+01 0. -1.
        -11    1    4    4    0    0 -0.13887825512E+03 -0.57580790302E+02  0.71874296848E+02  0.16663922619E+03  0.00000000000E+00 0.  1.
         12    1    4    4    0    0  0.41605648024E+01 -0.11090525380E+01  0.22903468426E+02  0.23304702593E+02  0.00000000000E+00 0. -1.
         -5    1    5    5    0  502 -0.90907333024E+01 -0.24172252886E+02  0.16925880559E+02  0.31233230288E+02  0.47000000000E+01 0.  1.
         13    1    6    6    0    0 -0.55077449297E+01 -0.23540659512E+00 -0.12196780368E+01  0.56460858113E+01  0.00000000000E+00 0. -1.
        -14    1    6    6    0    0  0.11830921186E+03  0.14169655131E+03  0.30586746281E+03  0.35725325341E+03  0.00000000000E+00 0.  1.
</event>
<event>
12    1  0.8052519E-002  0.1930465E+03  0.7818608E-02  0.1156082E+00
         21   -1    0    0  503  502  0.00000000000E+00  0.00000000000E+00  0.43329805335E+02  0.43329805335E+02  0.00000000000E+00 0.  1.
         21   -1    0    0  501  503 -0.00000000000E+00 -0.00000000000E+00 -0.94237386498E+03  0.94237386498E+03  0.00000000000E+00 0.  1.
          6    2    1    2  501    0 -0.83403034118E+02  0.19699398370E+02 -0.29634474186E+03  0.35284237623E+03  0.17126997414E+03 0.  0.
         24    2    3    3    0    0 -0.16929012092E+02 -0.41207907746E+02 -0.20118014754E+03  0.22166735744E+03  0.81720759173E+02 0.  0.
         -6    2    1    2    0  502  0.83403034118E+02 -0.19699398370E+02 -0.60269931778E+03  0.63286129408E+03  0.17298213056E+03 0.  0.
        -24    2    5    5    0    0  0.71172527514E+02 -0.65723812273E+02 -0.53714603088E+03  0.55170000165E+03  0.80385851661E+02 0.  0.
          5    1    3    3  501    0 -0.66474022026E+02  0.60907306116E+02 -0.95164594323E+02  0.13117501879E+03  0.47000000000E+01 0. -1.
        -11    1    4    4    0    0 -0.30259413178E+02  0.75176032622E+01 -0.30300457528E+02  0.43477168389E+02  0.00000000000E+00 0.  1.
         12    1    4    4    0    0  0.13330401086E+02 -0.48725511008E+02 -0.17087969001E+03  0.17819018905E+03  0.00000000000E+00 0. -1.
         -5    1    5    5    0  502  0.12230506603E+02  0.46024413903E+02 -0.65553286899E+02  0.81161292437E+02  0.47000000000E+01 0.  1.
         13    1    6    6    0    0 -0.15036563709E+02 -0.27333828629E+02 -0.11719178252E+03  0.12127304039E+03  0.00000000000E+00 0. -1.
        -14    1    6    6    0    0  0.86209091224E+02 -0.38389983644E+02 -0.41995424837E+03  0.43042696125E+03  0.00000000000E+00 0.  1.
</event>
<event>
12    1  0.8052519E-002  0.2235543E+03  0.7818608E-02  0.1131385E+00
         21   -1    0    0  503  502  0.00000000000E+00  0.00000000000E+00  0.28663037634E+03  0.28663037634E+03  0.00000000000E+00 0. -1.
         21   -1    0    0  501  503 -0.00000000000E+00 -0.00000000000E+00 -0.21030645799E+03  0.21030645799E+03  0.00000000000E+00 0.  1.
          6    2    1    2  501    0  0.90952170505E+02  0.10947834783E+03  0.14159562126E+03  0.26404861664E+03  0.17150669382E+03 0.  0.
         24    2    3    3    0    0  0.10683950653E+03  0.91352370585E+02  0.61534768816E+02  0.18030622241E+03  0.94677718084E+02 0.  0.
         -6    2    1    2    0  502 -0.90952170505E+02 -0.10947834783E+03 -0.65271702902E+02  0.23288821770E+03  0.17239118533E+03 0.  0.
        -24    2    5    5    0    0 -0.60371579415E+02 -0.85856853770E+02  0.24676262693E+02  0.13487865669E+03  0.81038306687E+02 0.  0.
          5    1    3    3  501    0 -0.15887336022E+02  0.18125977246E+02  0.80060852439E+02  0.83742394224E+02  0.47000000000E+01 0. -1.
        -11    1    4    4    0    0  0.33930845950E+02  0.73007787507E+02  0.67261503786E+02  0.10490733642E+03  0.00000000000E+00 0.  1.
         12    1    4    4    0    0  0.72908660578E+02  0.18344583078E+02 -0.57267349700E+01  0.75398885993E+02  0.00000000000E+00 0. -1.
         -5    1    5    5    0  502 -0.30580591090E+02 -0.23621494061E+02 -0.89947965595E+02  0.98009561001E+02  0.47000000000E+01 0.  1.
         13    1    6    6    0    0 -0.53549408823E+02 -0.25849308156E+02 -0.16589557636E+02  0.61732806028E+02  0.00000000000E+00 0. -1.
        -14    1    6    6    0    0 -0.68221705918E+01 -0.60007545614E+02  0.41265820329E+02  0.73145850666E+02  0.00000000000E+00 0.  1.
</event>
<event>
12    1  0.8052519E-002  0.2637056E+03  0.7818608E-02  0.1106168E+00
         21   -1    0    0  501  502  0.00000000000E+00  0.00000000000E+00  0.67226434959E+03  0.67226434959E+03  0.00000000000E+00 0. -1.
         21   -1    0    0  502  503 -0.00000000000E+00 -0.00000000000E+00 -0.11199614564E+03  0.11199614564E+03  0.00000000000E+00 0. -1.
         -6    2    1    2    0  503  0.15365578373E+03  0.11418590133E+03  0.41108368767E+03  0.48839578933E+03  0.18136187260E+03 0.  0.
        -24    2    3    3    0    0  0.16335252349E+03  0.99556143211E+02  0.24128170348E+03  0.31762442048E+03  0.77929066923E+02 0.  0.
          6    2    1    2  501    0 -0.15365578373E+03 -0.11418590133E+03  0.14918451628E+03  0.29586470590E+03  0.16920810963E+03 0.  0.
         24    2    5    5    0    0 -0.66970988431E+02 -0.55872609535E+02  0.11594758559E+02  0.12304189153E+03  0.86011666990E+02 0.  0.
          5    1    5    5  501    0 -0.86684795299E+02 -0.58313291798E+02  0.13758975772E+03  0.17282281437E+03  0.47000000000E+01 0. -1.
        -11    1    6    6    0    0  0.15879219198E+02 -0.28962765245E+02  0.14055394747E+02  0.35896315890E+02  0.00000000000E+00 0.  1.
         12    1    6    6    0    0 -0.82850207628E+02 -0.26909844290E+02 -0.24606361885E+01  0.87145575643E+02  0.00000000000E+00 0. -1.
         -5    1    3    3    0  503 -0.96967397561E+01  0.14629758122E+02  0.16980198419E+03  0.17077136885E+03  0.47000000000E+01 0.  1.
         11    1    4    4    0    0  0.43782623228E-01  0.26139597989E+02  0.44209760968E+02  0.51359356156E+02  0.00000000000E+00 0. -1.
        -12    1    4    4    0    0  0.16330874086E+03  0.73416545222E+02  0.19707194251E+03  0.26626506432E+03  0.00000000000E+00 0.  1.
</event>
<event>
12    1  0.8052519E-002  0.3225121E+03  0.7818608E-02  0.1074686E+00
         21   -1    0    0  503  502  0.00000000000E+00  0.00000000000E+00  0.11529564995E+04  0.11529564995E+04  0.00000000000E+00 0.  1.
         21   -1    0    0  501  503 -0.00000000000E+00 -0.00000000000E+00 -0.16434434578E+03  0.16434434578E+03  0.00000000000E+00 0. -1.
          6    2    1    2  501    0 -0.24869510444E+03  0.10454186663E+03  0.49905430818E+02  0.32473631579E+03  0.17373792308E+03 0.  0.
         24    2    3    3    0    0 -0.10349392172E+03 -0.12233399835E+02 -0.51288597184E+01  0.13038943659E+03  0.78194961897E+02 0.  0.
         -6    2    1    2    0  502  0.24869510444E+03 -0.10454186663E+03  0.93870672291E+03  0.99256452949E+03  0.17673646121E+03 0.  0.
        -24    2    5    5    0    0  0.19373774913E+03 -0.92883446103E+02  0.55149985000E+03  0.60127501762E+03  0.10591464616E+03 0.  0.
          5    1    3    3  501    0 -0.14520118272E+03  0.11677526646E+03  0.55034290537E+02  0.19434687920E+03  0.47000000000E+01 0. -1.
        -11    1    4    4    0    0 -0.10361224662E+03 -0.17480790619E+01  0.17829603683E+02  0.10514964669E+03  0.00000000000E+00 0.  1.
         12    1    4    4    0    0  0.11832489951E+00 -0.10485320773E+02 -0.22958463401E+02  0.25239789901E+02  0.00000000000E+00 0. -1.
         -5    1    5    5    0  502  0.54957355315E+02 -0.11658420526E+02  0.38720687290E+03  0.39128951187E+03  0.47000000000E+01 0.  1.
         13    1    6    6    0    0 -0.65194791440E+01  0.85700910343E+01  0.85619658763E+01  0.13757082842E+02  0.00000000000E+00 0. -1.
        -14    1    6    6    0    0  0.20025722827E+03 -0.10145353714E+03  0.54293788413E+03  0.58751793478E+03  0.00000000000E+00 0.  1.
</event>
<event>
12    1  0.8052519E-002  0.1759673E+03  0.7818608E-02  0.1172388E+00
         21   -1    0    0  503  502  0.00000000000E+00  0.00000000000E+00  0.86305272031E+02  0.86305272031E+02  0.00000000000E+00 0. -1.
         21   -1    0    0  501  503 -0.00000000000E+00 -0.00000000000E+00 -0.41872721203E+03  0.41872721203E+03  0.00000000000E+00 0. -1.
          6    2    1    2  501    0  0.37464688000E+02  0.23196787519E+01 -0.26669492371E+03  0.31951631840E+03  0.17191716504E+03 0.  0.
         24    2    3    3    0    0  0.31239727464E+02 -0.10847440523E+02 -0.28416529719E+03  0.29629074815E+03  0.77101905138E+02 0.  0.
         -6    2    1    2    0  502 -0.37464688000E+02 -0.23196787519E+01 -0.65727016288E+02  0.18551616566E+03  0.16937303001E+03 0.  0.
        -24    2    5    5    0    0 -0.91155005056E+02  0.10463399543E+01 -0.37054696583E+02  0.12437557239E+03  0.76065121412E+02 0.  0.
          5    1    3    3  501    0  0.62249605356E+01  0.13167119275E+02  0.17470373482E+02  0.23225570246E+02  0.47000000000E+01 0. -1.
        -11    1    4    4    0    0 -0.13243155603E+02 -0.27699196999E+02 -0.63193088559E+02  0.70256623363E+02  0.00000000000E+00 0.  1.
         12    1    4    4    0    0  0.44482883067E+02  0.16851756476E+02 -0.22097220863E+03  0.22603412479E+03  0.00000000000E+00 0. -1.
         -5    1    5    5    0  502  0.53690317056E+02 -0.33660187062E+01 -0.28672319704E+02  0.61140593265E+02  0.47000000000E+01 0.  1.
         11    1    6    6    0    0 -0.26423865246E+02 -0.25119735274E+02 -0.40472362496E+02  0.54472322153E+02  0.00000000000E+00 0. -1.
        -12    1    6    6    0    0 -0.64731139810E+02  0.26166075229E+02  0.34176659125E+01  0.69903250241E+02  0.00000000000E+00 0.  1.
</event>
<event>
12    1  0.8052519E-002  0.2124682E+03  0.7818608E-02  0.1139757E+00
         21   -1    0    0  501  502  0.00000000000E+00  0.00000000000E+00  0.86831510512E+03  0.86831510512E+03  0.00000000000E+00 0.  1.
         21   -1    0    0  502  503 -0.00000000000E+00 -0.00000000000E+00 -0.66757738144E+02  0.66757738144E+02  0.00000000000E+00 0.  1.
         -6    2    1    2    0  503 -0.63425783044E+02 -0.10554411601E+03  0.18014827565E+03  0.27856080110E+03  0.17314828418E+03 0.  0.
        -24    2    3    3    0    0  0.15471900001E+02 -0.33922901487E+02  0.13747489883E+03  0.16368021158E+03  0.80633249476E+02 0.  0.
          6    2    1    2  501    0  0.63425783044E+02  0.10554411601E+03  0.62140909133E+03  0.65651204216E+03  0.17232647022E+03 0.  0.
         24    2    5    5    0    0 -0.14069967387E+02  0.32547397184E+02  0.41478465634E+03  0.42402578574E+03  0.80586964122E+02 0.  0.
          5    1    5    5  501    0  0.77495750431E+02  0.72996718821E+02  0.20662443498E+03  0.23248625642E+03  0.47000000000E+01 0. -1.
        -13    1    6    6    0    0 -0.82762397817E+00  0.45869700645E+02  0.39117131174E+03  0.39385239561E+03  0.00000000000E+00 0.  1.
         14    1    6    6    0    0 -0.13242343409E+02 -0.13322303460E+02  0.23613344603E+02  0.30173390128E+02  0.00000000000E+00 0. -1.
         -5    1    3    3    0  503 -0.78897683045E+02 -0.71621214518E+02  0.42673376819E+02  0.11488058952E+03  0.47000000000E+01 0.  1.
         13    1    4    4    0    0  0.25114608312E+01 -0.43018462039E+02  0.14101806009E+03  0.14745503987E+03  0.00000000000E+00 0. -1.
        -14    1    4    4    0    0  0.12960439169E+02  0.90955605513E+01 -0.35431612659E+01  0.16225171708E+02  0.00000000000E+00 0.  1.
</event>
<event>
12    1  0.8052519E-002  0.1935930E+03  0.7818608E-02  0.1155302E+00
         21   -1    0    0  503  502  0.00000000000E+00  0.00000000000E+00  0.50625601914E+02  0.50625601914E+02  0.00000000000E+00 0.  1.
         21   -1    0    0  501  503 -0.00000000000E+00 -0.00000000000E+00 -0.81679416867E+03  0.81679416867E+03  0.00000000000E+00 0. -1.
          6    2    1    2  501    0 -0.40685993155E+02  0.78762565718E+02 -0.51627206180E+03  0.55130823181E+03  0.17188668614E+03 0.  0.
         24    2    3    3    0    0 -0.90430608732E+02  0.59712146555E+02 -0.40350792704E+03  0.42650724889E+03  0.85712022115E+02 0.  0.
         -6    2    1    2    0  502  0.40685993155E+02 -0.78762565718E+02 -0.24989650496E+03  0.31611153877E+03  0.17210273082E+03 0.  0.
        -24    2    5    5    0    0  0.10965058974E+02 -0.96571373589E+01 -0.22054878091E+03  0.23522721975E+03  0.80477247266E+02 0.  0.
          5    1    3    3  501    0  0.49744615577E+02  0.19050419162E+02 -0.11276413476E+03  0.12480098292E+03  0.47000000000E+01 0. -1.
        -11    1    4    4    0    0 -0.61287218522E+01  0.45770756450E+02 -0.84969871257E+02  0.96707819740E+02  0.00000000000E+00 0.  1.
         12    1    4    4    0    0 -0.84301886880E+02  0.13941390106E+02 -0.31853805578E+03  0.32979942915E+03  0.00000000000E+00 0. -1.
         -5    1    5    5    0  502  0.29720934181E+02 -0.69105428359E+02 -0.29347724044E+02  0.80884319023E+02  0.47000000000E+01 0.  1.
         11    1    6    6    0    0 -0.62043735698E+01 -0.33640859130E+02 -0.18886901352E+03  0.19194193373E+03  0.00000000000E+00 0. -1.
        -12    1    6    6    0    0  0.17169432543E+02  0.23983721771E+02 -0.31679767392E+02  0.43285286020E+02  0.00000000000E+00 0.  1.
</event>
<event>
12    1  0.8052519E-002  0.2846004E+03  0.7818608E-02  0.1094401E+00
         21   -1    0    0  501  502  0.00000000000E+00  0.00000000000E+00  0.16143408236E+04  0.16143408236E+04  0.00000000000E+00 0. -1.
         21   -1    0    0  502  503 -0.00000000000E+00 -0.00000000000E+00 -0.59996206573E+02  0.59996206573E+02  0.00000000000E+00 0.  1.
         -6    2    1    2    0  503  0.95721530541E+02 -0.19018727942E+03  0.11513992600E+04  0.11860512758E+04  0.18884798201E+03 0.  0.
        -24    2    3    3    0    0  0.99514473250E+02 -0.21824930520E+03  0.10780951802E+04  0.11073274432E+04  0.79680357313E+02 0.  0.
          6    2    1    2  501    0 -0.95721530541E+02  0.19018727942E+03  0.40294535705E+03  0.48828575436E+03  0.17528321221E+03 0.  0.
         24    2    5    5    0    0  0.16993076255E+02  0.11033301654E+03  0.21647727334E+03  0.25617861934E+03  0.79391031958E+02 0.  0.
          5    1    5    5  501    0 -0.11271460680E+03  0.79854262881E+02  0.18646808371E+03  0.23210713502E+03  0.47000000000E+01 0. -1.
        -13    1    6    6    0    0 -0.48068518547E+01  0.10936534247E+03  0.14653203431E+03  0.18290850455E+03  0.00000000000E+00 0.  1.
         14    1    6    6    0    0  0.21799928110E+02  0.96767407559E+00  0.69945239029E+02  0.73270114791E+02  0.00000000000E+00 0. -1.
         -5    1    3    3    0  503 -0.37929427092E+01  0.28062025775E+02  0.73304079790E+02  0.78723832597E+02  0.47000000000E+01 0.  1.
         13    1    4    4    0    0  0.46201801281E+02 -0.12822463162E+03  0.76953249716E+03  0.78150907018E+03  0.00000000000E+00 0. -1.
        -14    1    4    4    0    0  0.53312671969E+02 -0.90024673579E+02  0.30856268304E+03  0.32581837304E+03  0.00000000000E+00 0.  1.
</event>
<event>
12    1  0.8052519E-002  0.1749073E+03  0.7818608E-02  0.1172840E+00
         21   -1    0    0  501  502  0.00000000000E+00  0.00000000000E+00  0.46825377068E+03  0.46825377068E+03  0.00000000000E+00 0. -1.
         21   -1    0    0  502  503 -0.00000000000E+00 -0.00000000000E+00 -0.17150207325E+03  0.17150207325E+03  0.00000000000E+00 0. -1.
         -6    2    1    2    0  503 -0.13087458787E+02 -0.30098847263E+02 -0.10333921710E+03  0.20310345251E+03  0.17174049158E+03 0.  0.
        -24    2    3    3    0    0  0.25843760344E+02 -0.46990626162E+01 -0.12587899217E+03  0.15122937090E+03  0.79591587595E+02 0.  0.
          6    2    1    2  501    0  0.13087458787E+02  0.30098847263E+02  0.40009091454E+03  0.43665239142E+03  0.17180031679E+03 0.  0.
         24    2    5    5    0    0  0.44345551092E+02  0.43558728076E+00  0.37713781474E+03  0.38760229338E+03  0.77690983293E+02 0.  0.
          5    1    5    5  501    0 -0.31258092305E+02  0.29663259982E+02  0.22953099798E+02  0.49050098039E+02  0.47000000000E+01 0. -1.
        -11    1    6    6    0    0  0.38202850306E+02  0.32856541788E+02  0.15390134952E+03  0.16194022198E+03  0.00000000000E+00 0.  1.
         12    1    6    6    0    0  0.61427007860E+01 -0.32420954507E+02  0.22323646522E+03  0.22566207140E+03  0.00000000000E+00 0. -1.
         -5    1    3    3    0  503 -0.38931219131E+02 -0.25399784647E+02  0.22539775065E+02  0.51874081612E+02  0.47000000000E+01 0.  1.
         13    1    4    4    0    0  0.37234614387E+02 -0.32687621781E+02 -0.99346764593E+02  0.11101656075E+03  0.00000000000E+00 0. -1.
        -14    1    4    4    0    0 -0.11390854044E+02  0.27988559165E+02 -0.26532227576E+02  0.40212810149E+02  0.00000000000E+00 0.  1.
</event>
<event>
12    1  0.8052519E-002  0.1759101E+03  0.7818608E-02  0.1172310E+00
         21   -1    0    0  501  502  0.00000000000E+00  0.00000000000E+00  0.33434773242E+02  0.33434773242E+02  0.00000000000E+00 0. -1.
         21   -1    0    0  502  503 -0.00000000000E+00 -0.00000000000E+00 -0.91962492783E+03  0.91962492783E+03  0.00000000000E+00 0. -1.
         -6    2    1    2    0  503  0.27657953026E+01  0.25781529456E+02 -0.47827528681E+03  0.50959944660E+03  0.17398853158E+03 0.  0.
        -24    2    3    3    0    0  0.30666256880E+02  0.59555783902E+02 -0.21879421925E+03  0.24640436602E+03  0.91416029839E+02 0.  0.
          6    2    1    2  501    0 -0.27657953026E+01 -0.25781529456E+02 -0.40791486778E+03  0.44346025447E+03  0.17201779284E+03 0.  0.
         24    2    5    5    0    0 -0.59951392300E+02  0.17670777840E+02 -0.22585759464E+03  0.24769193166E+03  0.80207319642E+02 0.  0.
          5    1    5    5  501    0  0.57185596997E+02 -0.43452307296E+02 -0.18205727315E+03  0.19576832282E+03  0.47000000000E+01 0. -1.
        -11    1    6    6    0    0 -0.16498777371E+02  0.30118483571E+02 -0.18020632119E+03  0.18344931426E+03  0.00000000000E+00 0.  1.
         12    1    6    6    0    0 -0.43452614929E+02 -0.12447705730E+02 -0.45651273450E+02  0.64242617394E+02  0.00000000000E+00 0. -1.
         -5    1    3    3    0  503 -0.27900461577E+02 -0.33774254446E+02 -0.25948106756E+03  0.26319508058E+03  0.47000000000E+01 0.  1.
         13    1    4    4    0    0 -0.29955901195E+02  0.25705964773E+01 -0.61837959439E+02  0.68759706298E+02  0.00000000000E+00 0. -1.
        -14    1    4    4    0    0  0.60622158074E+02  0.56985187424E+02 -0.15695625981E+03  0.17764465973E+03  0.00000000000E+00 0.  1.
</event>
<event>
12    1  0.8052519E-002  0.1930961E+03  0.7818608E-02  0.1155762E+00
         21   -1    0    0  503  502  0.00000000000E+00  0.00000000000E+00  0.38970352364E+03  0.38970352364E+03  0.00000000000E+00 0. -1.
         21   -1    0    0  501  503 -0.00000000000E+00 -0.00000000000E+00 -0.38898138002E+03  0.38898138002E+03  0.00000000000E+00 0. -1.
          6    2    1    2  501    0  0.58586709203E+01  0.86366492751E+02 -0.33780694982E+03  0.38895674989E+03  0.17227978071E+03 0.  0.
         24    2    3    3    0    0 -0.17346099315E+02  0.22347592417E+02 -0.29732373106E+03  0.30959768007E+03  0.81541525655E+02 0.  0.
         -6    2    1    2    0  502 -0.58586709203E+01 -0.86366492751E+02  0.33852909345E+03  0.38972815377E+03  0.17260530593E+03 0.  0.
        -24    2    5    5    0    0  0.26515426990E+01 -0.78372480542E+02  0.10073066231E+03  0.15159686264E+03  0.81765922280E+02 0.  0.
          5    1    3    3  501    0  0.23204770236E+02  0.64018900334E+02 -0.40483218768E+02  0.79359069825E+02  0.47000000000E+01 0. -1.
        -13    1    4    4    0    0  0.11910567527E+02 -0.10780127826E+02 -0.10061662188E+02  0.18955469415E+02  0.00000000000E+00 0.  1.
         14    1    4    4    0    0 -0.29256666842E+02  0.33127720243E+02 -0.28726206887E+03  0.29064221065E+03  0.00000000000E+00 0. -1.
         -5    1    5    5    0  502 -0.85102136193E+01 -0.79940122086E+01  0.23779843113E+03  0.23813129113E+03  0.47000000000E+01 0.  1.
         13    1    6    6    0    0  0.16619920036E+02  0.86816020972E+01  0.41049131654E+02  0.45128961505E+02  0.00000000000E+00 0. -1.
        -14    1    6    6    0    0 -0.13968377337E+02 -0.87054082639E+02  0.59681530659E+02  0.10646790113E+03  0.00000000000E+00 0.  1.
</event>
<event>
12    1  0.8052519E-002  0.2292503E+03  0.7818608E-02  0.1127225E+00
         21   -1    0    0  501  502  0.00000000000E+00  0.00000000000E+00  0.65466000806E+03  0.65466000806E+03  0.00000000000E+00 0. -1.
         21   -1    0    0  502  503 -0.00000000000E+00 -0.00000000000E+00 -0.35207275564E+03  0.35207275564E+03  0.00000000000E+00 0. -1.
         -6    2    1    2    0  503 -0.10403434485E+01  0.15167696928E+03 -0.29104379488E+03  0.37048911955E+03  0.17189738753E+03 0.  0.
        -24    2    3    3    0    0  0.54211637142E+02  0.88762716414E+02 -0.24245499955E+03  0.27356675058E+03  0.72364485720E+02 0.  0.
          6    2    1    2  501    0  0.10403434485E+01 -0.15167696928E+03  0.59363104730E+03  0.63624364415E+03  0.17146769108E+03 0.  0.
         24    2    5    5    0    0  0.94592370203E+01 -0.17773181453E+03  0.45814331400E+03  0.49793692485E+03  0.79798558293E+02 0.  0.
          5    1    5    5  501    0 -0.84188935718E+01  0.26054845251E+02  0.13548773330E+03  0.13830671930E+03  0.47000000000E+01 0. -1.
        -11    1    6    6    0    0  0.21737818874E+02 -0.84739890204E+02  0.13033845626E+03  0.15697609672E+03  0.00000000000E+00 0.  1.
         12    1    6    6    0    0 -0.12278581854E+02 -0.92991924330E+02  0.32780485773E+03  0.34096082813E+03  0.00000000000E+00 0. -1.
         -5    1    3    3    0  503 -0.55251980591E+02  0.62914252870E+02 -0.48588795336E+02  0.96922368964E+02  0.47000000000E+01 0.  1.
         11    1    4    4    0    0  0.32001386381E+01  0.65038622117E+02 -0.16850617146E+03  0.18065047211E+03  0.00000000000E+00 0. -1.
        -12    1    4    4    0    0  0.51011498504E+02  0.23724094296E+02 -0.73948828087E+02  0.92916278473E+02  0.00000000000E+00 0.  1.
</event>
<event>
12    1  0.8052519E-002  0.2500562E+03  0.7818608E-02  0.1113513E+00
         21   -1    0    0  501  502  0.00000000000E+00  0.00000000000E+00  0.13415457241E+03  0.13415457241E+03  0.00000000000E+00 0.  1.
         21   -1    0    0  502  503 -0.00000000000E+00 -0.00000000000E+00 -0.49586714841E+03  0.49586714841E+03  0.00000000000E+00 0. -1.
         -6    2    1    2    0  503 -0.14201271792E+03  0.11342428589E+03 -0.26115805424E+03  0.36050486704E+03  0.16949203281E+03 0.  0.
        -24    2    3    3    0    0 -0.58375334397E+02  0.10895504295E+03 -0.22757392285E+03  0.27014353716E+03  0.76868454268E+02 0.  0.
          6    2    1    2  501    0  0.14201271792E+03 -0.11342428589E+03 -0.10055452177E+03  0.26951685378E+03  0.17174237084E+03 0.  0.
         24    2    5    5    0    0  0.16151289397E+03 -0.73473806670E+02 -0.52283835360E+02  0.20372592110E+03  0.85357110450E+02 0.  0.
          5    1    5    5  501    0 -0.19500176046E+02 -0.39950479219E+02 -0.48270686410E+02  0.65790932674E+02  0.47000000000E+01 0. -1.
        -13    1    6    6    0    0  0.53669390476E+02 -0.52794355492E+02  0.12376440316E+02  0.76294322991E+02  0.00000000000E+00 0.  1.
         14    1    6    6    0    0  0.10784350349E+03 -0.20679451179E+02 -0.64660275676E+02  0.12743159811E+03  0.00000000000E+00 0. -1.
         -5    1    3    3    0  503 -0.83637383527E+02  0.44692429364E+01 -0.33584131392E+02  0.90361329876E+02  0.47000000000E+01 0.  1.
         13    1    4    4    0    0  0.63646163126E+01  0.68470565122E+02 -0.97416053519E+02  0.11924183038E+03  0.00000000000E+00 0. -1.
        -14    1    4    4    0    0 -0.64739950710E+02  0.40484477831E+02 -0.13015786933E+03  0.15090170679E+03  0.00000000000E+00 0.  1.
</event>
<event>
12    1  0.8052519E-002  0.2896263E+03  0.7818608E-02  0.1090559E+00
         21   -1    0    0  501  502  0.00000000000E+00  0.00000000000E+00  0.44273878916E+03  0.44273878916E+03  0.00000000000E+00 0.  1.
         21   -1    0    0  502  503 -0.00000000000E+00 -0.00000000000E+00 -0.56541500022E+03  0.56541500022E+03  0.00000000000E+00 0. -1.
         -6    2    1    2    0  503 -0.16716477779E+03 -0.16164688345E+03 -0.47241720157E+03  0.55413119428E+03  0.17265454026E+03 0.  0.
        -24    2    3    3    0    0 -0.41574347471E+02 -0.18593859817E+02 -0.10088171480E+03  0.13664127622E+03  0.80122156697E+02 0.  0.
          6    2    1    2  501    0  0.16716477779E+03  0.16164688345E+03  0.34974099051E+03  0.45402259510E+03  0.17246442693E+03 0.  0.
         24    2    5    5    0    0  0.29033787395E+02  0.39389105327E+02  0.64155521788E+02  0.11401041184E+03  0.80548001859E+02 0.  0.
          5    1    5    5  501    0  0.13813099040E+03  0.12225777813E+03  0.28558546872E+03  0.34001218326E+03  0.47000000000E+01 0. -1.
        -13    1    6    6    0    0  0.10525790464E+02  0.60728571457E+02  0.58950829427E+02  0.85287466525E+02  0.00000000000E+00 0.  1.
         14    1    6    6    0    0  0.18507996931E+02 -0.21339466130E+02  0.52046923612E+01  0.28722945317E+02  0.00000000000E+00 0. -1.
         -5    1    3    3    0  503 -0.12559043032E+03 -0.14305302364E+03 -0.37153548676E+03  0.41748991806E+03  0.47000000000E+01 0.  1.
         13    1    4    4    0    0 -0.51414806138E+02 -0.41916159965E+02 -0.66327136821E+02  0.93806907183E+02  0.00000000000E+00 0. -1.
        -14    1    4    4    0    0  0.98404586666E+01  0.23322300148E+02 -0.34554577982E+02  0.42834369033E+02  0.00000000000E+00 0.  1.
</event>
<event>
12    1  0.8052519E-002  0.1847163E+03  0.7818608E-02  0.1165122E+00
         21   -1    0    0  503  502  0.00000000000E+00  0.00000000000E+00  0.11844901623E+04  0.11844901623E+04  0.00000000000E+00 0.  1.
         21   -1    0    0  501  503 -0.00000000000E+00 -0.00000000000E+00 -0.27641064890E+02  0.27641064890E+02  0.00000000000E+00 0.  1.
          6    2    1    2  501    0  0.23555665999E+02  0.52424748333E+02  0.56187803646E+03  0.58914594380E+03  0.16757920994E+03 0.  0.
         24    2    3    3    0    0  0.67840333582E+01 -0.16077856864E+02  0.15167566617E+03  0.17289845832E+03  0.81140918106E+02 0.  0.
         -6    2    1    2    0  502 -0.23555665999E+02 -0.52424748333E+02  0.59497106091E+03  0.62298528334E+03  0.17554736201E+03 0.  0.
        -24    2    5    5    0    0 -0.82864029751E+02 -0.31233486312E+02  0.35067226557E+03  0.37065505725E+03  0.81068832061E+02 0.  0.
          5    1    3    3  501    0  0.16771632641E+02  0.68502605196E+02  0.41020237028E+03  0.41624748548E+03  0.47000000000E+01 0. -1.
        -13    1    4    4    0    0  0.34091424430E+02  0.14948751214E+02  0.44425536701E+02  0.57959629862E+02  0.00000000000E+00 0.  1.
         14    1    4    4    0    0 -0.27307391072E+02 -0.31026608078E+02  0.10725012947E+03  0.11493882846E+03  0.00000000000E+00 0. -1.
         -5    1    5    5    0  502  0.59308363752E+02 -0.21191262020E+02  0.24429879533E+03  0.25233022609E+03  0.47000000000E+01 0.  1.
         11    1    6    6    0    0 -0.11909600614E+02  0.78454327870E+01  0.42399650610E+01  0.14878397297E+02  0.00000000000E+00 0. -1.
        -12    1    6    6    0    0 -0.70954429137E+02 -0.39078919099E+02  0.34643230051E+03  0.35577665996E+03  0.00000000000E+00 0.  1.
</event>
<event>
12    1  0.8052519E-002  0.3784568E+03  0.7818608E-02  0.1051569E+00
         21   -1    0    0  501  502  0.00000000000E+00  0.00000000000E+00  0.89380923469E+03  0.89380923469E+03  0.00000000000E+00 0.  1.
         21   -1    0    0  502  503 -0.00000000000E+00 -0.00000000000E+00 -0.27774928432E+03  0.27774928432E+03  0.00000000000E+00 0.  1.
         -6    2    1    2    0  503 -0.29262505853E+03  0.16586690218E+03 -0.73282667449E+02  0.38548659731E+03  0.17345983177E+03 0.  0.
        -24    2    3    3    0    0 -0.26662506163E+03  0.83358393224E+02 -0.39301813925E+02  0.29242509992E+03  0.77008189686E+02 0.  0.
          6    2    1    2  501    0  0.29262505853E+03 -0.16586690218E+03  0.68934261782E+03  0.78607192170E+03  0.17197257699E+03 0.  0.
         24    2    5    5    0    0  0.23801222444E+03 -0.66030286412E+02  0.42346779176E+03  0.49682907455E+03  0.80649494488E+02 0.  0.
          5    1    5    5  501    0  0.54612834088E+02 -0.99836615770E+02  0.26587482606E+03  0.28924284715E+03  0.47000000000E+01 0. -1.
        -13    1    6    6    0    0  0.14000690047E+03 -0.66797329584E+02  0.31175979591E+03  0.34822117363E+03  0.00000000000E+00 0.  1.
         14    1    6    6    0    0  0.98005323963E+02  0.76704317221E+00  0.11170799585E+03  0.14860790093E+03  0.00000000000E+00 0. -1.
         -5    1    3    3    0  503 -0.25999996899E+02  0.82508508958E+02 -0.33980853524E+02  0.93061497385E+02  0.47000000000E+01 0.  1.
         13    1    4    4    0    0 -0.10167983052E+03 -0.58538505754E+01 -0.21170945182E+02  0.10402530664E+03  0.00000000000E+00 0. -1.
        -14    1    4    4    0    0 -0.16494523111E+03  0.89212243799E+02 -0.18130868743E+02  0.18839979328E+03  0.00000000000E+00 0.  1.
</event>
<event>
12    1  0.8052519E-002  0.2590255E+03  0.7818608E-02  0.1107773E+00
         21   -1    0    0  503  502  0.00000000000E+00  0.00000000000E+00  0.10793557388E+04  0.10793557388E+04  0.00000000000E+00 0.  1.
         21   -1    0    0  501  503 -0.00000000000E+00 -0.00000000000E+00 -0.98370585236E+02  0.98370585236E+02  0.00000000000E+00 0.  1.
          6    2    1    2  501    0 -0.15297653602E+03  0.11673345091E+03  0.13271672743E+03  0.29079140065E+03  0.17296644131E+03 0.  0.
         24    2    3    3    0    0 -0.16399304578E+03  0.57286531311E+02  0.12730497732E+03  0.22990891732E+03  0.80474140433E+02 0.  0.
         -6    2    1    2    0  502  0.15297653602E+03 -0.11673345091E+03  0.84826842612E+03  0.88693492337E+03  0.17339468391E+03 0.  0.
        -24    2    5    5    0    0  0.12414251940E+02 -0.30953524095E+02  0.18597049248E+03  0.20445664939E+03  0.78136183051E+02 0.  0.
          5    1    3    3  501    0  0.11016509765E+02  0.59446919601E+02  0.54117501127E+01  0.60882483333E+02  0.47000000000E+01 0. -1.
        -13    1    4    4    0    0 -0.46351548754E+02  0.57021735982E+02  0.42532411365E+02  0.84905538469E+02  0.00000000000E+00 0.  1.
         14    1    4    4    0    0 -0.11764149703E+03  0.26479532976E+00  0.84772565951E+02  0.14500337885E+03  0.00000000000E+00 0. -1.
         -5    1    5    5    0  502  0.14056228408E+03 -0.85779926817E+02  0.66229793364E+03  0.68247827398E+03  0.47000000000E+01 0.  1.
         13    1    6    6    0    0  0.65990165569E+01  0.20709760815E+02  0.16782049828E+02  0.27460488141E+02  0.00000000000E+00 0. -1.
        -14    1    6    6    0    0  0.58152353834E+01 -0.51663284910E+02  0.16918844265E+03  0.17699616125E+03  0.00000000000E+00 0.  1.
</event>
<event>
12    1  0.8052519E-002  0.1851166E+03  0.7818608E-02  0.1163220E+00
         21   -1    0    0  503  502  0.00000000000E+00  0.00000000000E+00  0.79876441867E+03  0.79876441867E+03  0.00000000000E+00 0.  1.
         21   -1    0    0  501  503 -0.00000000000E+00 -0.00000000000E+00 -0.94711183769E+02  0.94711183769E+02  0.00000000000E+00 0. -1.
          6    2    1    2  501    0  0.14816408213E+02  0.64277988011E+02  0.21247766947E+02  0.18633200957E+03  0.17296521181E+03 0.  0.
         24    2    3    3    0    0  0.58852499478E+02  0.80292207555E+02  0.42842683656E+02  0.13452406627E+03  0.79691740944E+02 0.  0.
         -6    2    1    2    0  502 -0.14816408213E+02 -0.64277988011E+02  0.68280546795E+03  0.70714359287E+03  0.17169032636E+03 0.  0.
        -24    2    5    5    0    0 -0.15416420162E+02  0.18232236272E+02  0.51312441160E+03  0.51840555215E+03  0.69839632554E+02 0.  0.
          5    1    3    3  501    0 -0.44036091265E+02 -0.16014219544E+02 -0.21594916709E+02  0.51807943302E+02  0.47000000000E+01 0. -1.
        -13    1    4    4    0    0  0.63649682596E+02  0.27895001087E+02  0.43348162453E+02  0.81905289012E+02  0.00000000000E+00 0.  1.
         14    1    4    4    0    0 -0.47971831174E+01  0.52397206468E+02 -0.50547879649E+00  0.52618777260E+02  0.00000000000E+00 0. -1.
         -5    1    5    5    0  502  0.60001194970E+00 -0.82510224283E+02  0.16968105636E+03  0.18873804071E+03  0.47000000000E+01 0.  1.
         11    1    6    6    0    0 -0.23721322829E+02 -0.94999264342E+01  0.73240608170E+02  0.77570203327E+02  0.00000000000E+00 0. -1.
        -12    1    6    6    0    0  0.83049026671E+01  0.27732162706E+02  0.43988380343E+03  0.44083534882E+03  0.00000000000E+00 0.  1.
</event>
<event>
12    1  0.8052519E-002  0.2225168E+03  0.7818608E-02  0.1132070E+00
         21   -1    0    0  501  502  0.00000000000E+00  0.00000000000E+00  0.20442238313E+03  0.20442238313E+03  0.00000000000E+00 0. -1.
         21   -1    0    0  502  503 -0.00000000000E+00 -0.00000000000E+00 -0.48500061490E+03  0.48500061490E+03  0.00000000000E+00 0. -1.
         -6    2    1    2    0  503  0.13978165592E+03 -0.36398142014E+01 -0.38437213220E+03  0.44413475466E+03  0.17309414982E+03 0.  0.
        -24    2    3    3    0    0  0.11120423076E+03 -0.47311439793E+02 -0.35698707606E+03  0.38500852181E+03  0.78657714941E+02 0.  0.
          6    2    1    2  501    0 -0.13978165592E+03  0.36398142014E+01  0.10379390044E+03  0.24528824337E+03  0.17274544563E+03 0.  0.
         24    2    5    5    0    0 -0.69791268090E+00  0.21355917138E+02  0.46032689867E+02  0.93576030995E+02  0.78618717628E+02 0.  0.
          5    1    5    5  501    0 -0.13908374324E+03 -0.17716102937E+02  0.57761210573E+02  0.15171221237E+03  0.47000000000E+01 0. -1.
        -13    1    6    6    0    0 -0.16402022460E+02 -0.11771424379E+02 -0.13052745384E+02  0.24040942883E+02  0.00000000000E+00 0.  1.
         14    1    6    6    0    0  0.15704109779E+02  0.33127341517E+02  0.59085435251E+02  0.69535088111E+02  0.00000000000E+00 0. -1.
         -5    1    3    3    0  503  0.28577425163E+02  0.43671625592E+02 -0.27385056141E+02  0.59126232847E+02  0.47000000000E+01 0.  1.
         11    1    4    4    0    0  0.91195092400E+02 -0.81538415179E+01 -0.17182913806E+03  0.19470049485E+03  0.00000000000E+00 0. -1.
        -12    1    4    4    0    0  0.20009138356E+02 -0.39157598275E+02 -0.18515793800E+03  0.19030802696E+03  0.00000000000E+00 0.  1.
</event>
<event>
12    1  0.8052519E-002  0.2058686E+03  0.7818608E-02  0.1145541E+00
         21   -1    0    0  503  502  0.00000000000E+00  0.00000000000E+00  0.10561895183E+03  0.10561895183E+03  0.00000000000E+00 0. -1.
         21   -1    0    0  501  503 -0.00000000000E+00 -0.00000000000E+00 -0.41576984608E+03  0.41576984608E+03  0.00000000000E+00 0. -1.
          6    2    1    2  501    0  0.51348583849E+02 -0.91457461548E+02 -0.97986436705E+02  0.22799826516E+03  0.17714604936E+03 0.  0.
         24    2    3    3    0    0 -0.10655718111E+02 -0.11455947799E+03 -0.73669227635E+02  0.15734663191E+03  0.78060163640E+02 0.  0.
         -6    2    1    2    0  502 -0.51348583849E+02  0.91457461548E+02 -0.21216445754E+03  0.29339053275E+03  0.17338714868E+03 0.  0.
        -24    2    5    5    0    0 -0.57035912285E+02 -0.13152121050E+02 -0.97011463544E+02  0.13764133531E+03  0.78152668213E+02 0.  0.
          5    1    3    3  501    0  0.62004301960E+02  0.23102016438E+02 -0.24317209070E+02  0.70651633257E+02  0.47000000000E+01 0. -1.
        -13    1    4    4    0    0 -0.28254166347E+02 -0.55949998988E+02 -0.72908210718E+02  0.96147321818E+02  0.00000000000E+00 0.  1.
         14    1    4    4    0    0  0.17598448236E+02 -0.58609478997E+02 -0.76101691738E+00  0.61199310089E+02  0.00000000000E+00 0. -1.
         -5    1    5    5    0  502  0.56873284362E+01  0.10460958260E+03 -0.11515299400E+03  0.15574919744E+03  0.47000000000E+01 0.  1.
         13    1    6    6    0    0 -0.31313608133E+01 -0.16696176953E+02 -0.78835023497E+02  0.80644458428E+02  0.00000000000E+00 0. -1.
        -14    1    6    6    0    0 -0.53904551472E+02  0.35440559029E+01 -0.18176440048E+02  0.56996876883E+02  0.00000000000E+00 0.  1.
</event>
<event>
12    1  0.8052519E-002  0.1766590E+03  0.7818608E-02  0.1173354E+00
         21   -1    0    0  503  502  0.00000000000E+00  0.00000000000E+00  0.53606667355E+03  0.53606667355E+03  0.00000000000E+00 0.  1.
         21   -1    0    0  501  503 -0.00000000000E+00 -0.00000000000E+00 -0.55722357524E+02  0.55722357524E+02  0.00000000000E+00 0.  1.
          6    2    1    2  501    0 -0.30468944115E+02  0.39398067510E+02  0.22092163842E+03  0.28286882616E+03  0.16949288543E+03 0.  0.
         24    2    3    3    0    0 -0.44449741702E+00  0.17611773772E+02  0.29611191178E+02  0.87938358510E+02  0.80907107853E+02 0.  0.
         -6    2    1    2    0  502  0.30468944115E+02 -0.39398067510E+02  0.25942267760E+03  0.30892020490E+03  0.16015930528E+03 0.  0.
        -24    2    5    5    0    0  0.97637979256E+01 -0.77414207205E+01  0.25840796182E+03  0.27078929864E+03  0.79980673800E+02 0.  0.
          5    1    3    3  501    0 -0.30024446698E+02  0.21786293738E+02  0.19131044725E+03  0.19493046765E+03  0.47000000000E+01 0. -1.
        -13    1    4    4    0    0 -0.14519185467E+02  0.42291985632E+02 -0.28428504099E+01  0.44805140261E+02  0.00000000000E+00 0.  1.
         14    1    4    4    0    0  0.14074688050E+02 -0.24680211860E+02  0.32454041588E+02  0.43133218249E+02  0.00000000000E+00 0. -1.
         -5    1    5    5    0  502  0.20705146189E+02 -0.31656646789E+02  0.10147157807E+01  0.38130906268E+02  0.47000000000E+01 0.  1.
         13    1    6    6    0    0 -0.44292127633E+00  0.28215467958E+02  0.38537942467E+02  0.47764859687E+02  0.00000000000E+00 0. -1.
        -14    1    6    6    0    0  0.10206719202E+02 -0.35956888678E+02  0.21987001935E+03  0.22302443895E+03  0.00000000000E+00 0.  1.
</event>
<event>
12    1  0.8052519E-002  0.1741390E+03  0.7818608E-02  0.1174265E+00
         21   -1    0    0  501  502  0.00000000000E+00  0.00000000000E+00  0.10810026524E+03  0.10810026524E+03  0.00000000000E+00 0.  1.
         21   -1    0    0  502  503 -0.00000000000E+00 -0.00000000000E+00 -0.44630598038E+03  0.44630598038E+03  0.00000000000E+00 0.  1.
         -6    2    1    2    0  503 -0.50467331997E+01  0.29043320040E+02 -0.34096372573E+03  0.38285852981E+03  0.17162577787E+03 0.  0.
        -24    2    3    3    0    0 -0.55640642907E+02  0.14843507609E+02 -0.11659027658E+03  0.15236576841E+03  0.79409218167E+02 0.  0.
          6    2    1    2  501    0  0.50467331997E+01 -0.29043320040E+02  0.27580105929E+01  0.17154771582E+03  0.16897345420E+03 0.  0.
         24    2    5    5    0    0  0.38031423953E+02  0.35311355744E+02 -0.20197003050E+02  0.95531028368E+02  0.77620727879E+02 0.  0.
          5    1    5    5  501    0 -0.32984690753E+02 -0.64354675784E+02  0.22955013643E+02  0.76016687449E+02  0.47000000000E+01 0. -1.
        -13    1    6    6    0    0  0.35720198295E+02 -0.17887355747E+02 -0.57766608650E+01  0.40364091376E+02  0.00000000000E+00 0.  1.
         14    1    6    6    0    0  0.23112256583E+01  0.53198711491E+02 -0.14420342185E+02  0.55166936992E+02  0.00000000000E+00 0. -1.
         -5    1    3    3    0  503  0.50593909707E+02  0.14199812431E+02 -0.22437344915E+03  0.23049276139E+03  0.47000000000E+01 0.  1.
         13    1    4    4    0    0 -0.96548473578E+01 -0.28058283195E+02 -0.63390803290E+02  0.69991980077E+02  0.00000000000E+00 0. -1.
        -14    1    4    4    0    0 -0.45985795549E+02  0.42901790804E+02 -0.53199473288E+02  0.82373788335E+02  0.00000000000E+00 0.  1.
</event>
<event>
12    1  0.8052519E-002  0.2177335E+03  0.7818608E-02  0.1137026E+00
         21   -1    0    0  503  502  0.00000000000E+00  0.00000000000E+00  0.12667274954E+04  0.12667274954E+04  0.00000000000E+00 0. -1.
         21   -1    0    0  501  503 -0.00000000000E+00 -0.00000000000E+00 -0.47948627413E+02  0.47948627413E+02  0.00000000000E+00 0. -1.
          6    2    1    2  501    0  0.36479931408E+02 -0.11574254145E+03  0.29137683448E+03  0.36374213515E+03  0.18077820641E+03 0.  0.
         24    2    3    3    0    0 -0.79368204369E+01 -0.29210724217E+02  0.39521038748E+02  0.93716145505E+02  0.79401158031E+02 0.  0.
         -6    2    1    2    0  502 -0.36479931408E+02  0.11574254145E+03  0.92740203347E+03  0.95093398763E+03  0.17167934018E+03 0.  0.
        -24    2    5    5    0    0  0.17862035331E+02  0.11041258994E+03  0.44808481372E+03  0.46849378938E+03  0.78717457292E+02 0.  0.
          5    1    3    3  501    0  0.44416751845E+02 -0.86531817237E+02  0.25185579573E+03  0.27002598964E+03  0.47000000000E+01 0. -1.
        -11    1    4    4    0    0 -0.10301993235E+02 -0.10156405937E+02  0.62280965236E+02  0.63939051267E+02  0.00000000000E+00 0.  1.
         12    1    4    4    0    0  0.23651727980E+01 -0.19054318281E+02 -0.22759926489E+02  0.29777094238E+02  0.00000000000E+00 0. -1.
         -5    1    5    5    0  502 -0.54341966739E+02  0.53299515182E+01  0.47931721975E+03  0.48244019825E+03  0.47000000000E+01 0.  1.
         13    1    6    6    0    0 -0.39134150242E+01  0.78986014150E+02  0.39635915214E+03  0.40417160060E+03  0.00000000000E+00 0. -1.
        -14    1    6    6    0    0  0.21775450355E+02  0.31426575786E+02  0.51725661580E+02  0.64322188782E+02  0.00000000000E+00 0.  1.
</event>
<event>
12    1  0.8052519E-002  0.1887285E+03  0.7818608E-02  0.1159899E+00
         21   -1    0    0  503  502  0.00000000000E+00  0.00000000000E+00  0.14857232001E+04  0.14857232001E+04  0.00000000000E+00 0.  1.
         21   -1    0    0  501  503 -0.00000000000E+00 -0.00000000000E+00 -0.26407918444E+02  0.26407918444E+02  0.00000000000E+00 0.  1.
          6    2    1    2  501    0  0.70115127143E+02 -0.26509404625E+02  0.49493506381E+03  0.52969723395E+03  0.17320381830E+03 0.  0.
         24    2    3    3    0    0  0.54271189254E+02 -0.59473565218E+02  0.47316272993E+03  0.48687445060E+03  0.81739187068E+02 0.  0.
         -6    2    1    2    0  502 -0.70115127143E+02  0.26509404625E+02  0.96438021782E+03  0.98243388457E+03  0.17183786964E+03 0.  0.
        -24    2    5    5    0    0 -0.26062491087E+02 -0.41686927377E+02  0.68549823481E+03  0.69193668167E+03  0.80321156392E+02 0.  0.
          5    1    3    3  501    0  0.15843937888E+02  0.32964160593E+02  0.21772333873E+02  0.42822783348E+02  0.47000000000E+01 0. -1.
        -13    1    4    4    0    0  0.45912692579E+02  0.96891528214E+00  0.12014992670E+03  0.12862705400E+03  0.00000000000E+00 0.  1.
         14    1    4    4    0    0  0.83584966755E+01 -0.60442480500E+02  0.35301280324E+03  0.35824739659E+03  0.00000000000E+00 0. -1.
         -5    1    5    5    0  502 -0.44052636056E+02  0.68196332003E+02  0.27888198301E+03  0.29049720289E+03  0.47000000000E+01 0.  1.
         11    1    6    6    0    0 -0.89923521031E+01  0.14374147687E+02  0.40634590444E+03  0.40669948682E+03  0.00000000000E+00 0. -1.
        -12    1    6    6    0    0 -0.17070138984E+02 -0.56061075064E+02  0.27915233037E+03  0.28523719486E+03  0.00000000000E+00 0.  1.
</event>
<event>
12    1  0.8052519E-002  0.2008801E+03  0.7818608E-02  0.1151371E+00
         21   -1    0    0  501  502  0.00000000000E+00  0.00000000000E+00  0.25655584206E+03  0.25655584206E+03  0.00000000000E+00 0.  1.
         21   -1    0    0  502  503 -0.00000000000E+00 -0.00000000000E+00 -0.16970964323E+03  0.16970964323E+03  0.00000000000E+00 0.  1.
         -6    2    1    2    0  503 -0.73594024640E+02 -0.39669556785E+02 -0.30278622547E+02  0.20314924423E+03  0.18265559463E+03 0.  0.
        -24    2    3    3    0    0 -0.54968766494E+02  0.10111451912E+02  0.45504302774E+02  0.11046596182E+03  0.83715472881E+02 0.  0.
          6    2    1    2  501    0  0.73594024640E+02  0.39669556785E+02  0.11712482137E+03  0.22311624107E+03  0.17050770964E+03 0.  0.
         24    2    5    5    0    0  0.40332818134E+02  0.37555773020E+02  0.14785558133E+03  0.17753943175E+03  0.81374471377E+02 0.  0.
          5    1    5    5  501    0  0.33261206507E+02  0.21137837642E+01 -0.30730759953E+02  0.45576809315E+02  0.47000000000E+01 0. -1.
        -13    1    6    6    0    0 -0.87170536964E+00 -0.84154932516E+01  0.97516176237E+02  0.97882506225E+02  0.00000000000E+00 0.  1.
         14    1    6    6    0    0  0.41204523504E+02  0.45971266272E+02  0.50339405090E+02  0.79656925528E+02  0.00000000000E+00 0. -1.
         -5    1    3    3    0  503 -0.18625258146E+02 -0.49781008697E+02 -0.75782925321E+02  0.92683282409E+02  0.47000000000E+01 0.  1.
         11    1    4    4    0    0 -0.20136895209E+02 -0.32573916912E+02 -0.10899041955E+01  0.38311127663E+02  0.00000000000E+00 0. -1.
        -12    1    4    4    0    0 -0.34831871285E+02  0.42685368824E+02  0.46594206969E+02  0.72154834155E+02  0.00000000000E+00 0.  1.
</event>
<event>
12    1  0.8052519E-002  0.2456363E+03  0.7818608E-02  0.1119639E+00
         21   -1    0    0  501  502  0.00000000000E+00  0.00000000000E+00  0.30500417342E+03  0.30500417342E+03  0.00000000000E+00 0.  1.
         21   -1    0    0  502  503 -0.00000000000E+00 -0.00000000000E+00 -0.65849176147E+03  0.65849176147E+03  0.00000000000E+00 0.  1.
         -6    2    1    2    0  503 -0.14369980975E+03 -0.75874778345E+02 -0.58888188047E+03  0.63805882565E+03  0.18420254757E+03 0.  0.
        -24    2    3    3    0    0 -0.14608771844E+03  0.21942592607E+01 -0.41279690947E+03  0.44537129686E+03  0.81288789774E+02 0.  0.
          6    2    1    2  501    0  0.14369980975E+03  0.75874778345E+02  0.23539429242E+03  0.32543710924E+03  0.15521669323E+03 0.  0.
         24    2    5    5    0    0  0.10281594934E+03  0.10959842262E+03  0.17245021957E+03  0.24301854014E+03  0.82073131681E+02 0.  0.
          5    1    5    5  501    0  0.40883860416E+02 -0.33723644274E+02  0.62944072849E+02  0.82418569100E+02  0.47000000000E+01 0. -1.
        -11    1    6    6    0    0  0.49668758732E+02  0.83762494421E+02  0.15193549989E+03  0.18046478103E+03  0.00000000000E+00 0.  1.
         12    1    6    6    0    0  0.53147190604E+02  0.25835928198E+02  0.20514719675E+02  0.62553759106E+02  0.00000000000E+00 0. -1.
         -5    1    3    3    0  503  0.23879086845E+01 -0.78069037605E+02 -0.17608497099E+03  0.19268752879E+03  0.47000000000E+01 0.  1.
         11    1    4    4    0    0 -0.20509384565E+02 -0.28489131612E+02 -0.58461408814E+02  0.68190921652E+02  0.00000000000E+00 0. -1.
        -12    1    4    4    0    0 -0.12557833387E+03  0.30683390872E+02 -0.35433550066E+03  0.37718037521E+03  0.00000000000E+00 0.  1.
</event>
<event>
12    1  0.8052519E-002  0.2358002E+03  0.7818608E-02  0.1122792E+00
         21   -1    0    0  501  502  0.00000000000E+00  0.00000000000E+00  0.38982588614E+03  0.38982588614E+03  0.00000000000E+00 0. -1.
         21   -1    0    0  502  503 -0.00000000000E+00 -0.00000000000E+00 -0.27417841254E+03  0.27417841254E+03  0.00000000000E+00 0. -1.
         -6    2    1    2    0  503 -0.16081270317E+03  0.37372316430E+01 -0.17260189742E+03  0.29222105304E+03  0.17241530223E+03 0.  0.
        -24    2    3    3    0    0 -0.12433710407E+03  0.67181921311E+02 -0.12633378237E+03  0.20551161614E+03  0.79383082581E+02 0.  0.
          6    2    1    2  501    0  0.16081270317E+03 -0.37372316430E+01  0.28824937102E+03  0.37178324564E+03  0.17105668488E+03 0.  0.
         24    2    5    5    0    0  0.17650131635E+03 -0.22160192116E+02  0.19646467695E+03  0.27674610489E+03  0.79663344742E+02 0.  0.
          5    1    5    5  501    0 -0.15688613173E+02  0.18422960473E+02  0.91784694074E+02  0.95037140751E+02  0.47000000000E+01 0. -1.
        -13    1    6    6    0    0  0.13263632157E+02  0.12673379900E+01 -0.68319326424E+01  0.14973489480E+02  0.00000000000E+00 0.  1.
         14    1    6    6    0    0  0.16323768419E+03 -0.23427530105E+02  0.20329660959E+03  0.26177261541E+03  0.00000000000E+00 0. -1.
         -5    1    3    3    0  503 -0.36475599107E+02 -0.63444689668E+02 -0.46268115055E+02  0.86709436903E+02  0.47000000000E+01 0.  1.
         13    1    4    4    0    0 -0.24717483123E+02  0.38800933438E+02 -0.54628294222E+01  0.46328273364E+02  0.00000000000E+00 0. -1.
        -14    1    4    4    0    0 -0.99619620943E+02  0.28380987873E+02 -0.12087095295E+03  0.15918334277E+03  0.00000000000E+00 0.  1.
</event>
<event>
12    1  0.8052519E-002  0.2169090E+03  0.7818608E-02  0.1136328E+00
         21   -1    0    0  501  502  0.00000000000E+00  0.00000000000E+00  0.16159035972E+03  0.16159035972E+03  0.00000000000E+00 0.  1.
         21   -1    0    0  502  503 -0.00000000000E+00 -0.00000000000E+00 -0.57776571674E+03  0.57776571674E+03  0.00000000000E+00 0.  1.
         -6    2    1    2    0  503 -0.12913481793E+03 -0.19989419845E+02 -0.46868606256E+03  0.51618149414E+03  0.17234074256E+03 0.  0.
        -24    2    3    3    0    0  0.29347182216E+00 -0.31691058059E+02 -0.14490165784E+03  0.16725880748E+03  0.77295594622E+02 0.  0.
          6    2    1    2  501    0  0.12913481793E+03  0.19989419845E+02  0.52510705543E+02  0.22317458233E+03  0.17313041874E+03 0.  0.
         24    2    5    5    0    0  0.15826701945E+03  0.26741651433E+02  0.22674825756E+02  0.18067108224E+03  0.79776731367E+02 0.  0.
          5    1    5    5  501    0 -0.29132201520E+02 -0.67522315879E+01  0.29835879787E+02  0.42503500085E+02  0.47000000000E+01 0. -1.
        -13    1    6    6    0    0  0.24743214550E+02  0.36182196982E+02  0.15949573070E+02  0.46645116848E+02  0.00000000000E+00 0.  1.
         14    1    6    6    0    0  0.13352380490E+03 -0.94405455489E+01  0.67252526865E+01  0.13402596539E+03  0.00000000000E+00 0. -1.
         -5    1    3    3    0  503 -0.12942828976E+03  0.11701638214E+02 -0.32378440472E+03  0.34892268666E+03  0.47000000000E+01 0.  1.
         11    1    4    4    0    0 -0.36284221966E+01  0.25214764928E+02 -0.57504054339E+02  0.62894086236E+02  0.00000000000E+00 0. -1.
        -12    1    4    4    0    0  0.39218940187E+01 -0.56905822987E+02 -0.87397603505E+02  0.10436472125E+03  0.00000000000E+00 0.  1.
</event>
<event>
12    1  0.8052519E-002  0.1840341E+03  0.7818608E-02  0.1164172E+00
         21   -1    0    0  503  502  0.00000000000E+00  0.00000000000E+00  0.95865837134E+02  0.95865837134E+02  0.00000000000E+00 0. -1.
         21   -1    0    0  501  503 -0.00000000000E+00 -0.00000000000E+00 -0.35257750158E+03  0.35257750158E+03  0.00000000000E+00 0. -1.
          6    2    1    2  501    0 -0.10524030055E+02 -0.65093091968E+02 -0.14028850186E+03  0.23067535841E+03  0.17082854385E+03 0.  0.
         24    2    3    3    0    0  0.53875041556E+02 -0.25013312115E+02 -0.44198203455E+02  0.10816387068E+03  0.78852747869E+02 0.  0.
         -6    2    1    2    0  502  0.10524030055E+02  0.65093091968E+02 -0.11642316258E+03  0.21776798031E+03  0.17181581601E+03 0.  0.
        -24    2    5    5    0    0  0.25115542913E+02 -0.69060622201E+01 -0.11796366401E+03  0.14413881763E+03  0.78626258529E+02 0.  0.
          5    1    3    3  501    0 -0.64399071610E+02 -0.40079779853E+02 -0.96090298409E+02  0.12251148773E+03  0.47000000000E+01 0. -1.
        -11    1    4    4    0    0 -0.54094862752E+01 -0.32605952277E+01  0.18273993365E+02  0.19334757731E+02  0.00000000000E+00 0.  1.
         12    1    4    4    0    0  0.59284527831E+02 -0.21752716888E+02 -0.62472196820E+02  0.88829112951E+02  0.00000000000E+00 0. -1.
         -5    1    5    5    0  502 -0.14591512859E+02  0.71999154188E+02  0.15405014265E+01  0.73629162673E+02  0.47000000000E+01 0.  1.
         11    1    6    6    0    0 -0.16636917807E+02  0.43238030450E+01  0.13404797770E+01  0.17241786245E+02  0.00000000000E+00 0. -1.
        -12    1    6    6    0    0  0.41752460720E+02 -0.11229865265E+02 -0.11930414379E+03  0.12689703139E+03  0.00000000000E+00 0.  1.
</event>
<event>
12    1  0.8052519E-002  0.1747556E+03  0.7818608E-02  0.1173296E+00
         21   -1    0    0  501  502  0.00000000000E+00  0.00000000000E+00  0.16260600145E+04  0.16260600145E+04  0.00000000000E+00 0. -1.
         21   -1    0    0  502  503 -0.00000000000E+00 -0.00000000000E+00 -0.59847637484E+02  0.59847637484E+02  0.00000000000E+00 0. -1.
         -6    2    1    2    0  503  0.95783132649E+00 -0.35083279928E+02  0.84571718006E+02  0.19414401815E+03  0.17119512355E+03 0.  0.
        -24    2    3    3    0    0  0.30256427345E+01 -0.99270016858E+01  0.12375774882E+03  0.14729586782E+03  0.79198436886E+02 0.  0.
          6    2    1    2  501    0 -0.95783132649E+00  0.35083279928E+02  0.14816406590E+04  0.14917636338E+04  0.16990568799E+03 0.  0.
         24    2    5    5    0    0  0.50541670904E+02 -0.46441705453E+01  0.11448564630E+04  0.11487240534E+04  0.79338522765E+02 0.  0.
          5    1    5    5  501    0 -0.51499502231E+02  0.39727450473E+02  0.33678419597E+03  0.34303958038E+03  0.47000000000E+01 0. -1.
        -11    1    6    6    0    0  0.32121231184E+02  0.12743406347E+02  0.16691762696E+03  0.17045721483E+03  0.00000000000E+00 0.  1.
         12    1    6    6    0    0  0.18420439721E+02 -0.17387576892E+02  0.97793883605E+03  0.97826683859E+03  0.00000000000E+00 0. -1.
         -5    1    3    3    0  503 -0.20678114080E+01 -0.25156278242E+02 -0.39186030818E+02  0.46848150340E+02  0.47000000000E+01 0.  1.
         11    1    4    4    0    0  0.28956526043E-01 -0.29874644484E+01 -0.11472193472E+02  0.11854830465E+02  0.00000000000E+00 0. -1.
        -12    1    4    4    0    0  0.29966862084E+01 -0.69395372374E+01  0.13522994229E+03  0.13544103735E+03  0.00000000000E+00 0.  1.
</event>
<event>
12    1  0.8052519E-002  0.2119326E+03  0.7818608E-02  0.1140422E+00
         21   -1    0    0  503  502  0.00000000000E+00  0.00000000000E+00  0.31314740956E+03  0.31314740956E+03  0.00000000000E+00 0.  1.
         21   -1    0    0  501  503 -0.00000000000E+00 -0.00000000000E+00 -0.18654486940E+03  0.18654486940E+03  0.00000000000E+00 0.  1.
          6    2    1    2  501    0  0.67610914267E+02  0.10315757623E+03 -0.58818896922E+02  0.21809588095E+03  0.16998067358E+03 0.  0.
         24    2    3    3    0    0  0.82071809179E+02  0.11690667702E+03 -0.85506754130E+02  0.18444343710E+03  0.79404178075E+02 0.  0.
         -6    2    1    2    0  502 -0.67610914267E+02 -0.10315757623E+03  0.18542143708E+03  0.28159639801E+03  0.17234471499E+03 0.  0.
        -24    2    5    5    0    0  0.11674646459E+01 -0.16381271101E+02  0.14006268660E+03  0.16184624652E+03  0.79416259791E+02 0.  0.
          5    1    3    3  501    0 -0.14460894912E+02 -0.13749100791E+02  0.26687857208E+02  0.33652443843E+02  0.47000000000E+01 0. -1.
        -13    1    4    4    0    0  0.13098240137E+02  0.42370559771E+02 -0.68311599113E+02  0.81445090726E+02  0.00000000000E+00 0.  1.
         14    1    4    4    0    0  0.68973569043E+02  0.74536117247E+02 -0.17195155017E+02  0.10299834638E+03  0.00000000000E+00 0. -1.
         -5    1    5    5    0  502 -0.68778378913E+02 -0.86776305125E+02  0.45358750484E+02  0.11975015149E+03  0.47000000000E+01 0.  1.
         13    1    6    6    0    0  0.33163663941E+02  0.13332155945E+02  0.46985312760E+02  0.59035536783E+02  0.00000000000E+00 0. -1.
        -14    1    6    6    0    0 -0.31996199295E+02 -0.29713427046E+02  0.93077373837E+02  0.10281070974E+03  0.00000000000E+00 0.  1.
</event>
<event>
12    1  0.8052519E-002  0.2235531E+03  0.7818608E-02  0.1132650E+00
         21   -1    0    0  501  502  0.00000000000E+00  0.00000000000E+00  0.12928537255E+03  0.12928537255E+03  0.00000000000E+00 0. -1.
         21   -1    0    0  502  503 -0.00000000000E+00 -0.00000000000E+00 -0.37393139488E+03  0.37393139488E+03  0.00000000000E+00 0. -1.
         -6    2    1    2    0  503  0.10971791350E+03 -0.76348721894E+02 -0.11466958106E+03  0.24462472437E+03  0.16977925396E+03 0.  0.
        -24    2    3    3    0    0  0.13408590280E+03 -0.55022168683E+02 -0.12783138019E+03  0.20935513789E+03  0.80512381801E+02 0.  0.
          6    2    1    2  501    0 -0.10971791350E+03  0.76348721894E+02 -0.12997644128E+03  0.25859204305E+03  0.17918934557E+03 0.  0.
         24    2    5    5    0    0  0.13765786709E+02  0.47103744588E+01 -0.28247010114E+02  0.83231716284E+02  0.76928151570E+02 0.  0.
          5    1    5    5  501    0 -0.12348370021E+03  0.71638347436E+02 -0.10172943116E+03  0.17536032677E+03  0.47000000000E+01 0. -1.
        -11    1    6    6    0    0 -0.38213421338E+01  0.36571320160E+02 -0.29001699156E+02  0.46831214674E+02  0.00000000000E+00 0.  1.
         12    1    6    6    0    0  0.17587128842E+02 -0.31860945701E+02  0.75468904197E+00  0.36400501610E+02  0.00000000000E+00 0. -1.
         -5    1    3    3    0  503 -0.24367989298E+02 -0.21326553211E+02  0.13161799132E+02  0.35269586483E+02  0.47000000000E+01 0.  1.
         13    1    4    4    0    0  0.69611336003E+02 -0.69543228511E+02 -0.89155383335E+02  0.13278057505E+03  0.00000000000E+00 0. -1.
        -14    1    4    4    0    0  0.64474566795E+02  0.14521059827E+02 -0.38675996856E+02  0.76574562843E+02  0.00000000000E+00 0.  1.
</event>
<event>
12    1  0.8052519E-002  0.1957286E+03  0.7818608E-02  0.1153460E+00
         21   -1    0    0  503  502  0.00000000000E+00  0.00000000000E+00  0.19771024940E+04  0.19771024940E+04  0.00000000000E+00 0.  1.
         21   -1    0    0  501  503 -0.00000000000E+00 -0.00000000000E+00 -0.29206015894E+02  0.29206015894E+02  0.00000000000E+00 0.  1.
          6    2    1    2  501    0 -0.63695409467E+01 -0.94329968936E+02  0.39058828821E+03  0.43674854591E+03  0.17103031128E+03 0.  0.
         24    2    3    3    0    0 -0.28347828729E+02 -0.34155536456E+02  0.84779722743E+02  0.12426658456E+03  0.79274097816E+02 0.  0.
         -6    2    1    2    0  502  0.63695409467E+01  0.94329968936E+02  0.15573081899E+04  0.15695599640E+04  0.17137960244E+03 0.  0.
        -24    2    5    5    0    0 -0.40279216066E+02  0.25126192494E+01  0.86067196378E+03  0.86533652376E+03  0.80139513359E+02 0.  0.
          5    1    3    3  501    0  0.21978287783E+02 -0.60174432480E+02  0.30580856547E+03  0.31248196135E+03  0.47000000000E+01 0. -1.
        -13    1    4    4    0    0  0.24937526962E+02 -0.26318910705E+02  0.42004551541E+02  0.55488265983E+02  0.00000000000E+00 0.  1.
         14    1    4    4    0    0 -0.53285355692E+02 -0.78366257514E+01  0.42775171203E+02  0.68778318573E+02  0.00000000000E+00 0. -1.
         -5    1    5    5    0  502  0.46648757013E+02  0.91817349686E+02  0.69663622615E+03  0.70422344027E+03  0.47000000000E+01 0.  1.
         13    1    6    6    0    0  0.13755856372E+02 -0.63644780116E+00  0.31240551654E+02  0.34140895096E+02  0.00000000000E+00 0. -1.
        -14    1    6    6    0    0 -0.54035072438E+02  0.31490670506E+01  0.82943141213E+03  0.83119562866E+03  0.00000000000E+00 0.  1.
</event>
<event>
12    1  0.8052519E-002  0.1831064E+03  0.7818608E-02  0.1164948E+00
         21   -1    0    0  503  502  0.00000000000E+00  0.00000000000E+00  0.92495421261E+03  0.92495421261E+03  0.00000000000E+00 0.  1.
         21   -1    0    0  501  503 -0.00000000000E+00 -0.00000000000E+00 -0.39085983730E+02  0.39085983730E+02  0.00000000000E+00 0.  1.
          6    2    1    2  501    0  0.60933501592E+02  0.93238462814E+01  0.31137906484E+03  0.36122689522E+03  0.17241845053E+03 0.  0.
         24    2    3    3    0    0  0.64327340212E+02 -0.32614276465E+02  0.10525989678E+03  0.15080463945E+03  0.80378452843E+02 0.  0.
         -6    2    1    2    0  502 -0.60933501592E+02 -0.93238462814E+01  0.57448916404E+03  0.60281330112E+03  0.17189022859E+03 0.  0.
        -24    2    5    5    0    0 -0.34850571513E+02  0.37353881574E+02  0.16191361261E+03  0.18676065402E+03  0.77805199951E+02 0.  0.
          5    1    3    3  501    0 -0.33938386204E+01  0.41938122746E+02  0.20611916807E+03  0.21042225577E+03  0.47000000000E+01 0. -1.
        -11    1    4    4    0    0  0.25166699536E+02  0.13136243209E+02  0.81086244238E+02  0.85912179904E+02  0.00000000000E+00 0.  1.
         12    1    4    4    0    0  0.39160640677E+02 -0.45750519674E+02  0.24173652537E+02  0.64892459544E+02  0.00000000000E+00 0. -1.
         -5    1    5    5    0  502 -0.26082930079E+02 -0.46677727855E+02  0.41257555143E+03  0.41605264710E+03  0.47000000000E+01 0.  1.
         11    1    6    6    0    0 -0.22719389462E+02 -0.14866639253E+02  0.16482105808E+02  0.31762358730E+02  0.00000000000E+00 0. -1.
        -12    1    6    6    0    0 -0.12131182051E+02  0.52220520827E+02  0.14543150680E+03  0.15499829529E+03  0.00000000000E+00 0.  1.
</event>
<event>
12    1  0.8052519E-002  0.3208774E+03  0.7818608E-02  0.1075285E+00
         21   -1    0    0  503  502  0.00000000000E+00  0.00000000000E+00  0.48027373840E+03  0.48027373840E+03  0.00000000000E+00 0.  1.
         21   -1    0    0  501  503 -0.00000000000E+00 -0.00000000000E+00 -0.26680280920E+03  0.26680280920E+03  0.00000000000E+00 0. -1.
          6    2    1    2  501    0 -0.63520884892E+02 -0.26297804485E+03 -0.59234152564E+02  0.32597044385E+03  0.17191768538E+03 0.  0.
         24    2    3    3    0    0  0.31687531984E+01 -0.91085996578E+02  0.23628891781E+02  0.12377559178E+03  0.80345334798E+02 0.  0.
         -6    2    1    2    0  502  0.63520884892E+02  0.26297804485E+03  0.27270508176E+03  0.42110610374E+03  0.17253965951E+03 0.  0.
        -24    2    5    5    0    0  0.66073956482E+02  0.28202002852E+03  0.24908819889E+03  0.39030086923E+03  0.79929803473E+02 0.  0.
          5    1    3    3  501    0 -0.66689638090E+02 -0.17189204827E+03 -0.82863044345E+02  0.20219485207E+03  0.47000000000E+01 0. -1.
        -13    1    4    4    0    0 -0.19043041922E+02  0.49596790148E+01  0.15143142231E+02  0.24830437334E+02  0.00000000000E+00 0.  1.
         14    1    4    4    0    0  0.22211795120E+02 -0.96045675592E+02  0.84857495504E+01  0.98945154444E+02  0.00000000000E+00 0. -1.
         -5    1    5    5    0  502 -0.25530715902E+01 -0.19041983675E+02  0.23616882873E+02  0.30805234514E+02  0.47000000000E+01 0.  1.
         13    1    6    6    0    0 -0.39916021908E+01  0.11950185444E+03  0.13196280802E+03  0.17807528970E+03  0.00000000000E+00 0. -1.
        -14    1    6    6    0    0  0.70065558673E+02  0.16251817408E+03  0.11712539087E+03  0.21222557953E+03  0.00000000000E+00 0.  1.
</event>
<event>
12    1  0.8052519E-002  0.2030884E+03  0.7818608E-02  0.1147585E+00
         21   -1    0    0  503  502  0.00000000000E+00  0.00000000000E+00  0.18284703512E+03  0.18284703512E+03  0.00000000000E+00 0. -1.
         21   -1    0    0  501  503 -0.00000000000E+00 -0.00000000000E+00 -0.26187901398E+03  0.26187901398E+03  0.00000000000E+00 0. -1.
          6    2    1    2  501    0 -0.10215621538E+03 -0.38727412067E+02 -0.12469219590E+03  0.23656809627E+03  0.16876200895E+03 0.  0.
         24    2    3    3    0    0 -0.41551302324E+02 -0.96883611986E+01  0.45110178522E+00  0.94444358211E+02  0.84256502643E+02 0.  0.
         -6    2    1    2    0  502  0.10215621538E+03  0.38727412067E+02  0.45660217043E+02  0.20815795284E+03  0.17119922057E+03 0.  0.
        -24    2    5    5    0    0  0.37091122256E+02  0.79917305600E+02  0.53415615132E+02  0.13061886675E+03  0.80284078905E+02 0.  0.
          5    1    3    3  501    0 -0.60604913060E+02 -0.29039050869E+02 -0.12514329769E+03  0.14212373806E+03  0.47000000000E+01 0. -1.
        -11    1    4    4    0    0  0.19522201443E+02  0.47783737621E+01 -0.20077671980E+02  0.28408838715E+02  0.00000000000E+00 0.  1.
         12    1    4    4    0    0 -0.61073503767E+02 -0.14466734961E+02  0.20528773765E+02  0.66035519496E+02  0.00000000000E+00 0. -1.
         -5    1    5    5    0  502  0.65065093129E+02 -0.41189893533E+02 -0.77553980885E+01  0.77539086096E+02  0.47000000000E+01 0.  1.
         13    1    6    6    0    0  0.57426363428E+02  0.44066355456E+02  0.52450992604E+02  0.89390925294E+02  0.00000000000E+00 0. -1.
        -14    1    6    6    0    0 -0.20335241172E+02  0.35850950144E+02  0.96462252750E+00  0.41227941452E+02  0.00000000000E+00 0.  1.
</event>
<event>
12    1  0.8052519E-002  0.1730357E+03  0.7818608E-02  0.1174864E+00
         21   -1    0    0  501  502  0.00000000000E+00  0.00000000000E+00  0.32325229732E+03  0.32325229732E+03  0.00000000000E+00 0. -1.
         21   -1    0    0  502  503 -0.00000000000E+00 -0.00000000000E+00 -0.11401880782E+03  0.11401880782E+03  0.00000000000E+00 0. -1.
         -6    2    1    2    0  503  0.16845416989E+02  0.11605904458E+01  0.91013212995E+01  0.17270684313E+03  0.17163829576E+03 0.  0.
        -24    2    3    3    0    0  0.36684011420E+02 -0.15240503606E+02  0.64922388081E+02  0.11105745374E+03  0.80875533470E+02 0.  0.
          6    2    1    2  501    0 -0.16845416989E+02 -0.11605904458E+01  0.20013216820E+03  0.26456426201E+03  0.17220989792E+03 0.  0.
         24    2    5    5    0    0 -0.37352042941E+02  0.54582329610E+02  0.82138879117E+02  0.13238142987E+03  0.80022757348E+02 0.  0.
          5    1    5    5  501    0  0.20506625952E+02 -0.55742920056E+02  0.11799328909E+03  0.13218283214E+03  0.47000000000E+01 0. -1.
        -11    1    6    6    0    0 -0.38419955585E+02  0.71834330522E+01  0.18379852481E+01  0.39128926478E+02  0.00000000000E+00 0.  1.
         12    1    6    6    0    0  0.10679126434E+01  0.47398896558E+02  0.80300893869E+02  0.93252503390E+02  0.00000000000E+00 0. -1.
         -5    1    3    3    0  503 -0.19838594431E+02  0.16401094052E+02 -0.55821066781E+02  0.61649389386E+02  0.47000000000E+01 0.  1.
         11    1    4    4    0    0 -0.29788901011E+01  0.21616192346E+02 -0.52321963971E+01  0.22439015952E+02  0.00000000000E+00 0. -1.
        -12    1    4    4    0    0  0.39662901521E+02 -0.36856695951E+02  0.70154584478E+02  0.88618437792E+02  0.00000000000E+00 0.  1.
</event>
<event>
12    1  0.8052519E-002  0.2161125E+03  0.7818608E-02  0.1136869E+00
         21   -1    0    0  501  502  0.00000000000E+00  0.00000000000E+00  0.93727638712E+03  0.93727638712E+03  0.00000000000E+00 0. -1.
         21   -1    0    0  502  503 -0.00000000000E+00 -0.00000000000E+00 -0.60429579275E+02  0.60429579275E+02  0.00000000000E+00 0. -1.
         -6    2    1    2    0  503  0.11373432972E+03  0.64540169686E+02  0.22862557642E+03  0.31440854517E+03  0.17170366282E+03 0.  0.
        -24    2    3    3    0    0  0.14288732169E+03  0.23762842853E+02  0.16278887400E+03  0.23152761426E+03  0.78251896244E+02 0.  0.
          6    2    1    2  501    0 -0.11373432972E+03 -0.64540169686E+02  0.64822123142E+03  0.68329742122E+03  0.17205716991E+03 0.  0.
         24    2    5    5    0    0 -0.97163135718E+01 -0.26200211950E+02  0.43337223626E+03  0.44148782512E+03  0.79493060796E+02 0.  0.
          5    1    5    5  501    0 -0.10401801615E+03 -0.38339957736E+02  0.21484899517E+03  0.24180959610E+03  0.47000000000E+01 0. -1.
        -13    1    6    6    0    0  0.15441841709E+02  0.14446386094E+02  0.28096916489E+03  0.28176376659E+03  0.00000000000E+00 0.  1.
         14    1    6    6    0    0 -0.25158155281E+02 -0.40646598043E+02  0.15240307137E+03  0.15972405852E+03  0.00000000000E+00 0. -1.
         -5    1    3    3    0  503 -0.29152991966E+02  0.40777326834E+02  0.65836702413E+02  0.82880930912E+02  0.47000000000E+01 0.  1.
         11    1    4    4    0    0  0.91055756428E+02  0.77214645930E+01  0.15022300868E+03  0.17583436561E+03  0.00000000000E+00 0. -1.
        -12    1    4    4    0    0  0.51831565257E+02  0.16041378260E+02  0.12565865329E+02  0.55693248648E+02  0.00000000000E+00 0.  1.
</event>
<event>
12    1  0.8052519E-002  0.2037987E+03  0.7818608E-02  0.1146668E+00
         21   -1    0    0  501  502  0.00000000000E+00  0.00000000000E+00  0.28728519800E+03  0.28728519800E+03  0.00000000000E+00 0. -1.
         21   -1    0    0  502  503 -0.00000000000E+00 -0.00000000000E+00 -0.31410097573E+03  0.31410097573E+03  0.00000000000E+00 0.  1.
         -6    2    1    2    0  503  0.80856319043E+02 -0.75467637243E+02  0.20771848515E+03  0.29067691310E+03  0.17062529160E+03 0.  0.
        -24    2    3    3    0    0  0.80285237269E+02  0.14824249926E+02  0.11672530728E+03  0.16240065091E+03  0.77998053477E+02 0.  0.
          6    2    1    2  501    0 -0.80856319043E+02  0.75467637243E+02 -0.23453426287E+03  0.31070926063E+03  0.17117481000E+03 0.  0.
         24    2    5    5    0    0 -0.20621980312E+02  0.92061355669E+02 -0.20964879693E+03  0.24329336140E+03  0.79614586397E+02 0.  0.
          5    1    5    5  501    0 -0.60234338732E+02 -0.16593718426E+02 -0.24885465944E+02  0.67415899229E+02  0.47000000000E+01 0. -1.
        -13    1    6    6    0    0 -0.27674910326E+02  0.10481914092E+03 -0.19100949048E+03  0.21963054983E+03  0.00000000000E+00 0.  1.
         14    1    6    6    0    0  0.70529300138E+01 -0.12757785255E+02 -0.18639306447E+02  0.23662811566E+02  0.00000000000E+00 0. -1.
         -5    1    3    3    0  503  0.57108177459E+00 -0.90291887169E+02  0.90993177868E+02  0.12827626219E+03  0.47000000000E+01 0.  1.
         13    1    4    4    0    0  0.54631095774E+02 -0.28476219593E+02  0.74738575168E+02  0.96857143908E+02  0.00000000000E+00 0. -1.
        -14    1    4    4    0    0  0.25654141495E+02  0.43300469518E+02  0.41986732113E+02  0.65543507000E+02  0.00000000000E+00 0.  1.
</event>
<event>
12    1  0.8052519E-002  0.1910124E+03  0.7818608E-02  0.1162097E+00
         21   -1    0    0  501  502  0.00000000000E+00  0.00000000000E+00  0.56368246304E+03  0.56368246304E+03  0.00000000000E+00 0. -1.
         21   -1    0    0  502  503 -0.00000000000E+00 -0.00000000000E+00 -0.59765346497E+02  0.59765346497E+02  0.00000000000E+00 0. -1.
         -6    2    1    2    0  503 -0.20623353223E+01 -0.12036988568E+01  0.21774970396E+03  0.28965614528E+03  0.19099750470E+03 0.  0.
        -24    2    3    3    0    0  0.19513635061E+01 -0.41258599795E+02  0.28248296056E+02  0.95869204370E+02  0.81773212239E+02 0.  0.
          6    2    1    2  501    0  0.20623353223E+01  0.12036988568E+01  0.28616741258E+03  0.33379166426E+03  0.17181206299E+03 0.  0.
         24    2    5    5    0    0  0.22815667014E+02 -0.13546738796E+02  0.29551923674E+03  0.30626308271E+03  0.75903805942E+02 0.  0.
          5    1    5    5  501    0 -0.20753331692E+02  0.14750437652E+02 -0.93518241545E+01  0.27528581552E+02  0.47000000000E+01 0. -1.
        -11    1    6    6    0    0  0.84551103418E+01  0.28581959412E+02  0.18027511890E+03  0.18272256508E+03  0.00000000000E+00 0.  1.
         12    1    6    6    0    0  0.14360556672E+02 -0.42128698207E+02  0.11524411784E+03  0.12354051763E+03  0.00000000000E+00 0. -1.
         -5    1    3    3    0  503 -0.40136988285E+01  0.40054900938E+02  0.18950140791E+03  0.19378694091E+03  0.47000000000E+01 0.  1.
         13    1    4    4    0    0  0.13357587846E+02 -0.35987376323E+02  0.54560280450E+02  0.66710873256E+02  0.00000000000E+00 0. -1.
        -14    1    4    4    0    0 -0.11406224340E+02 -0.52712234721E+01 -0.26311984394E+02  0.29158331114E+02  0.00000000000E+00 0.  1.
</event>
<event>
12    1  0.8052519E-002  0.1788293E+03  0.7818608E-02  0.1170503E+00
         21   -1    0    0  501  502  0.00000000000E+00  0.00000000000E+00  0.56274727497E+02  0.56274727497E+02  0.00000000000E+00 0.  1.
         21   -1    0    0  502  503 -0.00000000000E+00 -0.00000000000E+00 -0.56198399127E+03  0.56198399127E+03  0.00000000000E+00 0.  1.
         -6    2    1    2    0  503 -0.46282782947E+02 -0.14724096418E+02 -0.30512803592E+03  0.35367081170E+03  0.17210761091E+03 0.  0.
        -24    2    3    3    0    0 -0.81223683600E+02  0.31583050859E+02 -0.23130077187E+03  0.25966137949E+03  0.79556326297E+02 0.  0.
          6    2    1    2  501    0  0.46282782947E+02  0.14724096418E+02 -0.20058122785E+03  0.26458790706E+03  0.16557486700E+03 0.  0.
         24    2    5    5    0    0 -0.23961823707E+02 -0.14715805410E+02 -0.54791050236E+02  0.10003433380E+03  0.78829466753E+02 0.  0.
          5    1    5    5  501    0  0.70244606654E+02  0.29439901828E+02 -0.14579017761E+03  0.16455357326E+03  0.47000000000E+01 0. -1.
        -11    1    6    6    0    0 -0.38880783455E+01 -0.32464538725E+02 -0.63862036934E+02  0.71745544734E+02  0.00000000000E+00 0.  1.
         12    1    6    6    0    0 -0.20073745361E+02  0.17748733315E+02  0.90709866977E+01  0.28288789066E+02  0.00000000000E+00 0. -1.
         -5    1    3    3    0  503  0.34940900653E+02 -0.46307147277E+02 -0.73827264048E+02  0.94009432209E+02  0.47000000000E+01 0.  1.
         13    1    4    4    0    0 -0.79973334673E+02 -0.60335199811E+01 -0.16365150320E+03  0.18224695367E+03  0.00000000000E+00 0. -1.
        -14    1    4    4    0    0 -0.12503489273E+01  0.37616570840E+02 -0.67649268670E+02  0.77414425825E+02  0.00000000000E+00 0.  1.
</event>
<event>
12    1  0.8052519E-002  0.1960676E+03  0.7818608E-02  0.1153201E+00
         21   -1    0    0  503  502  0.00000000000E+00  0.00000000000E+00  0.15678440116E+04  0.15678440116E+04  0.00000000000E+00 0.  1.
         21   -1    0    0  501  503 -0.00000000000E+00 -0.00000000000E+00 -0.28332506511E+02  0.28332506511E+02  0.00000000000E+00 0.  1.
          6    2    1    2  501    0 -0.74287496547E+02 -0.56218435914E+02  0.10639860817E+04  0.10818158216E+04  0.17198821206E+03 0.  0.
         24    2    3    3    0    0 -0.50076893382E+02 -0.84260676511E+02  0.47366494064E+03  0.49031462957E+03  0.80264581997E+02 0.  0.
         -6    2    1    2    0  502  0.74287496547E+02  0.56218435914E+02  0.47552542333E+03  0.51436069647E+03  0.17252058765E+03 0.  0.
        -24    2    5    5    0    0 -0.35419097953E+02  0.21742423546E+02  0.21709294186E+03  0.23145864667E+03  0.68676882798E+02 0.  0.
          5    1    3    3  501    0 -0.24210603165E+02  0.28042240597E+02  0.59032114108E+03  0.59150119203E+03  0.47000000000E+01 0. -1.
        -11    1    4    4    0    0 -0.26475269589E+02 -0.65055539592E+02  0.43727278294E+03  0.44287769173E+03  0.00000000000E+00 0.  1.
         12    1    4    4    0    0 -0.23601623793E+02 -0.19205136918E+02  0.36392157699E+02  0.47436937841E+02  0.00000000000E+00 0. -1.
         -5    1    5    5    0  502  0.10970659450E+03  0.34476012368E+02  0.25843248146E+03  0.28290204980E+03  0.47000000000E+01 0.  1.
         11    1    6    6    0    0 -0.16489359197E+02 -0.23797185042E+02  0.56838394706E+02  0.63787209497E+02  0.00000000000E+00 0. -1.
        -12    1    6    6    0    0 -0.18929738756E+02  0.45539608588E+02  0.16025454716E+03  0.16767143718E+03  0.00000000000E+00 0.  1.
</event>
<event>
12    1  0.8052519E-002  0.2778560E+03  0.7818608E-02  0.1096946E+00
         21   -1    0    0  503  502  0.00000000000E+00  0.00000000000E+00  0.21204379992E+03  0.21204379992E+03  0.00000000000E+00 0.  1.
         21   -1    0    0  501  503 -0.00000000000E+00 -0.00000000000E+00 -0.38631850471E+03  0.38631850471E+03  0.00000000000E+00 0. -1.
          6    2    1    2  501    0  0.48394694844E+02 -0.21216440314E+03 -0.14252334957E+02  0.27822126530E+03  0.17276620898E+03 0.  0.
         24    2    3    3    0    0  0.41852015477E+02 -0.12688508175E+03  0.57487849901E+02  0.16648893590E+03  0.81008010222E+02 0.  0.
         -6    2    1    2    0  502 -0.48394694844E+02  0.21216440314E+03 -0.16002236983E+03  0.32014103933E+03  0.17183522854E+03 0.  0.
        -24    2    5    5    0    0  0.29095651872E+02  0.16617683575E+03 -0.11213531883E+03  0.21798982866E+03  0.80522903398E+02 0.  0.
          5    1    3    3  501    0  0.65426793668E+01 -0.85279321390E+02 -0.71740184858E+02  0.11173232940E+03  0.47000000000E+01 0. -1.
        -13    1    4    4    0    0  0.24959452916E+02 -0.11076614100E+03  0.10510401191E+02  0.11402885958E+03  0.00000000000E+00 0.  1.
         14    1    4    4    0    0  0.16892562562E+02 -0.16118940749E+02  0.46977448710E+02  0.52460076326E+02  0.00000000000E+00 0. -1.
         -5    1    5    5    0  502 -0.77490346716E+02  0.45987567396E+02 -0.47887050998E+02  0.10215121068E+03  0.47000000000E+01 0.  1.
         11    1    6    6    0    0 -0.10774488085E+02  0.69312722852E+02 -0.84180498682E+02  0.10957508613E+03  0.00000000000E+00 0. -1.
        -12    1    6    6    0    0  0.39870139957E+02  0.96864112896E+02 -0.27954820153E+02  0.10841474253E+03  0.00000000000E+00 0.  1.
</event>
<event>
12    1  0.8052519E-002  0.1783208E+03  0.7818608E-02  0.1170500E+00
         21   -1    0    0  503  502  0.00000000000E+00  0.00000000000E+00  0.21144781164E+03  0.21144781164E+03  0.00000000000E+00 0. -1.
         21   -1    0    0  501  503 -0.00000000000E+00 -0.00000000000E+00 -0.12997047995E+04  0.12997047995E+04  0.00000000000E+00 0. -1.
          6    2    1    2  501    0  0.28441105350E+02  0.20238747393E+02 -0.12564981885E+04  0.12690886541E+04  0.17487084103E+03 0.  0.
         24    2    3    3    0    0  0.48951147798E+02  0.15279204066E+02 -0.33838556235E+03  0.35072154716E+03  0.76623403030E+02 0.  0.
         -6    2    1    2    0  502 -0.28441105350E+02 -0.20238747393E+02  0.16824120058E+03  0.24206395705E+03  0.17050323856E+03 0.  0.
        -24    2    5    5    0    0 -0.54558874325E+02  0.24866039090E+02  0.57111594951E+02  0.11922886895E+03  0.85783438064E+02 0.  0.
          5    1    3    3  501    0 -0.20510042448E+02  0.49595433273E+01 -0.91811262613E+03  0.91836710697E+03  0.47000000000E+01 0. -1.
        -11    1    4    4    0    0 -0.12790678169E+02  0.25509287715E+01 -0.10258108001E+02  0.16593295796E+02  0.00000000000E+00 0.  1.
         12    1    4    4    0    0  0.61741825967E+02  0.12728275295E+02 -0.32812745435E+03  0.33412825137E+03  0.00000000000E+00 0. -1.
         -5    1    5    5    0  502  0.26117768975E+02 -0.45104786483E+02  0.11112960563E+03  0.12283508810E+03  0.47000000000E+01 0.  1.
         11    1    6    6    0    0 -0.66704707752E+02 -0.51553621271E+01  0.55288434583E+02  0.86792319900E+02  0.00000000000E+00 0. -1.
        -12    1    6    6    0    0  0.12145833427E+02  0.30021401217E+02  0.18231603683E+01  0.32436549052E+02  0.00000000000E+00 0.  1.
</event>
<event>
12    1  0.8052519E-002  0.3449110E+03  0.7818608E-02  0.1064799E+00
         21   -1    0    0  503  502  0.00000000000E+00  0.00000000000E+00  0.22587133435E+04  0.22587133435E+04  0.00000000000E+00 0.  1.
         21   -1    0    0  501  503 -0.00000000000E+00 -0.00000000000E+00 -0.57004950509E+02  0.57004950509E+02  0.00000000000E+00 0. -1.
          6    2    1    2  501    0 -0.28084362784E+03  0.10001887045E+03  0.77852382985E+03  0.85150630275E+03  0.17345521681E+03 0.  0.
         24    2    3    3    0    0 -0.81258623551E+02  0.36152741724E+02  0.41319753368E+03  0.43031935019E+03  0.80824233205E+02 0.  0.
         -6    2    1    2    0  502  0.28084362784E+03 -0.10001887045E+03  0.14231845631E+04  0.14642119912E+04  0.17200446750E+03 0.  0.
        -24    2    5    5    0    0  0.11575265247E+03 -0.97537831085E+02  0.88555126601E+03  0.90177725026E+03  0.78031143134E+02 0.  0.
          5    1    3    3  501    0 -0.19958500429E+03  0.63866128729E+02  0.36532629618E+03  0.42118695257E+03  0.47000000000E+01 0. -1.
        -11    1    4    4    0    0  0.30531206958E+01  0.30349345757E+02  0.62005866752E+02  0.69102328799E+02  0.00000000000E+00 0.  1.
         12    1    4    4    0    0 -0.84311744247E+02  0.58033959671E+01  0.35119166693E+03  0.36121702139E+03  0.00000000000E+00 0. -1.
         -5    1    5    5    0  502  0.16509097536E+03 -0.24810393681E+01  0.53763329710E+03  0.56243474097E+03  0.47000000000E+01 0.  1.
         11    1    6    6    0    0 -0.92664056091E+01 -0.24043072092E+01  0.21144778516E+02  0.23210959148E+02  0.00000000000E+00 0. -1.
        -12    1    6    6    0    0  0.12501905808E+03 -0.95133523875E+02  0.86440648750E+03  0.87856629111E+03  0.00000000000E+00 0.  1.
</event>
<event>
12    1  0.8052519E-002  0.2072641E+03  0.7818608E-02  0.1143944E+00
         21   -1    0    0  501  502  0.00000000000E+00  0.00000000000E+00  0.21119264832E+03  0.21119264832E+03  0.00000000000E+00 0. -1.
         21   -1    0    0  502  503 -0.00000000000E+00 -0.00000000000E+00 -0.94736094199E+03  0.94736094199E+03  0.00000000000E+00 0. -1.
         -6    2    1    2    0  503  0.85071545876E+02 -0.78451227336E+02 -0.88156016516E+03  0.90537933479E+03  0.17079710794E+03 0.  0.
        -24    2    3    3    0    0 -0.14591845469E+02 -0.25385760826E+02 -0.49177643476E+03  0.49954416900E+03  0.82722162604E+02 0.  0.
          6    2    1    2  501    0 -0.85071545876E+02  0.78451227336E+02  0.14539187149E+03  0.25317425551E+03  0.17194954019E+03 0.  0.
         24    2    5    5    0    0 -0.14596727731E+02  0.10118562959E+03  0.69258866445E+02  0.14686396676E+03  0.79502440553E+02 0.  0.
          5    1    5    5  501    0 -0.70474818145E+02 -0.22734402254E+02  0.76133005043E+02  0.10631028876E+03  0.47000000000E+01 0. -1.
        -11    1    6    6    0    0  0.56585540694E+01  0.75538809030E+02  0.64039758195E+01  0.76020666993E+02  0.00000000000E+00 0.  1.
         12    1    6    6    0    0 -0.20255281800E+02  0.25646820561E+02  0.62854890626E+02  0.70843299763E+02  0.00000000000E+00 0. -1.
         -5    1    3    3    0  503  0.99663391345E+02 -0.53065466510E+02 -0.38978373040E+03  0.40583516579E+03  0.47000000000E+01 0.  1.
         11    1    4    4    0    0 -0.13451910319E+02  0.26886389453E+02 -0.27093500799E+03  0.27259789138E+03  0.00000000000E+00 0. -1.
        -12    1    4    4    0    0 -0.11399351503E+01 -0.52272150279E+02 -0.22084142677E+03  0.22694627762E+03  0.00000000000E+00 0.  1.
</event>
<event>
12    1  0.8052519E-002  0.2895548E+03  0.7818608E-02  0.1090724E+00
         21   -1    0    0  501  502  0.00000000000E+00  0.00000000000E+00  0.18553397690E+03  0.18553397690E+03  0.00000000000E+00 0. -1.
         21   -1    0    0  502  503 -0.00000000000E+00 -0.00000000000E+00 -0.48039668988E+03  0.48039668988E+03  0.00000000000E+00 0.  1.
         -6    2    1    2    0  503  0.44788118156E+02  0.22754345551E+03 -0.23064142363E+03  0.36933939842E+03  0.17156376441E+03 0.  0.
        -24    2    3    3    0    0  0.12556494382E+02  0.10341251614E+03 -0.30726209242E+02  0.13177772090E+03  0.74628772916E+02 0.  0.
          6    2    1    2  501    0 -0.44788118156E+02 -0.22754345551E+03 -0.64221289347E+02  0.29659126836E+03  0.17337821889E+03 0.  0.
         24    2    5    5    0    0 -0.51965761325E+02 -0.73164166482E+02  0.17297890072E+02  0.12180010709E+03  0.80514678663E+02 0.  0.
          5    1    5    5  501    0  0.71776431688E+01 -0.15437928903E+03 -0.81519179419E+02  0.17479116126E+03  0.47000000000E+01 0. -1.
        -13    1    6    6    0    0 -0.50561664063E+02 -0.64499578377E+01 -0.55391148523E+01  0.51271489370E+02  0.00000000000E+00 0.  1.
         14    1    6    6    0    0 -0.14040972619E+01 -0.66714208645E+02  0.22837004924E+02  0.70528617724E+02  0.00000000000E+00 0. -1.
         -5    1    3    3    0  503  0.32231623774E+02  0.12413093938E+03 -0.19991521439E+03  0.23756167752E+03  0.47000000000E+01 0.  1.
         11    1    4    4    0    0 -0.24047359647E+02  0.71974387116E+02 -0.34539141869E+02  0.83375897163E+02  0.00000000000E+00 0. -1.
        -12    1    4    4    0    0  0.36603854029E+02  0.31438129021E+02  0.38129326270E+01  0.48401823740E+02  0.00000000000E+00 0.  1.
</event>
<event>
12    1  0.8052519E-002  0.1833964E+03  0.7818608E-02  0.1164809E+00
         21   -1    0    0  503  502  0.00000000000E+00  0.00000000000E+00  0.23649436462E+02  0.23649436462E+02  0.00000000000E+00 0.  1.
         21   -1    0    0  501  503 -0.00000000000E+00 -0.00000000000E+00 -0.15076091827E+04  0.15076091827E+04  0.00000000000E+00 0.  1.
          6    2    1    2  501    0 -0.35938400660E+02  0.48251402325E+02 -0.93488075666E+03  0.95269945573E+03  0.17324681038E+03 0.  0.
         24    2    3    3    0    0 -0.62956135338E+02 -0.29260075359E+01 -0.79123949309E+03  0.79776725163E+03  0.80003848974E+02 0.  0.
         -6    2    1    2    0  502  0.35938400660E+02 -0.48251402325E+02 -0.54907898959E+03  0.57855916345E+03  0.17211392253E+03 0.  0.
        -24    2    5    5    0    0  0.47549372284E+01  0.40189189096E+02 -0.26858140487E+03  0.28276340344E+03  0.78621822260E+02 0.  0.
          5    1    3    3  501    0  0.27017734678E+02  0.51177409861E+02 -0.14364126357E+03  0.15493220410E+03  0.47000000000E+01 0. -1.
        -13    1    4    4    0    0 -0.63743112047E+01  0.15052753288E+02 -0.29571354286E+02  0.33788788365E+02  0.00000000000E+00 0.  1.
         14    1    4    4    0    0 -0.56581824133E+02 -0.17978760823E+02 -0.76166813881E+03  0.76397846327E+03  0.00000000000E+00 0. -1.
         -5    1    5    5    0  502  0.31183463431E+02 -0.88440591421E+02 -0.28049758472E+03  0.29579576001E+03  0.47000000000E+01 0.  1.
         13    1    6    6    0    0 -0.11270120455E+01 -0.67581564129E+00 -0.21555801664E+03  0.21556202222E+03  0.00000000000E+00 0. -1.
        -14    1    6    6    0    0  0.58819492740E+01  0.40865004737E+02 -0.53023388226E+02  0.67201381224E+02  0.00000000000E+00 0.  1.
</event>
<event>
12    1  0.8052519E-002  0.3098635E+03  0.7818608E-02  0.1081678E+00
         21   -1    0    0  503  502  0.00000000000E+00  0.00000000000E+00  0.97913783311E+03  0.97913783311E+03  0.00000000000E+00 0. -1.
         21   -1    0    0  501  503 -0.00000000000E+00 -0.00000000000E+00 -0.11777761113E+03  0.11777761113E+03  0.00000000000E+00 0.  1.
          6    2    1    2  501    0 -0.54333557391E+02  0.25045895151E+03  0.18258181892E+03  0.35075494550E+03  0.15495512042E+03 0.  0.
         24    2    3    3    0    0 -0.60592056376E+02  0.83528846073E+02  0.99290421590E+02  0.16403489896E+03  0.80002467686E+02 0.  0.
         -6    2    1    2    0  502  0.54333557391E+02 -0.25045895151E+03  0.67877840307E+03  0.74616049874E+03  0.17416528806E+03 0.  0.
        -24    2    5    5    0    0  0.39898390304E+02 -0.61153953282E+02  0.13715871344E+03  0.17221038367E+03  0.74244299578E+02 0.  0.
          5    1    3    3  501    0  0.62584989847E+01  0.16693010544E+03  0.83291397328E+02  0.18672004654E+03  0.47000000000E+01 0. -1.
        -11    1    4    4    0    0 -0.45660352312E+02  0.90324789139E+01  0.11524292960E+02  0.47950628534E+02  0.00000000000E+00 0.  1.
         12    1    4    4    0    0 -0.14931704064E+02  0.74496367159E+02  0.87766128630E+02  0.11608427043E+03  0.00000000000E+00 0. -1.
         -5    1    5    5    0  502  0.14435167087E+02 -0.18930499823E+03  0.54161968962E+03  0.57395011507E+03  0.47000000000E+01 0.  1.
         13    1    6    6    0    0 -0.18643303432E+02 -0.34758439470E+02  0.44365712461E+02  0.59363611071E+02  0.00000000000E+00 0. -1.
        -14    1    6    6    0    0  0.58541693736E+02 -0.26395513812E+02  0.92793000983E+02  0.11284677260E+03  0.00000000000E+00 0.  1.
</event>
<event>
12    1  0.8052519E-002  0.1730875E+03  0.7818608E-02  0.1175229E+00
         21   -1    0    0  501  502  0.00000000000E+00  0.00000000000E+00  0.12134528383E+03  0.12134528383E+03  0.00000000000E+00 0. -1.
         21   -1    0    0  502  503 -0.00000000000E+00 -0.00000000000E+00 -0.45239568561E+03  0.45239568561E+03  0.00000000000E+00 0. -1.
         -6    2    1    2    0  503 -0.17784853753E+02 -0.42347233482E+01 -0.35976379868E+03  0.39828797390E+03  0.16990905038E+03 0.  0.
        -24    2    3    3    0    0  0.13141698944E+02  0.44546787273E+02 -0.30263804997E+03  0.31691519831E+03  0.81782229880E+02 0.  0.
          6    2    1    2  501    0  0.17784853753E+02  0.42347233482E+01  0.28713396893E+02  0.17545299554E+03  0.17211932076E+03 0.  0.
         24    2    5    5    0    0 -0.35489710404E+02 -0.21461128158E+02 -0.26213898324E+02  0.94597855135E+02  0.80879454525E+02 0.  0.
          5    1    5    5  501    0  0.53274564157E+02  0.25695851507E+02  0.54927295217E+02  0.80855140409E+02  0.47000000000E+01 0. -1.
        -13    1    6    6    0    0 -0.39522683525E+02  0.92907799943E+01 -0.43160085288E+02  0.59254991925E+02  0.00000000000E+00 0.  1.
         14    1    6    6    0    0  0.40329731208E+01 -0.30751908153E+02  0.16946186965E+02  0.35342863210E+02  0.00000000000E+00 0. -1.
         -5    1    3    3    0  503 -0.30926552697E+02 -0.48781510621E+02 -0.57125748711E+02  0.81372775582E+02  0.47000000000E+01 0.  1.
         13    1    4    4    0    0 -0.17420417014E+02 -0.14034713059E+02 -0.13290840404E+03  0.13477792091E+03  0.00000000000E+00 0. -1.
        -14    1    4    4    0    0  0.30562115958E+02  0.58581500332E+02 -0.16972964593E+03  0.18213727740E+03  0.00000000000E+00 0.  1.
</event>
<event>
12    1  0.8052519E-002  0.2370468E+03  0.7818608E-02  0.1121828E+00
         21   -1    0    0  501  502  0.00000000000E+00  0.00000000000E+00  0.38310532181E+03  0.38310532181E+03  0.00000000000E+00 0. -1.
         21   -1    0    0  502  503 -0.00000000000E+00 -0.00000000000E+00 -0.18853974642E+03  0.18853974642E+03  0.00000000000E+00 0. -1.
         -6    2    1    2    0  503  0.16224141646E+03  0.25567051403E+01 -0.37660725006E+02  0.24001979061E+03  0.17280727913E+03 0.  0.
        -24    2    3    3    0    0  0.80666270843E+02 -0.63529018175E+02 -0.28891156300E+02  0.13456447996E+03  0.82036071049E+02 0.  0.
          6    2    1    2  501    0 -0.16224141646E+03 -0.25567051403E+01  0.23222630039E+03  0.33162527762E+03  0.17238751754E+03 0.  0.
         24    2    5    5    0    0 -0.68503649685E+02  0.18449921421E+02  0.30971993169E+02  0.10857050081E+03  0.76125814710E+02 0.  0.
          5    1    5    5  501    0 -0.93737766774E+02 -0.21006626561E+02  0.20125430722E+03  0.22305477681E+03  0.47000000000E+01 0. -1.
        -11    1    6    6    0    0 -0.34931477576E+02 -0.22968913655E+02 -0.79542042303E+01  0.42556415323E+02  0.00000000000E+00 0.  1.
         12    1    6    6    0    0 -0.33572172108E+02  0.41418835076E+02  0.38926197399E+02  0.66014085490E+02  0.00000000000E+00 0. -1.
         -5    1    3    3    0  503  0.81575145615E+02  0.66085723316E+02 -0.87695687064E+01  0.10545531065E+03  0.47000000000E+01 0.  1.
         11    1    4    4    0    0  0.20119454752E+02 -0.24491368129E+02 -0.50261604740E+02  0.59420943138E+02  0.00000000000E+00 0. -1.
        -12    1    4    4    0    0  0.60546816091E+02 -0.39037650046E+02  0.21370448441E+02  0.75143536824E+02  0.00000000000E+00 0.  1.
</event>
<event>
12    1  0.8052519E-002  0.1794501E+03  0.7818608E-02  0.1168431E+00
         21   -1    0    0  503  502  0.00000000000E+00  0.00000000000E+00  0.64670941525E+02  0.64670941525E+02  0.00000000000E+00 0. -1.
         21   -1    0    0  501  503 -0.00000000000E+00 -0.00000000000E+00 -0.52056918069E+03  0.52056918069E+03  0.00000000000E+00 0. -1.
          6    2    1    2  501    0  0.48798487282E+02 -0.18860688746E+01 -0.16573883286E+03  0.24427794353E+03  0.17267745469E+03 0.  0.
         24    2    3    3    0    0  0.69715510692E+02  0.50647359455E+02 -0.13994753529E+03  0.18195167306E+03  0.78074907895E+02 0.  0.
         -6    2    1    2    0  502 -0.48798487282E+02  0.18860688746E+01 -0.29015940631E+03  0.34096217869E+03  0.17227268098E+03 0.  0.
        -24    2    5    5    0    0 -0.27985262547E+02  0.49678239008E+02 -0.26561623443E+03  0.28315440122E+03  0.79833129639E+02 0.  0.
          5    1    3    3  501    0 -0.20917023410E+02 -0.52533428330E+02 -0.25791297566E+02  0.62326270469E+02  0.47000000000E+01 0. -1.
        -11    1    4    4    0    0  0.37371550256E+02  0.83194533586E+01 -0.11848938508E+03  0.12452140559E+03  0.00000000000E+00 0.  1.
         12    1    4    4    0    0  0.32343960436E+02  0.42327906097E+02 -0.21458150214E+02  0.57430267471E+02  0.00000000000E+00 0. -1.
         -5    1    5    5    0  502 -0.20813224735E+02 -0.47792170134E+02 -0.24543171876E+02  0.57807777467E+02  0.47000000000E+01 0.  1.
         11    1    6    6    0    0  0.23955658125E+02  0.32965344508E+02 -0.81448308723E+02  0.91073676156E+02  0.00000000000E+00 0. -1.
        -12    1    6    6    0    0 -0.51940920672E+02  0.16712894500E+02 -0.18416792571E+03  0.19208072507E+03  0.00000000000E+00 0.  1.
</event>
<event>
12    1  0.8052519E-002  0.2586140E+03  0.7818608E-02  0.1108210E+00
         21   -1    0    0  501  502  0.00000000000E+00  0.00000000000E+00  0.80440622720E+02  0.80440622720E+02  0.00000000000E+00 0.  1.
         21   -1    0    0  502  503 -0.00000000000E+00 -0.00000000000E+00 -0.35285940699E+04  0.35285940699E+04  0.00000000000E+00 0.  1.
         -6    2    1    2    0  503  0.17952587698E+03  0.65920573562E+02 -0.33019720088E+04  0.33119653389E+04  0.17181442448E+03 0.  0.
        -24    2    3    3    0    0  0.18487862698E+03  0.62088891251E+02 -0.22258769647E+04  0.22358398965E+04  0.80103956157E+02 0.  0.
          6    2    1    2  501    0 -0.17952587698E+03 -0.65920573562E+02 -0.14618143837E+03  0.29706935374E+03  0.17408654597E+03 0.  0.
         24    2    5    5    0    0 -0.19244047774E+03 -0.79789048232E+02 -0.15840811893E+03  0.27403235698E+03  0.81246358915E+02 0.  0.
          5    1    5    5  501    0  0.12914600761E+02  0.13868474671E+02  0.12226680560E+02  0.23036996767E+02  0.47000000000E+01 0. -1.
        -13    1    6    6    0    0 -0.16296285588E+02  0.50278814156E+00 -0.49069369353E+02  0.51707105205E+02  0.00000000000E+00 0.  1.
         14    1    6    6    0    0 -0.17614419215E+03 -0.80291836374E+02 -0.10933874958E+03  0.22232525177E+03  0.00000000000E+00 0. -1.
         -5    1    3    3    0  503 -0.53527499999E+01  0.38316823106E+01 -0.10760950441E+04  0.10761254423E+04  0.47000000000E+01 0.  1.
         11    1    4    4    0    0  0.16906392525E+03  0.71622198009E+02 -0.21467126654E+04  0.21545504445E+04  0.00000000000E+00 0. -1.
        -12    1    4    4    0    0  0.15814701726E+02 -0.95333067581E+01 -0.79164299234E+02  0.81289451971E+02  0.00000000000E+00 0.  1.
</event>
<event>
12    1  0.8052519E-002  0.2421015E+03  0.7818608E-02  0.1118408E+00
         21   -1    0    0  503  502  0.00000000000E+00  0.00000000000E+00  0.25741314338E+04  0.25741314338E+04  0.00000000000E+00 0.  1.
         21   -1    0    0  501  503 -0.00000000000E+00 -0.00000000000E+00 -0.22769925983E+02  0.22769925983E+02  0.00000000000E+00 0.  1.
          6    2    1    2  501    0  0.10975693047E+03 -0.13034785904E+03  0.12928174716E+04  0.13152827605E+04  0.17191444696E+03 0.  0.
         24    2    3    3    0    0  0.75142427852E+01 -0.17712578472E+02  0.47682608132E+03  0.48521992395E+03  0.87778491080E+02 0.  0.
         -6    2    1    2    0  502 -0.10975693047E+03  0.13034785904E+03  0.12585440362E+04  0.12816185993E+04  0.17197672738E+03 0.  0.
        -24    2    5    5    0    0 -0.68299488791E+01  0.10371899848E+03  0.54680768086E+03  0.56197022035E+03  0.77508772802E+02 0.  0.
          5    1    3    3  501    0  0.10224268769E+03 -0.11263528057E+03  0.81599139024E+03  0.83006283651E+03  0.47000000000E+01 0. -1.
        -11    1    4    4    0    0  0.32924771928E+02  0.91396469471E+01  0.84374810127E+02  0.91031216277E+02  0.00000000000E+00 0.  1.
         12    1    4    4    0    0 -0.25410529143E+02 -0.26852225419E+02  0.39245127119E+03  0.39418870768E+03  0.00000000000E+00 0. -1.
         -5    1    5    5    0  502 -0.10292698159E+03  0.26628860566E+02  0.71173635535E+03  0.71964837892E+03  0.47000000000E+01 0.  1.
         13    1    6    6    0    0 -0.23353196736E+02  0.16733519503E+02  0.26568948947E+03  0.26723825940E+03  0.00000000000E+00 0. -1.
        -14    1    6    6    0    0  0.16523247857E+02  0.86985478976E+02  0.28111819140E+03  0.29473196095E+03  0.00000000000E+00 0.  1.
</event>
<event>
12    1  0.8052519E-002  0.1742598E+03  0.7818608E-02  0.1173769E+00
         21   -1    0    0  503  502  0.00000000000E+00  0.00000000000E+00  0.16675918885E+03  0.16675918885E+03  0.00000000000E+00 0. -1.
         21   -1    0    0  501  503 -0.00000000000E+00 -0.00000000000E+00 -0.18229708401E+03  0.18229708401E+03  0.00000000000E+00 0. -1.
          6    2    1    2  501    0 -0.20529425532E+02  0.19631571437E+02 -0.23054926780E+02  0.17463438090E+03  0.17075942561E+03 0.  0.
         24    2    3    3    0    0  0.14587353682E+02 -0.26884772440E+02 -0.60104284977E+02  0.10541225024E+03  0.81016267203E+02 0.  0.
         -6    2    1    2    0  502  0.20529425532E+02 -0.19631571437E+02  0.75170316189E+01  0.17442189197E+03  0.17192915612E+03 0.  0.
        -24    2    5    5    0    0  0.52784726930E+01 -0.35130598053E+02  0.66909466133E+02  0.11099979277E+03  0.81129872081E+02 0.  0.
          5    1    3    3  501    0 -0.35116779214E+02  0.46516343877E+02  0.37049358197E+02  0.69222130658E+02  0.47000000000E+01 0. -1.
        -13    1    4    4    0    0 -0.23259871869E+02 -0.35890035515E+02 -0.48822314561E+02  0.64905582870E+02  0.00000000000E+00 0.  1.
         14    1    4    4    0    0  0.37847225551E+02  0.90052630753E+01 -0.11281970417E+02  0.40506667370E+02  0.00000000000E+00 0. -1.
         -5    1    5    5    0  502  0.15250952839E+02  0.15499026615E+02 -0.59392434514E+02  0.63422099193E+02  0.47000000000E+01 0.  1.
         11    1    6    6    0    0 -0.36229600042E+02 -0.93386466649E+01  0.16820960151E+02  0.41021201118E+02  0.00000000000E+00 0. -1.
        -12    1    6    6    0    0  0.41508072735E+02 -0.25791951388E+02  0.50088505982E+02  0.69978591655E+02  0.00000000000E+00 0.  1.
</event>
<event>
12    1  0.8052519E-002  0.2977956E+03  0.7818608E-02  0.1086710E+00
         21   -1    0    0  503  502  0.00000000000E+00  0.00000000000E+00  0.82298115842E+02  0.82298115842E+02  0.00000000000E+00 0. -1.
         21   -1    0    0  501  503 -0.00000000000E+00 -0.00000000000E+00 -0.11517193450E+04  0.11517193450E+04  0.00000000000E+00 0. -1.
          6    2    1    2  501    0  0.19231287289E+03 -0.14583227218E+03 -0.69940627991E+03  0.75905083711E+03  0.16952208187E+03 0.  0.
         24    2    3    3    0    0  0.18315754184E+03 -0.10729039984E+03 -0.67556561040E+03  0.71257758101E+03  0.79498427465E+02 0.  0.
         -6    2    1    2    0  502 -0.19231287289E+03  0.14583227218E+03 -0.37001494926E+03  0.47496662375E+03  0.17444465687E+03 0.  0.
        -24    2    5    5    0    0 -0.20490327136E+03  0.14241986087E+03 -0.37742341260E+03  0.45924599992E+03  0.78674574532E+02 0.  0.
          5    1    3    3  501    0  0.91553310474E+01 -0.38541872335E+02 -0.23840669517E+02  0.46473256102E+02  0.47000000000E+01 0. -1.
        -11    1    4    4    0    0  0.84460894216E+02 -0.13744802629E+02 -0.33769635145E+03  0.34836961410E+03  0.00000000000E+00 0.  1.
         12    1    4    4    0    0  0.98696647628E+02 -0.93545597215E+02 -0.33786925895E+03  0.36420796690E+03  0.00000000000E+00 0. -1.
         -5    1    5    5    0  502  0.12590398464E+02  0.34124113037E+01  0.74084633452E+01  0.15720623827E+02  0.47000000000E+01 0.  1.
         13    1    6    6    0    0 -0.67134046083E+02  0.19436290209E+02 -0.60490337738E+02  0.92432843082E+02  0.00000000000E+00 0. -1.
        -14    1    6    6    0    0 -0.13776922527E+03  0.12298357067E+03 -0.31693307486E+03  0.36681315684E+03  0.00000000000E+00 0.  1.
</event>
<event>
12    1  0.8052519E-002  0.1860267E+03  0.7818608E-02  0.1162115E+00
         21   -1    0    0  503  502  0.00000000000E+00  0.00000000000E+00  0.32029029168E+03  0.32029029168E+03  0.00000000000E+00 0.  1.
         21   -1    0    0  501  503 -0.00000000000E+00 -0.00000000000E+00 -0.12736709599E+03  0.12736709599E+03  0.00000000000E+00 0.  1.
          6    2    1    2  501    0 -0.36734055048E+02 -0.59260068390E+02  0.91517729137E+01  0.18616576975E+03  0.17237398984E+03 0.  0.
         24    2    3    3    0    0 -0.79273170018E+02 -0.16881615675E+01 -0.63034676743E+01  0.11278283428E+03  0.79957167461E+02 0.  0.
         -6    2    1    2    0  502  0.36734055048E+02  0.59260068390E+02  0.18377142278E+03  0.26149161792E+03  0.17246676173E+03 0.  0.
        -24    2    5    5    0    0  0.42991315937E+02  0.58744469543E+02  0.36761537870E+02  0.11427268089E+03  0.80047916801E+02 0.  0.
          5    1    3    3  501    0  0.42539114970E+02 -0.57571906823E+02  0.15455240588E+02  0.73382935477E+02  0.47000000000E+01 0. -1.
        -13    1    4    4    0    0 -0.73973218117E+02 -0.29938578629E+02  0.88474024172E+01  0.80290921146E+02  0.00000000000E+00 0.  1.
         14    1    4    4    0    0 -0.52999519006E+01  0.28250417061E+02 -0.15150870092E+02  0.32491913129E+02  0.00000000000E+00 0. -1.
         -5    1    5    5    0  502 -0.62572608898E+01  0.51559884702E+00  0.14700988491E+03  0.14721893702E+03  0.47000000000E+01 0.  1.
         11    1    6    6    0    0  0.53130990800E-01 -0.11622437093E+02 -0.13430602657E+02  0.17761333132E+02  0.00000000000E+00 0. -1.
        -12    1    6    6    0    0  0.42938184947E+02  0.70366906637E+02  0.50192140528E+02  0.96511347762E+02  0.00000000000E+00 0.  1.
</event>
<event>
12    1  0.8052519E-002  0.3294863E+03  0.7818608E-02  0.1072266E+00
         21   -1    0    0  501  502  0.00000000000E+00  0.00000000000E+00  0.17482938310E+04  0.17482938310E+04  0.00000000000E+00 0.  1.
         21   -1    0    0  502  503 -0.00000000000E+00 -0.00000000000E+00 -0.66339390666E+02  0.66339390666E+02  0.00000000000E+00 0.  1.
         -6    2    1    2    0  503 -0.19367084670E+03 -0.20285597712E+03  0.11175197591E+04  0.11650801047E+04  0.17292279806E+03 0.  0.
        -24    2    3    3    0    0 -0.82899487496E+02 -0.80618720354E+02  0.30585076784E+03  0.33680425553E+03  0.80750921077E+02 0.  0.
          6    2    1    2  501    0  0.19367084670E+03  0.20285597712E+03  0.56443468122E+03  0.64955311694E+03  0.15707895482E+03 0.  0.
         24    2    5    5    0    0  0.11226121683E+03  0.51665789525E+02  0.21706479463E+03  0.26203030630E+03  0.79188520245E+02 0.  0.
          5    1    5    5  501    0  0.81409629877E+02  0.15119018760E+03  0.34736988659E+03  0.38752281064E+03  0.47000000000E+01 0. -1.
        -13    1    6    6    0    0  0.11946792207E+03  0.59035304393E+02  0.18258056896E+03  0.22603852709E+03  0.00000000000E+00 0.  1.
         14    1    6    6    0    0 -0.72067052467E+01 -0.73695148680E+01  0.34484225674E+02  0.35991779204E+02  0.00000000000E+00 0. -1.
         -5    1    3    3    0  503 -0.11077135921E+03 -0.12223725677E+03  0.81166899124E+03  0.82827584916E+03  0.47000000000E+01 0.  1.
         11    1    4    4    0    0 -0.60754712307E+02 -0.36264005758E+01  0.13708315849E+03  0.14998692673E+03  0.00000000000E+00 0. -1.
        -12    1    4    4    0    0 -0.22144775188E+02 -0.76992319778E+02  0.16876760935E+03  0.18681732880E+03  0.00000000000E+00 0.  1.
</event>
<event>
12    1  0.8052519E-002  0.1760671E+03  0.7818608E-02  0.1171789E+00
         21   -1    0    0  503  502  0.00000000000E+00  0.00000000000E+00  0.28751561545E+03  0.28751561545E+03  0.00000000000E+00 0. -1.
         21   -1    0    0  501  503 -0.00000000000E+00 -0.00000000000E+00 -0.13805689051E+03  0.13805689051E+03  0.00000000000E+00 0. -1.
          6    2    1    2  501    0  0.36858546687E+02 -0.19012531469E+02 -0.25437661067E+02  0.17740246395E+03  0.17060050058E+03 0.  0.
         24    2    3    3    0    0  0.67565880026E+02  0.36761285739E+02 -0.65863684797E+01  0.11083580384E+03  0.79527698884E+02 0.  0.
         -6    2    1    2    0  502 -0.36858546687E+02  0.19012531469E+02  0.17489638600E+03  0.24817004201E+03  0.17111281394E+03 0.  0.
        -24    2    5    5    0    0 -0.39946157523E+02 -0.44307044503E+02  0.15149217758E+03  0.18042973632E+03  0.77757315976E+02 0.  0.
          5    1    3    3  501    0 -0.30707333339E+02 -0.55773817208E+02 -0.18851292588E+02  0.66566660116E+02  0.47000000000E+01 0. -1.
        -11    1    4    4    0    0 -0.28263072119E+01 -0.16005024382E+02  0.12876183606E+02  0.20735113266E+02  0.00000000000E+00 0.  1.
         12    1    4    4    0    0  0.70392187238E+02  0.52766310120E+02 -0.19462552086E+02  0.90100690572E+02  0.00000000000E+00 0. -1.
         -5    1    5    5    0  502  0.30876108364E+01  0.63319575972E+02  0.23404208423E+02  0.67740305682E+02  0.47000000000E+01 0.  1.
         11    1    6    6    0    0 -0.46587563361E+02  0.41254363218E+01  0.93781014333E+02  0.10479646432E+03  0.00000000000E+00 0. -1.
        -12    1    6    6    0    0  0.66414058374E+01 -0.48432480825E+02  0.57711163249E+02  0.75633272003E+02  0.00000000000E+00 0.  1.
</event>
<event>
12    1  0.8052519E-002  0.1939332E+03  0.7818608E-02  0.1155149E+00
         21   -1    0    0  503  502  0.00000000000E+00  0.00000000000E+00  0.85567543332E+03  0.85567543332E+03  0.00000000000E+00 0. -1.
         21   -1    0    0  501  503 -0.00000000000E+00 -0.00000000000E+00 -0.12666296386E+03  0.12666296386E+03  0.00000000000E+00 0.  1.
          6    2    1    2  501    0 -0.17047665622E+02  0.87412119567E+02 -0.32581359318E+02  0.19665100328E+03  0.17227469508E+03 0.  0.
         24    2    3    3    0    0 -0.10014167142E+02  0.11166447025E+03 -0.67404547051E+02  0.15337986950E+03  0.80079797358E+02 0.  0.
         -6    2    1    2    0  502  0.17047665622E+02 -0.87412119567E+02  0.76159382878E+03  0.78568739389E+03  0.17131263625E+03 0.  0.
        -24    2    5    5    0    0  0.57104874520E+02 -0.15878520239E+02  0.55399190202E+03  0.56243353433E+03  0.76885362278E+02 0.  0.
          5    1    3    3  501    0 -0.70334984802E+01 -0.24252350684E+02  0.34823187733E+02  0.43271133778E+02  0.47000000000E+01 0. -1.
        -13    1    4    4    0    0  0.26176212948E+02  0.53521317885E+02 -0.34565920354E+01  0.59679758889E+02  0.00000000000E+00 0.  1.
         14    1    4    4    0    0 -0.36190380090E+02  0.58143152365E+02 -0.63947955016E+02  0.93700110612E+02  0.00000000000E+00 0. -1.
         -5    1    5    5    0  502 -0.40057208898E+02 -0.71533599328E+02  0.20760192676E+03  0.22325385957E+03  0.47000000000E+01 0.  1.
         11    1    6    6    0    0  0.30292687535E+01  0.22739419349E+02  0.26074536761E+03  0.26175256329E+03  0.00000000000E+00 0. -1.
        -12    1    6    6    0    0  0.54075605766E+02 -0.38617939588E+02  0.29324653441E+03  0.30068097103E+03  0.00000000000E+00 0.  1.
</event>
<event>
12    1  0.8052519E-002  0.3545777E+03  0.7818608E-02  0.1061453E+00
         21   -1    0    0  501  502  0.00000000000E+00  0.00000000000E+00  0.49876894996E+03  0.49876894996E+03  0.00000000000E+00 0.  1.
         21   -1    0    0  502  503 -0.00000000000E+00 -0.00000000000E+00 -0.51813335250E+03  0.51813335250E+03  0.00000000000E+00 0.  1.
         -6    2    1    2    0  503  0.33491385959E+02  0.29747080368E+03 -0.37729699368E+03  0.51307585978E+03  0.17687075643E+03 0.  0.
        -24    2    3    3    0    0  0.68585467815E+02  0.89492290942E+02 -0.14327669744E+03  0.19799770219E+03  0.77214257164E+02 0.  0.
          6    2    1    2  501    0 -0.33491385959E+02 -0.29747080368E+03  0.35793259114E+03  0.50382644268E+03  0.19003892382E+03 0.  0.
         24    2    5    5    0    0 -0.85473733952E+02 -0.23877617616E+03  0.32143390783E+03  0.41721542903E+03  0.80181890854E+02 0.  0.
          5    1    5    5  501    0  0.51982347993E+02 -0.58694627516E+02  0.36498683317E+02  0.86611013653E+02  0.47000000000E+01 0. -1.
        -13    1    6    6    0    0 -0.45767738774E+02 -0.49242746017E+02  0.49989245609E+02  0.83776241408E+02  0.00000000000E+00 0.  1.
         14    1    6    6    0    0 -0.39705995179E+02 -0.18953343015E+03  0.27144466222E+03  0.33343918762E+03  0.00000000000E+00 0. -1.
         -5    1    3    3    0  503 -0.35094081855E+02  0.20797851274E+03 -0.23402029624E+03  0.31507815759E+03  0.47000000000E+01 0.  1.
         13    1    4    4    0    0  0.20584166464E+02  0.46174913230E+02 -0.12449917462E+02  0.52065640931E+02  0.00000000000E+00 0. -1.
        -14    1    4    4    0    0  0.48001301351E+02  0.43317377712E+02 -0.13082677998E+03  0.14593206126E+03  0.00000000000E+00 0.  1.
</event>
<event>
12    1  0.8052519E-002  0.3294090E+03  0.7818608E-02  0.1071525E+00
         21   -1    0    0  501  502  0.00000000000E+00  0.00000000000E+00  0.56548532637E+02  0.56548532637E+02  0.00000000000E+00 0.  1.
         21   -1    0    0  502  503 -0.00000000000E+00 -0.00000000000E+00 -0.19145200058E+04  0.19145200058E+04  0.00000000000E+00 0. -1.
         -6    2    1    2    0  503  0.20970573411E+03 -0.18560365171E+03 -0.96432760527E+03  0.10190377986E+04  0.17345055247E+03 0.  0.
        -24    2    3    3    0    0  0.11660208246E+03 -0.31181103394E+02 -0.35231158951E+03  0.38099367239E+03  0.80401588667E+02 0.  0.
          6    2    1    2  501    0 -0.20970573411E+03  0.18560365171E+03 -0.89364386788E+03  0.95203073986E+03  0.17128326423E+03 0.  0.
         24    2    5    5    0    0 -0.83852516584E+02  0.61788986789E+02 -0.23389435308E+03  0.26905151918E+03  0.82662132471E+02 0.  0.
          5    1    5    5  501    0 -0.12585321752E+03  0.12381466492E+03 -0.65974951480E+03  0.68297922068E+03  0.47000000000E+01 0. -1.
        -13    1    6    6    0    0 -0.22121717118E+02 -0.18668518364E+02 -0.76741060752E+02  0.82018743903E+02  0.00000000000E+00 0.  1.
         14    1    6    6    0    0 -0.61730799466E+02  0.80457505154E+02 -0.15715329233E+03  0.18703277528E+03  0.00000000000E+00 0. -1.
         -5    1    3    3    0  503  0.93103651645E+02 -0.15442254832E+03 -0.61201601577E+03  0.63804412616E+03  0.47000000000E+01 0.  1.
         11    1    4    4    0    0  0.94051816415E+02 -0.34211143447E+02 -0.34138609507E+03  0.35575358384E+03  0.00000000000E+00 0. -1.
        -12    1    4    4    0    0  0.22550266047E+02  0.30300400532E+01 -0.10925494434E+02  0.25240088552E+02  0.00000000000E+00 0.  1.
</event>
<event>
12    1  0.8052519E-002  0.2157139E+03  0.7818608E-02  0.1137389E+00
         21   -1    0    0  501  502  0.00000000000E+00  0.00000000000E+00  0.16464851134E+03  0.16464851134E+03  0.00000000000E+00 0. -1.
         21   -1    0    0  502  503 -0.00000000000E+00 -0.00000000000E+00 -0.29564241311E+03  0.29564241311E+03  0.00000000000E+00 0. -1.
         -6    2    1    2    0  503 -0.70567480469E+01 -0.12823138149E+03 -0.11730722957E+03  0.24554727457E+03  0.17331876138E+03 0.  0.
        -24    2    3    3    0    0  0.42285367796E+01 -0.15454744804E+03 -0.12611944993E+03  0.21522173682E+03  0.80693780010E+02 0.  0.
          6    2    1    2  501    0  0.70567480469E+01  0.12823138149E+03 -0.13686672202E+02  0.21474364987E+03  0.17156463876E+03 0.  0.
         24    2    5    5    0    0 -0.19771352478E+02  0.24549793895E+02 -0.52955498519E+02  0.10057820280E+03  0.79486422087E+02 0.  0.
          5    1    5    5  501    0  0.26828100525E+02  0.10368158760E+03  0.39268826316E+02  0.11416544707E+03  0.47000000000E+01 0. -1.
        -13    1    6    6    0    0 -0.27055396007E+02 -0.23907539800E+02 -0.17689472839E+02  0.40205501635E+02  0.00000000000E+00 0.  1.
         14    1    6    6    0    0  0.72840435288E+01  0.48457333695E+02 -0.35266025679E+02  0.60372701166E+02  0.00000000000E+00 0. -1.
         -5    1    3    3    0  503 -0.11285284827E+02  0.26316066546E+02  0.88122203577E+01  0.30325537748E+02  0.47000000000E+01 0.  1.
         11    1    4    4    0    0 -0.36551736364E+02 -0.51280296217E+02 -0.52686078660E+02  0.82106766444E+02  0.00000000000E+00 0. -1.
        -12    1    4    4    0    0  0.40780273144E+02 -0.10326715182E+03 -0.73433371265E+02  0.13311497038E+03  0.00000000000E+00 0.  1.
</event>
<event>
12    1  0.8052519E-002  0.1812455E+03  0.7818608E-02  0.1166622E+00
         21   -1    0    0  503  502  0.00000000000E+00  0.00000000000E+00  0.22553578834E+03  0.22553578834E+03  0.00000000000E+00 0. -1.
         21   -1    0    0  501  503 -0.00000000000E+00 -0.00000000000E+00 -0.19918838248E+03  0.19918838248E+03  0.00000000000E+00 0. -1.
          6    2    1    2  501    0 -0.56148800175E+02  0.13571440199E+02 -0.96982465039E+02  0.20556147613E+03  0.17179362676E+03 0.  0.
         24    2    3    3    0    0 -0.79429941030E+02  0.46807783628E+02 -0.28108477722E+02  0.12548412494E+03  0.80349828583E+02 0.  0.
         -6    2    1    2    0  502  0.56148800175E+02 -0.13571440199E+02  0.12332987090E+03  0.21916269468E+03  0.17171242802E+03 0.  0.
        -24    2    5    5    0    0 -0.57371370387E+00 -0.65931633689E+02  0.59643557756E+02  0.11897751652E+03  0.79063177183E+02 0.  0.
          5    1    3    3  501    0  0.23281140855E+02 -0.33236343428E+02 -0.68873987317E+02  0.80077351186E+02  0.47000000000E+01 0. -1.
        -11    1    4    4    0    0 -0.59433220483E+02  0.17080370939E+02 -0.53338903678E+02  0.81664468492E+02  0.00000000000E+00 0.  1.
         12    1    4    4    0    0 -0.19996720546E+02  0.29727412688E+02  0.25230425957E+02  0.43819656453E+02  0.00000000000E+00 0. -1.
         -5    1    5    5    0  502  0.56722513879E+02  0.52360193490E+02  0.63686313139E+02  0.10018517817E+03  0.47000000000E+01 0.  1.
         13    1    6    6    0    0 -0.10898074136E+02 -0.69704852939E+02  0.73106061459E+02  0.10159739546E+03  0.00000000000E+00 0. -1.
        -14    1    6    6    0    0  0.10324360432E+02  0.37732192496E+01 -0.13462503703E+02  0.17380121052E+02  0.00000000000E+00 0.  1.
</event>
<event>
12    1  0.8052519E-002  0.1841328E+03  0.7818608E-02  0.1163920E+00
         21   -1    0    0  501  502  0.00000000000E+00  0.00000000000E+00  0.19345225906E+03  0.19345225906E+03  0.00000000000E+00 0. -1.
         21   -1    0    0  502  503 -0.00000000000E+00 -0.00000000000E+00 -0.17625342189E+03  0.17625342189E+03  0.00000000000E+00 0. -1.
         -6    2    1    2    0  503 -0.38730585759E+02  0.37507437899E+02  0.23996036770E+02  0.18544750724E+03  0.17580700211E+03 0.  0.
        -24    2    3    3    0    0 -0.18283870103E+02  0.78413662779E+02  0.59988565896E+02  0.12706138245E+03  0.77865040009E+02 0.  0.
          6    2    1    2  501    0  0.38730585759E+02 -0.37507437899E+02 -0.67971995971E+01  0.18425817371E+03  0.17606250733E+03 0.  0.
         24    2    5    5    0    0 -0.28068139214E+01  0.14957296006E+02  0.50354724087E+02  0.96131354543E+02  0.80461420446E+02 0.  0.
          5    1    5    5  501    0  0.41537399680E+02 -0.52464733906E+02 -0.57151923684E+02  0.88126819169E+02  0.47000000000E+01 0. -1.
        -11    1    6    6    0    0 -0.38527892710E+02 -0.58978904981E+01  0.33754635114E+02  0.51561216245E+02  0.00000000000E+00 0.  1.
         12    1    6    6    0    0  0.35721078789E+02  0.20855186504E+02  0.16600088973E+02  0.44570138298E+02  0.00000000000E+00 0. -1.
         -5    1    3    3    0  503 -0.20446715656E+02 -0.40906224879E+02 -0.35992529126E+02  0.58386124789E+02  0.47000000000E+01 0.  1.
         13    1    4    4    0    0 -0.13480086971E+02 -0.47357632123E+01  0.38471238630E+02  0.41038718299E+02  0.00000000000E+00 0. -1.
        -14    1    4    4    0    0 -0.48037831325E+01  0.83149425991E+02  0.21517327266E+02  0.86022664151E+02  0.00000000000E+00 0.  1.
</event>
<event>
12    1  0.8052519E-002  0.2193875E+03  0.7818608E-02  0.1134488E+00
         21   -1    0    0  501  502  0.00000000000E+00  0.00000000000E+00  0.47072688489E+02  0.47072688489E+02  0.00000000000E+00 0.  1.
         21   -1    0    0  502  503 -0.00000000000E+00 -0.00000000000E+00 -0.12518000215E+04  0.12518000215E+04  0.00000000000E+00 0.  1.
         -6    2    1    2    0  503  0.38626984254E+02 -0.13112865474E+03 -0.88343051525E+03  0.91026389879E+03  0.17159289655E+03 0.  0.
        -24    2    3    3    0    0  0.36915221417E+01 -0.14217882625E+03 -0.81205936580E+03  0.82989895757E+03  0.95201996897E+02 0.  0.
          6    2    1    2  501    0 -0.38626984254E+02  0.13112865474E+03 -0.32129681780E+03  0.38860881124E+03  0.17058251681E+03 0.  0.
         24    2    5    5    0    0  0.40296762609E+02  0.10358759575E+03 -0.17049266065E+03  0.21612272031E+03  0.72712198640E+02 0.  0.
          5    1    5    5  501    0 -0.78923746864E+02  0.27541058993E+02 -0.15080415715E+03  0.17248609093E+03  0.47000000000E+01 0. -1.
        -13    1    6    6    0    0 -0.19925613220E+02  0.32146746386E+02 -0.34965340037E+02  0.51507459356E+02  0.00000000000E+00 0.  1.
         14    1    6    6    0    0  0.60222375830E+02  0.71440849366E+02 -0.13552732061E+03  0.16461526096E+03  0.00000000000E+00 0. -1.
         -5    1    3    3    0  503  0.34935462113E+02  0.11050171509E+02 -0.71371149448E+02  0.80364941217E+02  0.47000000000E+01 0.  1.
         13    1    4    4    0    0  0.27141242470E+02 -0.18218502574E+00 -0.13879520162E+03  0.14142414301E+03  0.00000000000E+00 0. -1.
        -14    1    4    4    0    0 -0.23449720328E+02 -0.14199664123E+03 -0.67326416418E+03  0.68847481456E+03  0.00000000000E+00 0.  1.
</event>
<event>
12    1  0.8052519E-002  0.1818156E+03  0.7818608E-02  0.1166157E+00
         21   -1    0    0  503  502  0.00000000000E+00  0.00000000000E+00  0.35368909948E+03  0.35368909948E+03  0.00000000000E+00 0.  1.
         21   -1    0    0  501  503 -0.00000000000E+00 -0.00000000000E+00 -0.95100664554E+02  0.95100664554E+02  0.00000000000E+00 0.  1.
          6    2    1    2  501    0  0.57103607711E+02  0.49004923346E+01  0.98134833204E+02  0.20660919352E+03  0.17254586787E+03 0.  0.
         24    2    3    3    0    0  0.10796161263E+02  0.80944404965E+01  0.12764989589E+03  0.15140222089E+03  0.80287355820E+02 0.  0.
         -6    2    1    2    0  502 -0.57103607711E+02 -0.49004923346E+01  0.16045360173E+03  0.24218057052E+03  0.17210820315E+03 0.  0.
        -24    2    5    5    0    0 -0.68122235034E+01  0.58777877222E+02  0.78402390761E+02  0.12668750018E+03  0.80009640581E+02 0.  0.
          5    1    3    3  501    0  0.46307446449E+02 -0.31939481619E+01 -0.29515062686E+02  0.55206972629E+02  0.47000000000E+01 0. -1.
        -11    1    4    4    0    0 -0.14184784893E+02  0.39073078482E+02  0.67843182402E+02  0.79565136730E+02  0.00000000000E+00 0.  1.
         12    1    4    4    0    0  0.24980946156E+02 -0.30978637985E+02  0.59806713489E+02  0.71837084160E+02  0.00000000000E+00 0. -1.
         -5    1    5    5    0  502 -0.50291384208E+02 -0.63678369557E+02  0.82051210966E+02  0.11549307034E+03  0.47000000000E+01 0.  1.
         13    1    6    6    0    0 -0.34201635149E+02  0.62161592794E+02  0.64037220747E+02  0.95575002519E+02  0.00000000000E+00 0. -1.
        -14    1    6    6    0    0  0.27389411646E+02 -0.33837155716E+01  0.14365170014E+02  0.31112497664E+02  0.00000000000E+00 0.  1.
</event>
<event>
12    1  0.8052519E-002  0.2431752E+03  0.7818608E-02  0.1117785E+00
         21   -1    0    0  501  502  0.00000000000E+00  0.00000000000E+00  0.12033758846E+04  0.12033758846E+04  0.00000000000E+00 0.  1.
         21   -1    0    0  502  503 -0.00000000000E+00 -0.00000000000E+00 -0.66365015438E+02  0.66365015438E+02  0.00000000000E+00 0.  1.
         -6    2    1    2    0  503 -0.17000694290E+03 -0.24862308502E+02  0.24356689997E+03  0.34379472004E+03  0.17131689861E+03 0.  0.
        -24    2    3    3    0    0 -0.10439305405E+03 -0.58864324402E+01  0.24183428759E+03  0.27530852999E+03  0.79864912250E+02 0.  0.
          6    2    1    2  501    0  0.17000694290E+03  0.24862308502E+02  0.89344396921E+03  0.92594618001E+03  0.17208633631E+03 0.  0.
         24    2    5    5    0    0  0.29036794492E+02 -0.91251741497E+01  0.42071014520E+03  0.43144937508E+03  0.90692517610E+02 0.  0.
          5    1    5    5  501    0  0.14097014841E+03  0.33987482651E+02  0.47273382401E+03  0.49449680493E+03  0.47000000000E+01 0. -1.
        -13    1    6    6    0    0  0.62029515467E+02 -0.29632971799E+01  0.27353596909E+03  0.28049664580E+03  0.00000000000E+00 0.  1.
         14    1    6    6    0    0 -0.32992720976E+02 -0.61618769697E+01  0.14717417611E+03  0.15095272928E+03  0.00000000000E+00 0. -1.
         -5    1    3    3    0  503 -0.65613888850E+02 -0.18975876061E+02  0.17326123755E+01  0.68486190053E+02  0.47000000000E+01 0. -1.
         11    1    4    4    0    0  0.48073350180E+01  0.91224937142E+01  0.72691674320E+02  0.73419410764E+02  0.00000000000E+00 0. -1.
        -12    1    4    4    0    0 -0.10920038907E+03 -0.15008926154E+02  0.16914261327E+03  0.20188911923E+03  0.00000000000E+00 0.  1.
</event>
<event>
12    1  0.8052519E-002  0.2039244E+03  0.7818608E-02  0.1146662E+00
         21   -1    0    0  501  502  0.00000000000E+00  0.00000000000E+00  0.12170962909E+04  0.12170962909E+04  0.00000000000E+00 0. -1.
         21   -1    0    0  502  503 -0.00000000000E+00 -0.00000000000E+00 -0.36128625297E+02  0.36128625297E+02  0.00000000000E+00 0. -1.
         -6    2    1    2    0  503  0.93681351083E+02 -0.52398950789E+02  0.43750493074E+03  0.48230208961E+03  0.17228724745E+03 0.  0.
        -24    2    3    3    0    0  0.91163390069E+02  0.27962686004E+02  0.25314419351E+03  0.28111733812E+03  0.76500324121E+02 0.  0.
          6    2    1    2  501    0 -0.93681351083E+02  0.52398950789E+02  0.74346273485E+03  0.77092282658E+03  0.17338777593E+03 0.  0.
         24    2    5    5    0    0  0.20013532111E+02 -0.30713333469E+01  0.29193712635E+03  0.30198685651E+03  0.74557368587E+02 0.  0.
          5    1    5    5  501    0 -0.11369488319E+03  0.55470284136E+02  0.45152560851E+03  0.46893597007E+03  0.47000000000E+01 0. -1.
        -13    1    6    6    0    0 -0.19009518075E+01  0.30878006695E+01  0.27110674473E+03  0.27113099263E+03  0.00000000000E+00 0.  1.
         14    1    6    6    0    0  0.21914483918E+02 -0.61591340164E+01  0.20830381621E+02  0.30855863879E+02  0.00000000000E+00 0. -1.
         -5    1    3    3    0  503  0.25179610143E+01 -0.80361636793E+02  0.18436073724E+03  0.20118475149E+03  0.47000000000E+01 0.  1.
         11    1    4    4    0    0  0.66606665873E+02  0.85177856796E+01  0.76813017927E+02  0.10202568468E+03  0.00000000000E+00 0. -1.
        -12    1    4    4    0    0  0.24556724197E+02  0.19444900324E+02  0.17633117558E+03  0.17909165344E+03  0.00000000000E+00 0.  1.
</event>
<event>
12    1  0.8052519E-002  0.2433105E+03  0.7818608E-02  0.1117778E+00
         21   -1    0    0  501  502  0.00000000000E+00  0.00000000000E+00  0.39076806163E+03  0.39076806163E+03  0.00000000000E+00 0.  1.
         21   -1    0    0  502  503 -0.00000000000E+00 -0.00000000000E+00 -0.15438217881E+03  0.15438217881E+03  0.00000000000E+00 0.  1.
         -6    2    1    2    0  503 -0.10311668760E+03  0.13630495701E+03  0.15918325582E+03  0.28988523288E+03  0.17170336846E+03 0.  0.
        -24    2    3    3    0    0 -0.18317518809E+02  0.14471505195E+02  0.74223825510E+02  0.11878735502E+03  0.89756913282E+02 0.  0.
          6    2    1    2  501    0  0.10311668760E+03 -0.13630495701E+03  0.77202626991E+02  0.25526500756E+03  0.17317010684E+03 0.  0.
         24    2    5    5    0    0  0.41061823837E+02 -0.13298372795E+03  0.56699550146E+01  0.16039219882E+03  0.79515808334E+02 0.  0.
          5    1    5    5  501    0  0.62054863759E+02 -0.33212290635E+01  0.71532671976E+02  0.94872808742E+02  0.47000000000E+01 0. -1.
        -11    1    6    6    0    0  0.24537893068E+02 -0.13553100645E+02  0.25867996119E+02  0.38143780050E+02  0.00000000000E+00 0.  1.
         12    1    6    6    0    0  0.16523930769E+02 -0.11943062730E+03 -0.20198041104E+02  0.12224841877E+03  0.00000000000E+00 0. -1.
         -5    1    3    3    0  503 -0.84799168787E+02  0.12183345182E+03  0.84959430314E+02  0.17109787786E+03  0.47000000000E+01 0.  1.
         13    1    4    4    0    0  0.23012851960E+02  0.37015056319E+02  0.48240618377E+02  0.65014329275E+02  0.00000000000E+00 0. -1.
        -14    1    4    4    0    0 -0.41330370769E+02 -0.22543551124E+02  0.25983207134E+02  0.53773025748E+02  0.00000000000E+00 0.  1.
</event>
<event>
12    1  0.8052519E-002  0.1914196E+03  0.7818608E-02  0.1157826E+00
         21   -1    0    0  503  502  0.00000000000E+00  0.00000000000E+00  0.27116151034E+03  0.27116151034E+03  0.00000000000E+00 0. -1.
         21   -1    0    0  501  503 -0.00000000000E+00 -0.00000000000E+00 -0.13820236388E+03  0.13820236388E+03  0.00000000000E+00 0.  1.
          6    2    1    2  501    0  0.55039891912E+02 -0.57187884331E+02  0.10520023934E+03  0.21594203358E+03  0.17106731919E+03 0.  0.
         24    2    3    3    0    0 -0.65269993322E+01 -0.81079340244E+02  0.95060756786E+02  0.14896306025E+03  0.80851621520E+02 0.  0.
         -6    2    1    2    0  502 -0.55039891912E+02  0.57187884331E+02  0.27758907123E+02  0.19342184064E+03  0.17418842584E+03 0.  0.
        -24    2    5    5    0    0 -0.75619185058E+02  0.60143819969E+02  0.71329268978E+02  0.14491708527E+03  0.81102137823E+02 0.  0.
          5    1    3    3  501    0  0.61566891244E+02  0.23891455914E+02  0.10139482551E+02  0.66978973339E+02  0.47000000000E+01 0. -1.
        -13    1    4    4    0    0 -0.12365345141E+02 -0.19655464189E+02 -0.11435155820E+02  0.25884393398E+02  0.00000000000E+00 0.  1.
         14    1    4    4    0    0  0.58383458085E+01 -0.61423876055E+02  0.10649591261E+03  0.12307866685E+03  0.00000000000E+00 0. -1.
         -5    1    5    5    0  502  0.20579293146E+02 -0.29559356383E+01 -0.43570361855E+02  0.48504755376E+02  0.47000000000E+01 0.  1.
         13    1    6    6    0    0 -0.81277800953E+01  0.42365382970E+02  0.60475595233E+02  0.74284480897E+02  0.00000000000E+00 0. -1.
        -14    1    6    6    0    0 -0.67491404963E+02  0.17778436999E+02  0.10853673746E+02  0.70632604368E+02  0.00000000000E+00 0.  1.
</event>
<event>
12    1  0.8052519E-002  0.2012555E+03  0.7818608E-02  0.1148759E+00
         21   -1    0    0  503  502  0.00000000000E+00  0.00000000000E+00  0.36405281356E+03  0.36405281356E+03  0.00000000000E+00 0. -1.
         21   -1    0    0  501  503 -0.00000000000E+00 -0.00000000000E+00 -0.13921870812E+03  0.13921870812E+03  0.00000000000E+00 0.  1.
          6    2    1    2  501    0 -0.70274289980E+02 -0.78091736293E+02 -0.83347124483E+00  0.20089821717E+03  0.17123844159E+03 0.  0.
         24    2    3    3    0    0 -0.41230550865E+01  0.95941796453E+01  0.27930548397E+02  0.87257271389E+02  0.82004073132E+02 0.  0.
         -6    2    1    2    0  502  0.70274289980E+02  0.78091736293E+02  0.22566757669E+03  0.30237330451E+03  0.17165944485E+03 0.  0.
        -24    2    5    5    0    0  0.41011597557E+02  0.73087936566E+02  0.54218601575E+02  0.12830956835E+03  0.80621901295E+02 0.  0.
          5    1    3    3  501    0 -0.66151234894E+02 -0.87685915939E+02 -0.28764019642E+02  0.11364094578E+03  0.47000000000E+01 0. -1.
        -11    1    4    4    0    0  0.55019511171E+01  0.44453627735E+02  0.66139621723E+01  0.45278482533E+02  0.00000000000E+00 0.  1.
         12    1    4    4    0    0 -0.96250062035E+01 -0.34859448090E+02  0.21316586224E+02  0.41978788856E+02  0.00000000000E+00 0. -1.
         -5    1    5    5    0  502  0.29262692423E+02  0.50037997278E+01  0.17144897511E+03  0.17406373616E+03  0.47000000000E+01 0.  1.
         11    1    6    6    0    0  0.38171548672E+02  0.56175225733E+02  0.75121597502E+02  0.10127180025E+03  0.00000000000E+00 0. -1.
        -12    1    6    6    0    0  0.28400488852E+01  0.16912710833E+02 -0.20902995927E+02  0.27037768105E+02  0.00000000000E+00 0.  1.
</event>
<event>
12    1  0.8052519E-002  0.2376523E+03  0.7818608E-02  0.1121725E+00
         21   -1    0    0  501  502  0.00000000000E+00  0.00000000000E+00  0.19688297617E+03  0.19688297617E+03  0.00000000000E+00 0.  1.
         21   -1    0    0  502  503 -0.00000000000E+00 -0.00000000000E+00 -0.28921944571E+03  0.28921944571E+03  0.00000000000E+00 0. -1.
         -6    2    1    2    0  503  0.15182473240E+03  0.54083823511E+02 -0.14724154343E+02  0.23810800322E+03  0.17465054006E+03 0.  0.
        -24    2    3    3    0    0  0.48801455075E+02  0.27608043468E+02 -0.67968107173E+02  0.11906275505E+03  0.80078024240E+02 0.  0.
          6    2    1    2  501    0 -0.15182473240E+03 -0.54083823511E+02 -0.77612315196E+02  0.24799441866E+03  0.17176073731E+03 0.  0.
         24    2    5    5    0    0 -0.56274916617E+02 -0.77795427352E+02 -0.28611618697E+01  0.12429384317E+03  0.78878250773E+02 0.  0.
          5    1    5    5  501    0 -0.95549815780E+02  0.23711603842E+02 -0.74751153327E+02  0.12370057549E+03  0.47000000000E+01 0. -1.
        -11    1    6    6    0    0 -0.39425375707E+02  0.19835177472E+01  0.12321452344E+02  0.41353509889E+02  0.00000000000E+00 0.  1.
         12    1    6    6    0    0 -0.16849540910E+02 -0.79778945100E+02 -0.15182614214E+02  0.82940333279E+02  0.00000000000E+00 0. -1.
         -5    1    3    3    0  503  0.10302327732E+03  0.26475780042E+02  0.53243952830E+02  0.11904524817E+03  0.47000000000E+01 0.  1.
         13    1    4    4    0    0  0.65247477897E+02  0.22276552671E+02 -0.26020761489E+02  0.73692321169E+02  0.00000000000E+00 0. -1.
        -14    1    4    4    0    0 -0.16446022822E+02  0.53314907971E+01 -0.41947345684E+02  0.45370433883E+02  0.00000000000E+00 0.  1.
</event>
<event>
12    1  0.8052519E-002  0.1852042E+03  0.7818608E-02  0.1163075E+00
         21   -1    0    0  501  502  0.00000000000E+00  0.00000000000E+00  0.63624253405E+02  0.63624253405E+02  0.00000000000E+00 0. -1.
         21   -1    0    0  502  503 -0.00000000000E+00 -0.00000000000E+00 -0.68502427088E+03  0.68502427088E+03  0.00000000000E+00 0. -1.
         -6    2    1    2    0  503  0.47074764186E+02  0.46111274853E+02 -0.48443308598E+03  0.51829980320E+03  0.17209586897E+03 0.  0.
        -24    2    3    3    0    0 -0.27809610177E+01  0.66233006863E+02 -0.42650056054E+03  0.43912439705E+03  0.80826746844E+02 0.  0.
          6    2    1    2  501    0 -0.47074764186E+02 -0.46111274853E+02 -0.13696693150E+03  0.23034872109E+03  0.17308468994E+03 0.  0.
         24    2    5    5    0    0 -0.63596520296E+01 -0.38395381335E+02 -0.16061692916E+03  0.18240429743E+03  0.77193777642E+02 0.  0.
          5    1    5    5  501    0 -0.40715112157E+02 -0.77158935180E+01  0.23649997658E+02  0.47944423659E+02  0.47000000000E+01 0. -1.
        -13    1    6    6    0    0  0.51005101716E+01 -0.59778737916E+02 -0.94076980275E+02  0.11157952737E+03  0.00000000000E+00 0.  1.
         14    1    6    6    0    0 -0.11460162201E+02  0.21383356580E+02 -0.66539948886E+02  0.70824770060E+02  0.00000000000E+00 0. -1.
         -5    1    3    3    0  503  0.49855725204E+02 -0.20121732010E+02 -0.57932525437E+02  0.79175406145E+02  0.47000000000E+01 0.  1.
         13    1    4    4    0    0  0.22873881295E+02 -0.43502426365E+01 -0.17820270919E+03  0.17971740210E+03  0.00000000000E+00 0. -1.
        -14    1    4    4    0    0 -0.25654842313E+02  0.70583249500E+02 -0.24829785135E+03  0.25940699495E+03  0.00000000000E+00 0.  1.
</event>
<event>
12    1  0.8052519E-002  0.2549153E+03  0.7818608E-02  0.1111216E+00
         21   -1    0    0  503  502  0.00000000000E+00  0.00000000000E+00  0.12780697714E+03  0.12780697714E+03  0.00000000000E+00 0.  1.
         21   -1    0    0  501  503 -0.00000000000E+00 -0.00000000000E+00 -0.49601373250E+03  0.49601373250E+03  0.00000000000E+00 0.  1.
          6    2    1    2  501    0  0.16686079184E+03 -0.64960129882E+02 -0.18148970318E+03  0.30783803262E+03  0.17252072235E+03 0.  0.
         24    2    3    3    0    0  0.14514578134E+03 -0.10927303394E+03 -0.15405994170E+03  0.25118419814E+03  0.79694052278E+02 0.  0.
         -6    2    1    2    0  502 -0.16686079184E+03  0.64960129882E+02 -0.18671705217E+03  0.31598267701E+03  0.18143718547E+03 0.  0.
        -24    2    5    5    0    0 -0.15651038218E+03  0.24159541826E+02 -0.20956090964E+03  0.26786042862E+03  0.52480960170E+02 0.  0.
          5    1    3    3  501    0  0.21715010506E+02  0.44312904060E+02 -0.27429761477E+02  0.56653834488E+02  0.47000000000E+01 0. -1.
        -11    1    4    4    0    0  0.50508658676E+01 -0.29985196997E+02 -0.53034924004E+02  0.61133676881E+02  0.00000000000E+00 0.  1.
         12    1    4    4    0    0  0.14009491547E+03 -0.79287836945E+02 -0.10102501770E+03  0.19005052125E+03  0.00000000000E+00 0. -1.
         -5    1    5    5    0  502 -0.10350409663E+02  0.40800588056E+02  0.22843857470E+02  0.48122248389E+02  0.47000000000E+01 0.  1.
         13    1    6    6    0    0 -0.51521197625E+02  0.16001235647E+02 -0.11196187542E+03  0.12428167562E+03  0.00000000000E+00 0. -1.
        -14    1    6    6    0    0 -0.10498918455E+03  0.81583061789E+01 -0.97599034225E+02  0.14357875301E+03  0.00000000000E+00 0.  1.
</event>
<event>
12    1  0.8052519E-002  0.1914061E+03  0.7818608E-02  0.1157216E+00
         21   -1    0    0  503  502  0.00000000000E+00  0.00000000000E+00  0.29989589454E+03  0.29989589454E+03  0.00000000000E+00 0.  1.
         21   -1    0    0  501  503 -0.00000000000E+00 -0.00000000000E+00 -0.17586918579E+03  0.17586918579E+03  0.00000000000E+00 0.  1.
          6    2    1    2  501    0 -0.28220302527E+02 -0.78664175013E+02 -0.69491875471E+02  0.20363059986E+03  0.17219716182E+03 0.  0.
         24    2    3    3    0    0 -0.58445700796E+02 -0.10923999564E+03 -0.59861916481E+02  0.15932166603E+03  0.80316048413E+02 0.  0.
         -6    2    1    2    0  502  0.28220302527E+02  0.78664175013E+02  0.19351858422E+03  0.27213448047E+03  0.17211419208E+03 0.  0.
        -24    2    5    5    0    0 -0.13206339391E+02 -0.38477423108E+00  0.15570377095E+03  0.17509349356E+03  0.78990580123E+02 0.  0.
          5    1    3    3  501    0  0.30225398269E+02  0.30575820623E+02 -0.96299589905E+01  0.44308933833E+02  0.47000000000E+01 0. -1.
        -11    1    4    4    0    0 -0.19279114784E+02 -0.94183356747E+02 -0.13983282191E+02  0.97147934285E+02  0.00000000000E+00 0.  1.
         12    1    4    4    0    0 -0.39166586012E+02 -0.15056638889E+02 -0.45878634289E+02  0.62173731742E+02  0.00000000000E+00 0. -1.
         -5    1    5    5    0  502  0.41426641918E+02  0.79048949244E+02  0.37814813266E+02  0.97040986905E+02  0.47000000000E+01 0.  1.
         11    1    6    6    0    0  0.91724193315E+01 -0.24974621971E+02  0.15058408972E+02  0.30571566852E+02  0.00000000000E+00 0. -1.
        -12    1    6    6    0    0 -0.22378758722E+02  0.24589847740E+02  0.14064536198E+03  0.14452192671E+03  0.00000000000E+00 0.  1.
</event>
<event>
12    1  0.8052519E-002  0.2150106E+03  0.7818608E-02  0.1138063E+00
         21   -1    0    0  501  502  0.00000000000E+00  0.00000000000E+00  0.14914570560E+03  0.14914570560E+03  0.00000000000E+00 0.  1.
         21   -1    0    0  502  503 -0.00000000000E+00 -0.00000000000E+00 -0.31621643278E+03  0.31621643278E+03  0.00000000000E+00 0.  1.
         -6    2    1    2    0  503  0.14873418464E+02  0.12230492528E+03 -0.12296635761E+03  0.24587463870E+03  0.17364878212E+03 0.  0.
        -24    2    3    3    0    0  0.10640827589E+02  0.70002095232E+02 -0.15253263618E+03  0.18546143083E+03  0.78206244489E+02 0.  0.
          6    2    1    2  501    0 -0.14873418464E+02 -0.12230492528E+03 -0.44104369574E+02  0.21948749968E+03  0.17620968695E+03 0.  0.
         24    2    5    5    0    0 -0.69714175440E+02 -0.47850921665E+02 -0.50070946687E+02  0.12670497265E+03  0.79982957120E+02 0.  0.
          5    1    5    5  501    0  0.54840756976E+02 -0.74454003613E+02  0.59665771135E+01  0.92782527030E+02  0.47000000000E+01 0. -1.
        -13    1    6    6    0    0 -0.33349070566E+02 -0.36002969923E+02 -0.68487806212E+02  0.84255290342E+02  0.00000000000E+00 0.  1.
         14    1    6    6    0    0 -0.36365104874E+02 -0.11847951742E+02  0.18416859525E+02  0.42449682304E+02  0.00000000000E+00 0. -1.
         -5    1    3    3    0  503  0.42325908752E+01  0.52302830045E+02  0.29566278576E+02  0.60413207869E+02  0.47000000000E+01 0.  1.
         13    1    4    4    0    0 -0.29560636489E+01 -0.33667241909E+01 -0.84086118339E+02  0.84205394372E+02  0.00000000000E+00 0. -1.
        -14    1    4    4    0    0  0.13596891238E+02  0.73368819423E+02 -0.68446517845E+02  0.10125603646E+03  0.00000000000E+00 0.  1.
</event>
<event>
12    1  0.8052519E-002  0.1863381E+03  0.7818608E-02  0.1163314E+00
         21   -1    0    0  503  502  0.00000000000E+00  0.00000000000E+00  0.36942777124E+03  0.36942777124E+03  0.00000000000E+00 0.  1.
         21   -1    0    0  501  503 -0.00000000000E+00 -0.00000000000E+00 -0.11852226454E+03  0.11852226454E+03  0.00000000000E+00 0.  1.
          6    2    1    2  501    0 -0.33019751908E+02 -0.39349692120E+02  0.91276167869E+01  0.18656151531E+03  0.17911779174E+03 0.  0.
         24    2    3    3    0    0 -0.75435966148E+02 -0.73208314341E+02  0.76616796274E+01  0.13206582281E+03  0.79577873443E+02 0.  0.
         -6    2    1    2    0  502  0.33019751908E+02  0.39349692120E+02  0.24177788991E+03  0.30138852047E+03  0.17245228307E+03 0.  0.
        -24    2    5    5    0    0 -0.46053071905E+01 -0.33659837005E+02  0.76463156960E+02  0.11673455397E+03  0.81401156237E+02 0.  0.
          5    1    3    3  501    0  0.42416214240E+02  0.33858622222E+02  0.14659371595E+01  0.54495692499E+02  0.47000000000E+01 0. -1.
        -11    1    4    4    0    0 -0.82123708586E+02 -0.33993089963E+02 -0.81574264260E+01  0.89254564494E+02  0.00000000000E+00 0.  1.
         12    1    4    4    0    0  0.66877424387E+01 -0.39215224379E+02  0.15819106053E+02  0.42811258313E+02  0.00000000000E+00 0. -1.
         -5    1    5    5    0  502  0.37625059098E+02  0.73009529125E+02  0.16531473295E+03  0.18465396650E+03  0.47000000000E+01 0.  1.
         13    1    6    6    0    0  0.81199529554E+00 -0.27358525038E+02  0.93691085649E+02  0.97607211612E+02  0.00000000000E+00 0. -1.
        -14    1    6    6    0    0 -0.54173024860E+01 -0.63013119674E+01 -0.17227928689E+02  0.19127342357E+02  0.00000000000E+00 0.  1.
</event>
<event>
12    1  0.8052519E-002  0.2045709E+03  0.7818608E-02  0.1145971E+00
         21   -1    0    0  503  502  0.00000000000E+00  0.00000000000E+00  0.81686676380E+02  0.81686676380E+02  0.00000000000E+00 0.  1.
         21   -1    0    0  501  503 -0.00000000000E+00 -0.00000000000E+00 -0.51729741102E+03  0.51729741102E+03  0.00000000000E+00 0. -1.
          6    2    1    2  501    0 -0.90795491001E+02  0.63967391078E+02 -0.18734264558E+03  0.27739232575E+03  0.17179518977E+03 0.  0.
         24    2    3    3    0    0 -0.11383457368E+03  0.68912587885E+02 -0.19735745229E+03  0.25136079380E+03  0.80777656241E+02 0.  0.
         -6    2    1    2    0  502  0.90795491001E+02 -0.63967391078E+02 -0.24826808906E+03  0.32159176165E+03  0.17160585306E+03 0.  0.
        -24    2    5    5    0    0  0.43017024417E+02 -0.10644617076E+03 -0.17839562701E+03  0.22676834921E+03  0.80110129246E+02 0.  0.
          5    1    3    3  501    0  0.23039082683E+02 -0.49451968071E+01  0.10014806716E+02  0.26031531955E+02  0.47000000000E+01 0. -1.
        -11    1    4    4    0    0  0.20202427750E+01 -0.80887173163E+01  0.17034510729E+01  0.85094344260E+01  0.00000000000E+00 0.  1.
         12    1    4    4    0    0 -0.11585481646E+03  0.77001305201E+02 -0.19906090337E+03  0.24285135937E+03  0.00000000000E+00 0. -1.
         -5    1    5    5    0  502  0.47778466584E+02  0.42478779687E+02 -0.69872462059E+02  0.94823412441E+02  0.47000000000E+01 0.  1.
         11    1    6    6    0    0  0.10085069240E+02 -0.88887314555E+02 -0.74646171242E+02  0.11651057545E+03  0.00000000000E+00 0. -1.
        -12    1    6    6    0    0  0.32931955177E+02 -0.17558856210E+02 -0.10374945576E+03  0.11025777376E+03  0.00000000000E+00 0.  1.
</event>
<event>
12    1  0.8052519E-002  0.2140902E+03  0.7818608E-02  0.1138959E+00
         21   -1    0    0  501  502  0.00000000000E+00  0.00000000000E+00  0.98315801936E+03  0.98315801936E+03  0.00000000000E+00 0. -1.
         21   -1    0    0  502  503 -0.00000000000E+00 -0.00000000000E+00 -0.59034035075E+02  0.59034035075E+02  0.00000000000E+00 0.  1.
         -6    2    1    2    0  503  0.69170751322E+02  0.10042578859E+03  0.21426283359E+03  0.30074921533E+03  0.17225445367E+03 0.  0.
        -24    2    3    3    0    0 -0.75217036315E+00  0.48373693237E+02  0.18898306164E+03  0.20986581488E+03  0.77385287433E+02 0.  0.
          6    2    1    2  501    0 -0.69170751322E+02 -0.10042578859E+03  0.70986115069E+03  0.74144283911E+03  0.17596789067E+03 0.  0.
         24    2    5    5    0    0 -0.45952801280E+02 -0.12973053680E+03  0.66051404500E+03  0.67935364269E+03  0.79378183795E+02 0.  0.
          5    1    5    5  501    0 -0.23217950042E+02  0.29304748211E+02  0.49347105691E+02  0.62089196419E+02  0.47000000000E+01 0. -1.
        -13    1    6    6    0    0 -0.26744686210E+02 -0.72947059530E+02  0.19361770313E+03  0.20862494266E+03  0.00000000000E+00 0.  1.
         14    1    6    6    0    0 -0.19208115070E+02 -0.56783477271E+02  0.46689634187E+03  0.47072870002E+03  0.00000000000E+00 0. -1.
         -5    1    3    3    0  503  0.69922921685E+02  0.52052095352E+02  0.25279771957E+02  0.90883400452E+02  0.47000000000E+01 0.  1.
         13    1    4    4    0    0  0.79779725933E+01 -0.20215292512E+02  0.37347032150E+02  0.43210032498E+02  0.00000000000E+00 0. -1.
        -14    1    4    4    0    0 -0.87301429565E+01  0.68588985749E+02  0.15163602949E+03  0.16665578238E+03  0.00000000000E+00 0.  1.
</event>
<event>
12    1  0.8052519E-002  0.1883173E+03  0.7818608E-02  0.1160797E+00
         21   -1    0    0  501  502  0.00000000000E+00  0.00000000000E+00  0.73836726093E+02  0.73836726093E+02  0.00000000000E+00 0. -1.
         21   -1    0    0  502  503 -0.00000000000E+00 -0.00000000000E+00 -0.11237673938E+04  0.11237673938E+04  0.00000000000E+00 0. -1.
         -6    2    1    2    0  503  0.54287054460E+02  0.39211057386E+02 -0.98327448864E+03  0.10011454143E+04  0.17600803748E+03 0.  0.
        -24    2    3    3    0    0  0.73218663056E+02  0.85286091581E+02 -0.74789355708E+03  0.76050546017E+03  0.79931797129E+02 0.  0.
          6    2    1    2  501    0 -0.54287054460E+02 -0.39211057386E+02 -0.66656179061E+02  0.19645870559E+03  0.17224513198E+03 0.  0.
         24    2    5    5    0    0  0.33069972863E+02 -0.41250035539E+01 -0.51370516620E+02  0.10097036665E+03  0.80283536327E+02 0.  0.
          5    1    5    5  501    0 -0.87357027322E+02 -0.35086053832E+02 -0.15285662441E+02  0.95488338934E+02  0.47000000000E+01 0. -1.
        -11    1    6    6    0    0  0.12574456879E+02 -0.35958504254E+02 -0.50296809924E+02  0.63094374412E+02  0.00000000000E+00 0.  1.
         12    1    6    6    0    0  0.20495515983E+02  0.31833500700E+02 -0.10737066961E+01  0.37875992242E+02  0.00000000000E+00 0. -1.
         -5    1    3    3    0  503 -0.18931608596E+02 -0.46075034195E+02 -0.23538093156E+03  0.24063995412E+03  0.47000000000E+01 0.  1.
         11    1    4    4    0    0 -0.13393288457E+02  0.26188801318E+02 -0.24768358321E+03  0.24942411849E+03  0.00000000000E+00 0. -1.
        -12    1    4    4    0    0  0.86611951513E+02  0.59097290263E+02 -0.50020997387E+03  0.51108134169E+03  0.00000000000E+00 0.  1.
</event>
<event>
12    1  0.8052519E-002  0.1880019E+03  0.7818608E-02  0.1161001E+00
         21   -1    0    0  503  502  0.00000000000E+00  0.00000000000E+00  0.17553999601E+03  0.17553999601E+03  0.00000000000E+00 0.  1.
         21   -1    0    0  501  503 -0.00000000000E+00 -0.00000000000E+00 -0.23190299632E+03  0.23190299632E+03  0.00000000000E+00 0.  1.
          6    2    1    2  501    0  0.35377508702E+02 -0.64251205035E+02 -0.10627753690E+03  0.21596209090E+03  0.17310379657E+03 0.  0.
         24    2    3    3    0    0  0.28218120701E+02 -0.10967968290E+03 -0.95980048738E+02  0.16860037956E+03  0.79925109041E+02 0.  0.
         -6    2    1    2    0  502 -0.35377508702E+02  0.64251205035E+02  0.49914536580E+02  0.19148090143E+03  0.16968703304E+03 0.  0.
        -24    2    5    5    0    0 -0.59945609258E+02  0.81947886208E+02 -0.55094301844E+01  0.12815104922E+03  0.77996188829E+02 0.  0.
          5    1    3    3  501    0  0.71593880007E+01  0.45428477869E+02 -0.10297488159E+02  0.47361711334E+02  0.47000000000E+01 0. -1.
        -13    1    4    4    0    0 -0.14290449136E+02 -0.14948408593E+02 -0.51771721906E+02  0.55749287396E+02  0.00000000000E+00 0.  1.
         14    1    4    4    0    0  0.42508569837E+02 -0.94731274311E+02 -0.44208326831E+02  0.11285109217E+03  0.00000000000E+00 0. -1.
         -5    1    5    5    0  502  0.24568100556E+02 -0.17696681173E+02  0.55423966764E+02  0.63329852213E+02  0.47000000000E+01 0.  1.
         11    1    6    6    0    0 -0.28588633384E+02  0.91007842470E+02 -0.42500623754E+01  0.95487173903E+02  0.00000000000E+00 0. -1.
        -12    1    6    6    0    0 -0.31356975874E+02 -0.90599562618E+01 -0.12593678090E+01  0.32663875317E+02  0.00000000000E+00 0.  1.
</event>
<event>
12    1  0.8052519E-002  0.1825394E+03  0.7818608E-02  0.1166776E+00
         21   -1    0    0  501  502  0.00000000000E+00  0.00000000000E+00  0.76606673379E+03  0.76606673379E+03  0.00000000000E+00 0. -1.
         21   -1    0    0  502  503 -0.00000000000E+00 -0.00000000000E+00 -0.22228095187E+03  0.22228095187E+03  0.00000000000E+00 0. -1.
         -6    2    1    2    0  503  0.25426738234E+02  0.27305615749E+02 -0.17215884173E+03  0.25091689351E+03  0.17868549184E+03 0.  0.
        -24    2    3    3    0    0  0.41685423501E+02  0.30564895252E+02 -0.19804284938E+03  0.21981963316E+03  0.80173646409E+02 0.  0.
          6    2    1    2  501    0 -0.25426738234E+02 -0.27305615749E+02  0.71594462365E+03  0.73743079215E+03  0.17272913309E+03 0.  0.
         24    2    5    5    0    0 -0.55496371553E+02  0.33124741518E+02  0.53162719952E+03  0.54108667138E+03  0.77267139928E+02 0.  0.
          5    1    5    5  501    0  0.30069633319E+02 -0.60430357267E+02  0.18431742412E+03  0.19634412077E+03  0.47000000000E+01 0. -1.
        -11    1    6    6    0    0 -0.67958307310E+01  0.21679376650E+02  0.39390621893E+03  0.39456087996E+03  0.00000000000E+00 0.  1.
         12    1    6    6    0    0 -0.48700540822E+02  0.11445364868E+02  0.13772098060E+03  0.14652579142E+03  0.00000000000E+00 0. -1.
         -5    1    3    3    0  503 -0.16258685267E+02 -0.32592795031E+01  0.25884007648E+02  0.31097260352E+02  0.47000000000E+01 0.  1.
         13    1    4    4    0    0  0.60348602635E+02  0.31282513286E+02 -0.18485303924E+03  0.19695480597E+03  0.00000000000E+00 0. -1.
        -14    1    4    4    0    0 -0.18663179134E+02 -0.71761803374E+00 -0.13189810138E+02  0.22864827192E+02  0.00000000000E+00 0.  1.
</event>
<event>
12    1  0.8052519E-002  0.2128811E+03  0.7818608E-02  0.1139432E+00
         21   -1    0    0  501  502  0.00000000000E+00  0.00000000000E+00  0.19086030618E+03  0.19086030618E+03  0.00000000000E+00 0.  1.
         21   -1    0    0  502  503 -0.00000000000E+00 -0.00000000000E+00 -0.36404990217E+03  0.36404990217E+03  0.00000000000E+00 0.  1.
         -6    2    1    2    0  503  0.12234431808E+03  0.33640064401E+02 -0.25077462796E+03  0.32894720139E+03  0.17093437680E+03 0.  0.
        -24    2    3    3    0    0  0.60013373888E+02 -0.24075852188E+02 -0.59211971953E+02  0.11934134553E+03  0.80963247386E+02 0.  0.
          6    2    1    2  501    0 -0.12234431808E+03 -0.33640064401E+02  0.77585031971E+02  0.22596300695E+03  0.17011777458E+03 0.  0.
         24    2    5    5    0    0 -0.10007025697E+03  0.29620439690E+02  0.87033952668E+02  0.15807046481E+03  0.80746121585E+02 0.  0.
          5    1    5    5  501    0 -0.22274061103E+02 -0.63260504091E+02 -0.94489206973E+01  0.67892542140E+02  0.47000000000E+01 0. -1.
        -13    1    6    6    0    0 -0.38747788840E+02  0.52012393858E+02  0.56426287777E+02  0.85968635020E+02  0.00000000000E+00 0.  1.
         14    1    6    6    0    0 -0.61322468134E+02 -0.22391954168E+02  0.30607664891E+02  0.72101829794E+02  0.00000000000E+00 0. -1.
         -5    1    3    3    0  503  0.62330944190E+02  0.57715916589E+02 -0.19156265601E+03  0.20960585586E+03  0.47000000000E+01 0.  1.
         13    1    4    4    0    0  0.52239284473E+02  0.21863773390E+02 -0.37632451890E+02  0.67993888434E+02  0.00000000000E+00 0. -1.
        -14    1    4    4    0    0  0.77740894148E+01 -0.45939625578E+02 -0.21579520063E+02  0.51347457100E+02  0.00000000000E+00 0.  1.
</event>
<event>
12    1  0.8052519E-002  0.1893512E+03  0.7818608E-02  0.1159276E+00
         21   -1    0    0  501  502  0.00000000000E+00  0.00000000000E+00  0.18074903433E+03  0.18074903433E+03  0.00000000000E+00 0. -1.
         21   -1    0    0  502  503 -0.00000000000E+00 -0.00000000000E+00 -0.21792992781E+03  0.21792992781E+03  0.00000000000E+00 0. -1.
         -6    2    1    2    0  503  0.64718897365E+02  0.37768881727E+02 -0.79860464741E+02  0.20457741562E+03  0.17279815118E+03 0.  0.
        -24    2    3    3    0    0  0.33179092704E+02 -0.45543174984E+02 -0.43239252912E+02  0.10814681245E+03  0.81554074520E+02 0.  0.
          6    2    1    2  501    0 -0.64718897365E+02 -0.37768881727E+02  0.42679571255E+02  0.19410154652E+03  0.17389318691E+03 0.  0.
         24    2    5    5    0    0  0.48651377171E+01 -0.38226592184E+02  0.76037638787E+02  0.11679049875E+03  0.79833302396E+02 0.  0.
          5    1    5    5  501    0 -0.69584035082E+02  0.45771045761E+00 -0.33358067531E+02  0.77311047766E+02  0.47000000000E+01 0. -1.
        -11    1    6    6    0    0  0.18616387759E+02  0.60234107624E+01 -0.77482069002E+01  0.21044858768E+02  0.00000000000E+00 0.  1.
         12    1    6    6    0    0 -0.13751250041E+02 -0.44250002947E+02  0.83785845687E+02  0.95745639984E+02  0.00000000000E+00 0. -1.
         -5    1    3    3    0  503  0.31539804662E+02  0.83312056711E+02 -0.36621211829E+02  0.96430603168E+02  0.47000000000E+01 0.  1.
         13    1    4    4    0    0  0.37422871277E+02 -0.89235160494E+01  0.13252540211E+02  0.40690665457E+02  0.00000000000E+00 0. -1.
        -14    1    4    4    0    0 -0.42437785734E+01 -0.36619658935E+02 -0.56491793123E+02  0.67456146994E+02  0.00000000000E+00 0.  1.
</event>
<event>
12    1  0.8052519E-002  0.2283635E+03  0.7818608E-02  0.1128730E+00
         21   -1    0    0  501  502  0.00000000000E+00  0.00000000000E+00  0.10028735878E+04  0.10028735878E+04  0.00000000000E+00 0.  1.
         21   -1    0    0  502  503 -0.00000000000E+00 -0.00000000000E+00 -0.54192737024E+02  0.54192737024E+02  0.00000000000E+00 0. -1.
         -6    2    1    2    0  503 -0.80030714351E+02  0.12457893304E+03  0.33749324403E+03  0.40460929238E+03  0.16697953142E+03 0.  0.
        -24    2    3    3    0    0 -0.91789889873E+02  0.26591068934E+02  0.19889756984E+03  0.23440132951E+03  0.79064980587E+02 0.  0.
          6    2    1    2  501    0  0.80030714351E+02 -0.12457893304E+03  0.61118760674E+03  0.65245703244E+03  0.17385356699E+03 0.  0.
         24    2    5    5    0    0  0.92699734161E+02 -0.15121489358E+03  0.56852772896E+03  0.60038080342E+03  0.75987800107E+02 0.  0.
          5    1    5    5  501    0 -0.12669019810E+02  0.26635960542E+02  0.42659877777E+02  0.52076229019E+02  0.47000000000E+01 0. -1.
        -11    1    6    6    0    0  0.54091225371E+02 -0.24771197591E+02  0.20955753244E+03  0.21783900545E+03  0.00000000000E+00 0.  1.
         12    1    6    6    0    0  0.38608508790E+02 -0.12644369599E+03  0.35897019652E+03  0.38254179797E+03  0.00000000000E+00 0. -1.
         -5    1    3    3    0  503  0.11759175523E+02  0.97987864103E+02  0.13859567419E+03  0.17020796287E+03  0.47000000000E+01 0.  1.
         11    1    4    4    0    0 -0.53561131952E+02  0.20719348184E+02  0.37863299461E+02  0.68787467545E+02  0.00000000000E+00 0. -1.
        -12    1    4    4    0    0 -0.38228757922E+02  0.58717207498E+01  0.16103427038E+03  0.16561386196E+03  0.00000000000E+00 0.  1.
</event>
<event>
12    1  0.8052519E-002  0.1869088E+03  0.7818608E-02  0.1161389E+00
         21   -1    0    0  501  502  0.00000000000E+00  0.00000000000E+00  0.33334498147E+03  0.33334498147E+03  0.00000000000E+00 0. -1.
         21   -1    0    0  502  503 -0.00000000000E+00 -0.00000000000E+00 -0.11582084807E+03  0.11582084807E+03  0.00000000000E+00 0. -1.
         -6    2    1    2    0  503 -0.38665832961E+02 -0.62773904951E+02  0.38533697824E+02  0.19037539995E+03  0.17123766308E+03 0.  0.
        -24    2    3    3    0    0 -0.80580840481E+02 -0.77796995203E+02  0.13403959505E+02  0.13903190140E+03  0.81268438896E+02 0.  0.
          6    2    1    2  501    0  0.38665832961E+02  0.62773904951E+02  0.17899043557E+03  0.25879042959E+03  0.17175360445E+03 0.  0.
         24    2    5    5    0    0  0.16866492309E+01  0.33526133584E+02  0.14252758643E+02  0.87374314947E+02  0.79399517409E+02 0.  0.
          5    1    5    5  501    0  0.36979183730E+02  0.29247771367E+02  0.16473767693E+03  0.17141611464E+03  0.47000000000E+01 0. -1.
        -11    1    6    6    0    0 -0.63186724006E+01 -0.25672639364E+02  0.33546709461E+01  0.26650775785E+02  0.00000000000E+00 0.  1.
         12    1    6    6    0    0  0.80053216315E+01  0.59198772948E+02  0.10898087697E+02  0.60723539162E+02  0.00000000000E+00 0. -1.
         -5    1    3    3    0  503  0.41915007520E+02  0.15023090252E+02  0.25129738318E+02  0.51343498557E+02  0.47000000000E+01 0.  1.
         11    1    4    4    0    0 -0.58007789718E+02 -0.90522247136E+02  0.25405828645E+02  0.11047459900E+03  0.00000000000E+00 0. -1.
        -12    1    4    4    0    0 -0.22573050763E+02  0.12725251933E+02 -0.12001869140E+02  0.28557302400E+02  0.00000000000E+00 0.  1.
</event>
<event>
12    1  0.8052519E-002  0.2119181E+03  0.7818608E-02  0.1140264E+00
         21   -1    0    0  503  502  0.00000000000E+00  0.00000000000E+00  0.20834277280E+03  0.20834277280E+03  0.00000000000E+00 0.  1.
         21   -1    0    0  501  503 -0.00000000000E+00 -0.00000000000E+00 -0.33994304104E+03  0.33994304104E+03  0.00000000000E+00 0.  1.
          6    2    1    2  501    0 -0.11976268696E+03  0.21832383055E+02 -0.23224154521E+03  0.31368414301E+03  0.17216809262E+03 0.  0.
         24    2    3    3    0    0 -0.60628502377E+02  0.73999921337E+02 -0.10038177695E+03  0.15997209949E+03  0.79766959418E+02 0.  0.
         -6    2    1    2    0  502  0.11976268696E+03 -0.21832383055E+02  0.10064127697E+03  0.23460167082E+03  0.17346331942E+03 0.  0.
        -24    2    5    5    0    0  0.78755117337E+02  0.28792147732E+02  0.12036336588E+03  0.16637033876E+03  0.78488174244E+02 0.  0.
          5    1    3    3  501    0 -0.59134184584E+02 -0.52167538282E+02 -0.13185976826E+03  0.15371204352E+03  0.47000000000E+01 0. -1.
        -13    1    4    4    0    0 -0.73282540536E+02  0.32080707381E+02 -0.56177344933E+02  0.97751709024E+02  0.00000000000E+00 0.  1.
         14    1    4    4    0    0  0.12654038159E+02  0.41919213955E+02 -0.44204432016E+02  0.62220390470E+02  0.00000000000E+00 0. -1.
         -5    1    5    5    0  502  0.41007569625E+02 -0.50624530787E+02 -0.19722088911E+02  0.68231332062E+02  0.47000000000E+01 0.  1.
         11    1    6    6    0    0  0.38487637847E+02 -0.25594717865E+02  0.59596780787E+02  0.75419918654E+02  0.00000000000E+00 0. -1.
        -12    1    6    6    0    0  0.40267479490E+02  0.54386865597E+02  0.60766585090E+02  0.90950420106E+02  0.00000000000E+00 0.  1.
</event>
<event>
12    1  0.8052519E-002  0.4073575E+03  0.7818608E-02  0.1041283E+00
         21   -1    0    0  501  502  0.00000000000E+00  0.00000000000E+00  0.47271205934E+03  0.47271205934E+03  0.00000000000E+00 0.  1.
         21   -1    0    0  502  503 -0.00000000000E+00 -0.00000000000E+00 -0.40829489159E+03  0.40829489159E+03  0.00000000000E+00 0. -1.
         -6    2    1    2    0  503 -0.37385791760E+02 -0.36681430714E+03 -0.13305227001E+03  0.42853591052E+03  0.17317530628E+03 0.  0.
        -24    2    3    3    0    0 -0.38315385545E+02 -0.34506007929E+03 -0.70888342701E+02  0.36250141626E+03  0.76469553221E+02 0.  0.
          6    2    1    2  501    0  0.37385791760E+02  0.36681430714E+03  0.19746943776E+03  0.45247104040E+03  0.17258455958E+03 0.  0.
         24    2    5    5    0    0  0.25857670131E+02  0.18256872430E+03  0.30550363585E+02  0.20354655445E+03  0.80609657706E+02 0.  0.
          5    1    5    5  501    0  0.11528121630E+02  0.18424558284E+03  0.16691907418E+03  0.24892448596E+03  0.47000000000E+01 0. -1.
        -13    1    6    6    0    0  0.30831865393E+02  0.13174288137E+03  0.56065497140E+02  0.14645863131E+03  0.00000000000E+00 0.  1.
         14    1    6    6    0    0 -0.49741952623E+01  0.50825842925E+02 -0.25515133555E+02  0.57087923135E+02  0.00000000000E+00 0. -1.
         -5    1    3    3    0  503  0.92959378489E+00 -0.21754227845E+02 -0.62163927309E+02  0.66034494260E+02  0.47000000000E+01 0.  1.
         11    1    4    4    0    0 -0.55998158252E+02 -0.17170887780E+03 -0.25186110933E+02  0.18235699226E+03  0.00000000000E+00 0. -1.
        -12    1    4    4    0    0  0.17682772707E+02 -0.17335120149E+03 -0.45702231768E+02  0.18014442400E+03  0.00000000000E+00 0.  1.
</event>
<event>
12    1  0.8052519E-002  0.1766213E+03  0.7818608E-02  0.1171261E+00
         21   -1    0    0  503  502  0.00000000000E+00  0.00000000000E+00  0.26236963352E+04  0.26236963352E+04  0.00000000000E+00 0. -1.
         21   -1    0    0  501  503 -0.00000000000E+00 -0.00000000000E+00 -0.25668826292E+02  0.25668826292E+02  0.00000000000E+00 0. -1.
          6    2    1    2  501    0  0.12832437951E+02  0.38308356475E+02  0.32605330667E+03  0.37053610371E+03  0.17133021835E+03 0.  0.
         24    2    3    3    0    0 -0.35509144166E+02  0.34680605329E+02  0.90911620822E+02  0.13040328303E+03  0.79224047612E+02 0.  0.
         -6    2    1    2    0  502 -0.12832437951E+02 -0.38308356475E+02  0.22719742022E+04  0.22788290577E+04  0.17193864413E+03 0.  0.
        -24    2    5    5    0    0 -0.39573386262E+02 -0.31091348214E+02  0.21914241819E+04  0.21935204457E+04  0.81604385380E+02 0.  0.
          5    1    3    3  501    0  0.48341582117E+02  0.36277511464E+01  0.23514168585E+03  0.24013282067E+03  0.47000000000E+01 0. -1.
        -13    1    4    4    0    0 -0.43687241552E+00 -0.85079356481E+01  0.70698095470E+02  0.71209525554E+02  0.00000000000E+00 0.  1.
         14    1    4    4    0    0 -0.35072271750E+02  0.43188540977E+02  0.20213525352E+02  0.59193757480E+02  0.00000000000E+00 0. -1.
         -5    1    5    5    0  502  0.26740948311E+02 -0.72170082610E+01  0.80550020271E+02  0.85308612054E+02  0.47000000000E+01 0.  1.
         11    1    6    6    0    0 -0.60746411532E+02 -0.13289982207E+02  0.18225626871E+04  0.18236231788E+04  0.00000000000E+00 0. -1.
        -12    1    6    6    0    0  0.21173025270E+02 -0.17801366007E+02  0.36886149485E+03  0.36989726684E+03  0.00000000000E+00 0.  1.
</event>
<event>
12    1  0.8052519E-002  0.2267100E+03  0.7818608E-02  0.1130706E+00
         21   -1    0    0  503  502  0.00000000000E+00  0.00000000000E+00  0.23319358584E+03  0.23319358584E+03  0.00000000000E+00 0. -1.
         21   -1    0    0  501  503 -0.00000000000E+00 -0.00000000000E+00 -0.21486810472E+03  0.21486810472E+03  0.00000000000E+00 0. -1.
          6    2    1    2  501    0  0.70325852268E+02  0.11302297557E+03 -0.19737798644E+02  0.21817860850E+03  0.17173353199E+03 0.  0.
         24    2    3    3    0    0  0.24758630786E+02  0.12067025854E+03 -0.59739180012E+02  0.15688380349E+03  0.76612381982E+02 0.  0.
         -6    2    1    2    0  502 -0.70325852268E+02 -0.11302297557E+03  0.38063279767E+02  0.22988308206E+03  0.18351430366E+03 0.  0.
        -24    2    5    5    0    0 -0.11281249465E+03 -0.42289728609E+02  0.28790357651E+02  0.14671828127E+03  0.78627535070E+02 0.  0.
          5    1    3    3  501    0  0.45567221482E+02 -0.76472829768E+01  0.40001381368E+02  0.61294805015E+02  0.47000000000E+01 0. -1.
        -13    1    4    4    0    0 -0.23991606618E+02  0.17638790664E+02 -0.41420728854E+01  0.30064611955E+02  0.00000000000E+00 0.  1.
         14    1    4    4    0    0  0.48750237404E+02  0.10303146788E+03 -0.55597107127E+02  0.12681919153E+03  0.00000000000E+00 0. -1.
         -5    1    5    5    0  502  0.42486642379E+02 -0.70733246956E+02  0.92729221154E+01  0.83164800788E+02  0.47000000000E+01 0.  1.
         11    1    6    6    0    0 -0.92055027037E+02 -0.23024164394E+01 -0.20725573580E+01  0.92107136630E+02  0.00000000000E+00 0. -1.
        -12    1    6    6    0    0 -0.20757467610E+02 -0.39987312170E+02  0.30862915009E+02  0.54611144641E+02  0.00000000000E+00 0.  1.
</event>
<event>
12    1  0.8052519E-002  0.1758022E+03  0.7818608E-02  0.1172069E+00
         21   -1    0    0  503  502  0.00000000000E+00  0.00000000000E+00  0.15400648267E+03  0.15400648267E+03  0.00000000000E+00 0.  1.
         21   -1    0    0  501  503 -0.00000000000E+00 -0.00000000000E+00 -0.25796974290E+03  0.25796974290E+03  0.00000000000E+00 0.  1.
          6    2    1    2  501    0 -0.12511132020E+02  0.37302539034E+02 -0.14952976471E+03  0.23036480505E+03  0.17076529223E+03 0.  0.
         24    2    3    3    0    0  0.56208109249E+02  0.41633611838E+02 -0.69220863703E+02  0.12447475881E+03  0.76221574571E+02 0.  0.
         -6    2    1    2    0  502  0.12511132020E+02 -0.37302539034E+02  0.45566504478E+02  0.18161142052E+03  0.17134291316E+03 0.  0.
        -24    2    5    5    0    0  0.12905997533E+02  0.33617126731E+02  0.62253899302E+02  0.10860242068E+03  0.81377280721E+02 0.  0.
          5    1    3    3  501    0 -0.68719241269E+02 -0.43310728040E+01 -0.80308901005E+02  0.10589004624E+03  0.47000000000E+01 0. -1.
        -13    1    4    4    0    0  0.27786526144E+02  0.61591849642E+02 -0.54264654537E+02  0.86661985377E+02  0.00000000000E+00 0.  1.
         14    1    4    4    0    0  0.28421583104E+02 -0.19958237804E+02 -0.14956209166E+02  0.37812773437E+02  0.00000000000E+00 0. -1.
         -5    1    5    5    0  502 -0.39486551301E+00 -0.70919665764E+02 -0.16687394824E+02  0.73008999835E+02  0.47000000000E+01 0.  1.
         11    1    6    6    0    0  0.55556493790E+01  0.33716028033E+02 -0.10290480027E+02  0.35686548804E+02  0.00000000000E+00 0. -1.
        -12    1    6    6    0    0  0.73503481541E+01 -0.98901302245E-01  0.72544379328E+02  0.72915871877E+02  0.00000000000E+00 0.  1.
</event>
<event>
12    1  0.8052519E-002  0.1768961E+03  0.7818608E-02  0.1171064E+00
         21   -1    0    0  501  502  0.00000000000E+00  0.00000000000E+00  0.41150958866E+02  0.41150958866E+02  0.00000000000E+00 0.  1.
         21   -1    0    0  502  503 -0.00000000000E+00 -0.00000000000E+00 -0.75933678391E+03  0.75933678391E+03  0.00000000000E+00 0.  1.
         -6    2    1    2    0  503  0.11908084323E+02  0.38998905152E+02 -0.33584273859E+03  0.37958209831E+03  0.17213223759E+03 0.  0.
        -24    2    3    3    0    0  0.12632273800E+02  0.69554784335E+02 -0.33666137310E+03  0.34864754860E+03  0.56716758058E+02 0.  0.
          6    2    1    2  501    0 -0.11908084323E+02 -0.38998905152E+02 -0.38234308646E+03  0.42090564447E+03  0.17120925416E+03 0.  0.
         24    2    5    5    0    0  0.42313585019E+02 -0.57640689495E+01 -0.31679192105E+03  0.32945298431E+03  0.79740100721E+02 0.  0.
          5    1    5    5  501    0 -0.54221669342E+02 -0.33234836203E+02 -0.65551165414E+02  0.91452660163E+02  0.47000000000E+01 0. -1.
        -13    1    6    6    0    0 -0.18037115675E+02  0.18055564850E+02 -0.84458131411E+02  0.88229909472E+02  0.00000000000E+00 0.  1.
         14    1    6    6    0    0  0.60350700694E+02 -0.23819633799E+02 -0.23233378963E+03  0.24122307484E+03  0.00000000000E+00 0. -1.
         -5    1    3    3    0  503 -0.72418947716E+00 -0.30555879183E+02  0.81863450940E+00  0.30934549706E+02  0.47000000000E+01 0.  1.
         13    1    4    4    0    0 -0.16664842843E+02  0.51401569881E+02 -0.16712567469E+03  0.17564404207E+03  0.00000000000E+00 0. -1.
        -14    1    4    4    0    0  0.29297116643E+02  0.18153214454E+02 -0.16953569840E+03  0.17300350653E+03  0.00000000000E+00 0.  1.
</event>
<event>
12    1  0.8052519E-002  0.1831324E+03  0.7818608E-02  0.1164903E+00
         21   -1    0    0  501  502  0.00000000000E+00  0.00000000000E+00  0.11683644741E+03  0.11683644741E+03  0.00000000000E+00 0.  1.
         21   -1    0    0  502  503 -0.00000000000E+00 -0.00000000000E+00 -0.44347533246E+03  0.44347533246E+03  0.00000000000E+00 0.  1.
         -6    2    1    2    0  503  0.46251663133E+02 -0.39818249546E+02 -0.33016983752E+03  0.37755740140E+03  0.17266372059E+03 0.  0.
        -24    2    3    3    0    0  0.22103976660E+02  0.45575996398E+02 -0.19091918554E+03  0.21236623312E+03  0.77996950773E+02 0.  0.
          6    2    1    2  501    0 -0.46251663133E+02  0.39818249546E+02  0.35309524684E+01  0.18275437847E+03  0.17222655394E+03 0.  0.
         24    2    5    5    0    0 -0.35965176530E+02  0.82765549245E+02  0.38076445470E+02  0.12648926099E+03  0.80038037087E+02 0.  0.
          5    1    5    5  501    0 -0.10286486603E+02 -0.42947299699E+02 -0.34545493001E+02  0.56265117478E+02  0.47000000000E+01 0. -1.
        -13    1    6    6    0    0 -0.59053669696E+02  0.69466515816E+02  0.40437137171E+02  0.99740136288E+02  0.00000000000E+00 0.  1.
         14    1    6    6    0    0  0.23088493166E+02  0.13299033430E+02 -0.23606917016E+01  0.26749124699E+02  0.00000000000E+00 0. -1.
         -5    1    3    3    0  503  0.24147686473E+02 -0.85394245944E+02 -0.13925065198E+03  0.16519116829E+03  0.47000000000E+01 0.  1.
         13    1    4    4    0    0  0.26334891434E+02  0.61707561656E+02 -0.10331126632E+03  0.12318509415E+03  0.00000000000E+00 0. -1.
        -14    1    4    4    0    0 -0.42309147734E+01 -0.16131565258E+02 -0.87607919218E+02  0.89181138965E+02  0.00000000000E+00 0.  1.
</event>
<event>
12    1  0.8052519E-002  0.1922891E+03  0.7818608E-02  0.1157112E+00
         21   -1    0    0  503  502  0.00000000000E+00  0.00000000000E+00  0.20072349236E+03  0.20072349236E+03  0.00000000000E+00 0. -1.
         21   -1    0    0  501  503 -0.00000000000E+00 -0.00000000000E+00 -0.50255824165E+03  0.50255824165E+03  0.00000000000E+00 0. -1.
          6    2    1    2  501    0 -0.35489055735E+02 -0.72342316560E+02 -0.43253729402E+03  0.47335355741E+03  0.17459151109E+03 0.  0.
         24    2    3    3    0    0 -0.35765323332E+02 -0.45105624028E+02 -0.43458299412E+03  0.44563734135E+03  0.80103592621E+02 0.  0.
         -6    2    1    2    0  502  0.35489055735E+02  0.72342316560E+02  0.13070254473E+03  0.22992817660E+03  0.17114592415E+03 0.  0.
        -24    2    5    5    0    0  0.20184163681E+02 -0.29406676147E+01  0.74867716718E+01  0.84649189277E+02  0.81813113287E+02 0.  0.
          5    1    3    3  501    0  0.27626759743E+00 -0.27236692532E+02  0.20457000962E+01  0.27716216061E+02  0.47000000000E+01 0. -1.
        -11    1    4    4    0    0 -0.35556751814E+02  0.10823504809E+02 -0.10597639809E+03  0.11230506582E+03  0.00000000000E+00 0.  1.
         12    1    4    4    0    0 -0.20857151783E+00 -0.55929128838E+02 -0.32860659603E+03  0.33333227553E+03  0.00000000000E+00 0. -1.
         -5    1    5    5    0  502  0.15304892054E+02  0.75282984175E+02  0.12321577306E+03  0.14527898732E+03  0.47000000000E+01 0.  1.
         13    1    6    6    0    0  0.44951673038E+02  0.62268714438E+01  0.26089073805E+02  0.52345645558E+02  0.00000000000E+00 0. -1.
        -14    1    6    6    0    0 -0.24767509357E+02 -0.91675390585E+01 -0.18602302134E+02  0.32303543719E+02  0.00000000000E+00 0.  1.
</event>
<event>
12    1  0.8052519E-002  0.1983472E+03  0.7818608E-02  0.1151827E+00
         21   -1    0    0  501  502  0.00000000000E+00  0.00000000000E+00  0.12845166786E+03  0.12845166786E+03  0.00000000000E+00 0. -1.
         21   -1    0    0  502  503 -0.00000000000E+00 -0.00000000000E+00 -0.39727847124E+03  0.39727847124E+03  0.00000000000E+00 0. -1.
         -6    2    1    2    0  503 -0.29914267551E+02  0.94461829084E+02 -0.26439034542E+03  0.33052062326E+03  0.17182469873E+03 0.  0.
        -24    2    3    3    0    0 -0.81654696822E+02  0.52192679023E+02 -0.12382393132E+03  0.17481333428E+03  0.76392215694E+02 0.  0.
          6    2    1    2  501    0  0.29914267551E+02 -0.94461829084E+02 -0.44364579580E+01  0.19520951584E+03  0.16813438779E+03 0.  0.
         24    2    5    5    0    0  0.59798157554E+02 -0.36647625073E+02 -0.48181814777E+02  0.11665205082E+03  0.79795649094E+02 0.  0.
          5    1    5    5  501    0 -0.29883890003E+02 -0.57814204011E+02  0.43745356819E+02  0.78557465020E+02  0.47000000000E+01 0. -1.
        -13    1    6    6    0    0  0.55734863240E+02 -0.40433326014E+02 -0.71381157491E+00  0.68860281439E+02  0.00000000000E+00 0.  1.
         14    1    6    6    0    0  0.40632943137E+01  0.37857009410E+01 -0.47468003202E+02  0.47791769378E+02  0.00000000000E+00 0. -1.
         -5    1    3    3    0  503  0.51740429271E+02  0.42269150060E+02 -0.14056641411E+03  0.15570728898E+03  0.47000000000E+01 0.  1.
         11    1    4    4    0    0 -0.55598919686E+02 -0.87783546575E+01 -0.46976020573E+02  0.73314704457E+02  0.00000000000E+00 0. -1.
        -12    1    4    4    0    0 -0.26055777136E+02  0.60971033681E+02 -0.76847910742E+02  0.10149862982E+03  0.00000000000E+00 0.  1.
</event>
<event>
12    1  0.8052519E-002  0.1905887E+03  0.7818608E-02  0.1158408E+00
         21   -1    0    0  501  502  0.00000000000E+00  0.00000000000E+00  0.35056605243E+02  0.35056605243E+02  0.00000000000E+00 0. -1.
         21   -1    0    0  502  503 -0.00000000000E+00 -0.00000000000E+00 -0.12358513796E+04  0.12358513796E+04  0.00000000000E+00 0. -1.
         -6    2    1    2    0  503 -0.51672214478E+02 -0.62555773266E+02 -0.86027325595E+03  0.88067859625E+03  0.17012193412E+03 0.  0.
        -24    2    3    3    0    0 -0.55373112553E+02 -0.40921906759E+02 -0.84953687764E+03  0.85579726498E+03  0.77040692000E+02 0.  0.
          6    2    1    2  501    0  0.51672214478E+02  0.62555773266E+02 -0.34052151839E+03  0.39022938858E+03  0.17245529481E+03 0.  0.
         24    2    5    5    0    0  0.23077059987E+02 -0.35137649052E+02 -0.16266074120E+03  0.18524589245E+03  0.78040495012E+02 0.  0.
          5    1    5    5  501    0  0.28595154490E+02  0.97693422318E+02 -0.17786077719E+03  0.20498349613E+03  0.47000000000E+01 0. -1.
        -13    1    6    6    0    0  0.90619746690E+01 -0.34913426388E+02 -0.16678023301E+03  0.17063620029E+03  0.00000000000E+00 0.  1.
         14    1    6    6    0    0  0.14015085318E+02 -0.22422266354E+00  0.41194918039E+01  0.14609692160E+02  0.00000000000E+00 0. -1.
         -5    1    3    3    0  503  0.37008980750E+01 -0.21633866507E+02 -0.10736378310E+02  0.24881331271E+02  0.47000000000E+01 0.  1.
         11    1    4    4    0    0 -0.84076209883E+00 -0.42808130904E+02 -0.23714110620E+03  0.24097540788E+03  0.00000000000E+00 0. -1.
        -12    1    4    4    0    0 -0.54532350454E+02  0.18862241449E+01 -0.61239577144E+03  0.61482185710E+03  0.00000000000E+00 0.  1.
</event>
<event>
12    1  0.8052519E-002  0.1734373E+03  0.7818608E-02  0.1174375E+00
         21   -1    0    0  501  502  0.00000000000E+00  0.00000000000E+00  0.21512027417E+03  0.21512027417E+03  0.00000000000E+00 0.  1.
         21   -1    0    0  502  503 -0.00000000000E+00 -0.00000000000E+00 -0.21613349109E+03  0.21613349109E+03  0.00000000000E+00 0.  1.
         -6    2    1    2    0  503 -0.70458630167E+01 -0.21918234660E+02 -0.12879850555E+03  0.21582497574E+03  0.17164297808E+03 0.  0.
        -24    2    3    3    0    0  0.13269880169E+02  0.50873862033E+02 -0.55646442466E+02  0.11054091666E+03  0.79740379602E+02 0.  0.
          6    2    1    2  501    0  0.70458630167E+01  0.21918234660E+02  0.12778528863E+03  0.21542878952E+03  0.17190238558E+03 0.  0.
         24    2    5    5    0    0  0.84569116194E+01  0.41392595873E+02  0.15626403344E+03  0.18058096737E+03  0.80038561214E+02 0.  0.
          5    1    5    5  501    0 -0.14110486027E+01 -0.19474361213E+02 -0.28478744809E+02  0.34847822152E+02  0.47000000000E+01 0. -1.
        -11    1    6    6    0    0  0.18764699050E+02  0.55718734537E+02  0.65079954355E+02  0.87704570962E+02  0.00000000000E+00 0.  1.
         12    1    6    6    0    0 -0.10307787431E+02 -0.14326138664E+02  0.91184079082E+02  0.92876396403E+02  0.00000000000E+00 0. -1.
         -5    1    3    3    0  503 -0.20315743185E+02 -0.72792096693E+02 -0.73152063084E+02  0.10528405908E+03  0.47000000000E+01 0.  1.
         13    1    4    4    0    0  0.97488898585E+01  0.62792701216E+02 -0.11371088330E+02  0.64554363363E+02  0.00000000000E+00 0. -1.
        -14    1    4    4    0    0  0.35209903101E+01 -0.11918839183E+02 -0.44275354136E+02  0.45986553297E+02  0.00000000000E+00 0.  1.
</event>
<event>
12    1  0.8052519E-002  0.1818474E+03  0.7818608E-02  0.1166413E+00
         21   -1    0    0  501  502  0.00000000000E+00  0.00000000000E+00  0.88477178546E+02  0.88477178546E+02  0.00000000000E+00 0.  1.
         21   -1    0    0  502  503 -0.00000000000E+00 -0.00000000000E+00 -0.55792063278E+03  0.55792063278E+03  0.00000000000E+00 0.  1.
         -6    2    1    2    0  503 -0.56616919555E+02 -0.48363823310E+01 -0.42137495469E+03  0.45830459896E+03  0.17104790793E+03 0.  0.
        -24    2    3    3    0    0 -0.46628553809E+02  0.50828551672E+02 -0.16740024404E+03  0.19806702293E+03  0.80311519535E+02 0.  0.
          6    2    1    2  501    0  0.56616919555E+02  0.48363823310E+01 -0.48068499541E+02  0.18809321237E+03  0.17274145338E+03 0.  0.
         24    2    5    5    0    0  0.45038073735E+02  0.55884903814E+02 -0.72497868208E+02  0.13013714910E+03  0.80797191296E+02 0.  0.
          5    1    5    5  501    0  0.11578845820E+02 -0.51048521483E+02  0.24429368667E+02  0.57956063269E+02  0.47000000000E+01 0. -1.
        -11    1    6    6    0    0  0.99388504651E+01  0.49740596811E+02 -0.15543338645E+01  0.50747646975E+02  0.00000000000E+00 0.  1.
         12    1    6    6    0    0  0.35099223270E+02  0.61443070030E+01 -0.70943534343E+02  0.79389502126E+02  0.00000000000E+00 0. -1.
         -5    1    3    3    0  503 -0.99883657468E+01 -0.55664934003E+02 -0.25397471065E+03  0.26023757603E+03  0.47000000000E+01 0.  1.
         11    1    4    4    0    0 -0.37997448218E+02  0.23183706703E+02 -0.16275992878E+03  0.16873673205E+03  0.00000000000E+00 0. -1.
        -12    1    4    4    0    0 -0.86311055910E+01  0.27644844969E+02 -0.46403152650E+01  0.29330290875E+02  0.00000000000E+00 0.  1.
</event>
<event>
12    1  0.8052519E-002  0.1748645E+03  0.7818608E-02  0.1172929E+00
         21   -1    0    0  501  502  0.00000000000E+00  0.00000000000E+00  0.55481188762E+02  0.55481188762E+02  0.00000000000E+00 0. -1.
         21   -1    0    0  502  503 -0.00000000000E+00 -0.00000000000E+00 -0.11906856572E+04  0.11906856572E+04  0.00000000000E+00 0. -1.
         -6    2    1    2    0  503  0.33725177389E+02 -0.57592750965E+01 -0.10243454215E+04  0.10391225963E+04  0.17123571732E+03 0.  0.
        -24    2    3    3    0    0  0.26507921337E+02 -0.70026368499E+02 -0.69715535014E+03  0.70556933094E+03  0.78715540729E+02 0.  0.
          6    2    1    2  501    0 -0.33725177389E+02  0.57592750965E+01 -0.11085904695E+03  0.20704424961E+03  0.17148479864E+03 0.  0.
         24    2    5    5    0    0  0.55894340438E+01 -0.47369540665E+01 -0.13690667054E+03  0.15850170957E+03  0.79534112136E+02 0.  0.
          5    1    5    5  501    0 -0.39314611433E+02  0.10496229163E+02  0.26047623587E+02  0.48542540037E+02  0.47000000000E+01 0. -1.
        -13    1    6    6    0    0  0.37921341096E+02 -0.14358301514E+02 -0.44867143133E+02  0.60475197113E+02  0.00000000000E+00 0.  1.
         14    1    6    6    0    0 -0.32331907053E+02  0.96213474475E+01 -0.92039527403E+02  0.98026512459E+02  0.00000000000E+00 0. -1.
         -5    1    3    3    0  503  0.72172560519E+01  0.64267093403E+02 -0.32719007131E+03  0.33355326538E+03  0.47000000000E+01 0.  1.
         13    1    4    4    0    0 -0.23986261833E+00 -0.21767740706E+02 -0.50964449766E+03  0.51010920994E+03  0.00000000000E+00 0. -1.
        -14    1    4    4    0    0  0.26747783955E+02 -0.48258627794E+02 -0.18751085248E+03  0.19546012100E+03  0.00000000000E+00 0.  1.
</event>
<event>
12    1  0.8052519E-002  0.2029398E+03  0.7818608E-02  0.1149053E+00
         21   -1    0    0  503  502  0.00000000000E+00  0.00000000000E+00  0.76389588438E+02  0.76389588438E+02  0.00000000000E+00 0. -1.
         21   -1    0    0  501  503 -0.00000000000E+00 -0.00000000000E+00 -0.59993586916E+03  0.59993586916E+03  0.00000000000E+00 0. -1.
          6    2    1    2  501    0 -0.44081156418E+02  0.78623299572E+02 -0.39211709026E+03  0.44152054740E+03  0.18182356754E+03 0.  0.
         24    2    3    3    0    0 -0.56485137770E+02  0.27866798903E+02 -0.10427428824E+03  0.14893611550E+03  0.85683779344E+02 0.  0.
         -6    2    1    2    0  502  0.44081156418E+02 -0.78623299572E+02 -0.13142919046E+03  0.23480491019E+03  0.17243822709E+03 0.  0.
        -24    2    5    5    0    0  0.42974193714E+02  0.15201248433E+02 -0.50188223899E+02  0.11060162593E+03  0.87384223753E+02 0.  0.
          5    1    3    3  501    0  0.12403981352E+02  0.50756500670E+02 -0.28784280202E+03  0.29258443190E+03  0.47000000000E+01 0. -1.
        -13    1    4    4    0    0  0.18614916860E+02 -0.10728459949E+02 -0.16061885493E+02  0.26825345257E+02  0.00000000000E+00 0.  1.
         14    1    4    4    0    0 -0.75100054629E+02  0.38595258852E+02 -0.88212402748E+02  0.12211077024E+03  0.00000000000E+00 0. -1.
         -5    1    5    5    0  502  0.11069627037E+01 -0.93824548006E+02 -0.81240966556E+02  0.12420328426E+03  0.47000000000E+01 0.  1.
         11    1    6    6    0    0  0.21474752404E+02  0.31871941334E+02  0.13987227538E+02  0.40897777072E+02  0.00000000000E+00 0. -1.
        -12    1    6    6    0    0  0.21499441310E+02 -0.16670692900E+02 -0.64175451437E+02  0.69703848858E+02  0.00000000000E+00 0.  1.
</event>
<event>
12    1  0.8052519E-002  0.2441630E+03  0.7818608E-02  0.1117864E+00
         21   -1    0    0  501  502  0.00000000000E+00  0.00000000000E+00  0.20841510892E+04  0.20841510892E+04  0.00000000000E+00 0. -1.
         21   -1    0    0  502  503 -0.00000000000E+00 -0.00000000000E+00 -0.28061927672E+02  0.28061927672E+02  0.00000000000E+00 0.  1.
         -6    2    1    2    0  503  0.98088909303E+02 -0.14334303354E+03  0.98101913211E+03  0.10097652225E+04  0.16449500812E+03 0.  0.
        -24    2    3    3    0    0  0.10364056562E+03 -0.15485816859E+03  0.71059014128E+03  0.73899345831E+03  0.80315399012E+02 0.  0.
          6    2    1    2  501    0 -0.98088909303E+02  0.14334303354E+03  0.10750700294E+04  0.11024477943E+04  0.17160102471E+03 0.  0.
         24    2    5    5    0    0 -0.11233315272E+03  0.65548434737E+02  0.51946534303E+03  0.54122274534E+03  0.78501483899E+02 0.  0.
          5    1    5    5  501    0  0.14244243414E+02  0.77794598798E+02  0.55560468636E+03  0.56122504896E+03  0.47000000000E+01 0. -1.
        -11    1    6    6    0    0 -0.78143156326E+02  0.73672449009E+02  0.29331378061E+03  0.31235709776E+03  0.00000000000E+00 0.  1.
         12    1    6    6    0    0 -0.34189996390E+02 -0.81240142716E+01  0.22615156242E+03  0.22886564759E+03  0.00000000000E+00 0. -1.
         -5    1    3    3    0  503 -0.55516563209E+01  0.11515135058E+02  0.27042899083E+03  0.27077176423E+03  0.47000000000E+01 0.  1.
         11    1    4    4    0    0  0.41562533710E+02 -0.53489484371E+02  0.41340552680E+03  0.41891848698E+03  0.00000000000E+00 0. -1.
        -12    1    4    4    0    0  0.62078031913E+02 -0.10136868422E+03  0.29718461448E+03  0.32007497133E+03  0.00000000000E+00 0.  1.
</event>
<event>
12    1  0.8052519E-002  0.1985118E+03  0.7818608E-02  0.1151206E+00
         21   -1    0    0  503  502  0.00000000000E+00  0.00000000000E+00  0.10676757490E+03  0.10676757490E+03  0.00000000000E+00 0.  1.
         21   -1    0    0  501  503 -0.00000000000E+00 -0.00000000000E+00 -0.37209945454E+03  0.37209945454E+03  0.00000000000E+00 0. -1.
          6    2    1    2  501    0  0.75294473237E+02  0.62258857431E+02 -0.10580547724E+03  0.22494828148E+03  0.17280482429E+03 0.  0.
         24    2    3    3    0    0 -0.54034927354E+00 -0.12708926342E+02 -0.73248537577E+02  0.11335467400E+03  0.85569416705E+02 0.  0.
         -6    2    1    2    0  502 -0.75294473237E+02 -0.62258857431E+02 -0.15952640240E+03  0.25391874796E+03  0.17169925589E+03 0.  0.
        -24    2    5    5    0    0 -0.31338068970E+00 -0.65682802825E+01 -0.13440460063E+03  0.15708487193E+03  0.81042086641E+02 0.  0.
          5    1    3    3  501    0  0.75834822510E+02  0.74967783773E+02 -0.32556939666E+02  0.11159360748E+03  0.47000000000E+01 0. -1.
        -13    1    4    4    0    0 -0.17579015182E+02 -0.39432252369E+02 -0.12682336786E+02  0.44997399569E+02  0.00000000000E+00 0.  1.
         14    1    4    4    0    0  0.17038665908E+02  0.26723326027E+02 -0.60566200791E+02  0.68357274435E+02  0.00000000000E+00 0. -1.
         -5    1    5    5    0  502 -0.74981092547E+02 -0.55690577148E+02 -0.25121801777E+02  0.96833876031E+02  0.47000000000E+01 0.  1.
         13    1    6    6    0    0  0.33507502578E+02 -0.42254907664E+01 -0.23578128655E+02  0.41189023442E+02  0.00000000000E+00 0. -1.
        -14    1    6    6    0    0 -0.33820883268E+02 -0.23427895161E+01 -0.11082647197E+03  0.11589584849E+03  0.00000000000E+00 0.  1.
</event>
<event>
12    1  0.8052519E-002  0.1947562E+03  0.7818608E-02  0.1154335E+00
         21   -1    0    0  503  502  0.00000000000E+00  0.00000000000E+00  0.98201730753E+02  0.98201730753E+02  0.00000000000E+00 0. -1.
         21   -1    0    0  501  503 -0.00000000000E+00 -0.00000000000E+00 -0.38571546465E+03  0.38571546465E+03  0.00000000000E+00 0. -1.
          6    2    1    2  501    0  0.52177359532E+02 -0.72314116080E+02 -0.13686705585E+03  0.23803902261E+03  0.17314207194E+03 0.  0.
         24    2    3    3    0    0  0.68756301150E+02  0.99331248542E+01 -0.10219812934E+03  0.14713525805E+03  0.79863825368E+02 0.  0.
         -6    2    1    2    0  502 -0.52177359532E+02  0.72314116080E+02 -0.15064667805E+03  0.24587817280E+03  0.17265528088E+03 0.  0.
        -24    2    5    5    0    0 -0.87287620559E+02  0.60531547617E+02 -0.15811223722E+03  0.20780739762E+03  0.83073690091E+02 0.  0.
          5    1    3    3  501    0 -0.16578941618E+02 -0.82247240934E+02 -0.34668926506E+02  0.90903764562E+02  0.47000000000E+01 0. -1.
        -11    1    4    4    0    0  0.24006943198E+02  0.95728159600E+01 -0.98946769429E+02  0.10226649162E+03  0.00000000000E+00 0.  1.
         12    1    4    4    0    0  0.44749357952E+02  0.36030889426E+00 -0.32513599110E+01  0.44868766429E+02  0.00000000000E+00 0. -1.
         -5    1    5    5    0  502  0.35110261027E+02  0.11782568463E+02  0.74655591700E+01  0.38070775179E+02  0.47000000000E+01 0.  1.
         11    1    6    6    0    0 -0.28398298734E+02  0.58312288470E+02 -0.12341510680E+03  0.13942049686E+03  0.00000000000E+00 0. -1.
        -12    1    6    6    0    0 -0.58889321825E+02  0.22192591467E+01 -0.34697130427E+02  0.68386900763E+02  0.00000000000E+00 0.  1.
</event>
<event>
12    1  0.8052519E-002  0.2077701E+03  0.7818608E-02  0.1143734E+00
         21   -1    0    0  501  502  0.00000000000E+00  0.00000000000E+00  0.36552080004E+03  0.36552080004E+03  0.00000000000E+00 0. -1.
         21   -1    0    0  502  503 -0.00000000000E+00 -0.00000000000E+00 -0.18267312879E+03  0.18267312879E+03  0.00000000000E+00 0.  1.
         -6    2    1    2    0  503  0.60176651053E+02  0.99952035577E+02 -0.72640873953E+02  0.22010249611E+03  0.17192083491E+03 0.  0.
        -24    2    3    3    0    0 -0.59129705361E+01  0.42214735395E+02  0.19145638715E+02  0.93026582489E+02  0.80438438963E+02 0.  0.
          6    2    1    2  501    0 -0.60176651053E+02 -0.99952035577E+02  0.25548854520E+03  0.32809143272E+03  0.16958169933E+03 0.  0.
         24    2    5    5    0    0 -0.20917902319E+02  0.14881276184E+02  0.11872444250E+03  0.14518585973E+03  0.79526282461E+02 0.  0.
          5    1    5    5  501    0 -0.39258748734E+02 -0.11483331176E+03  0.13676410270E+03  0.18290557299E+03  0.47000000000E+01 0. -1.
        -11    1    6    6    0    0 -0.12083364094E+02  0.13198827865E+01 -0.98200897334E+01  0.15626386043E+02  0.00000000000E+00 0.  1.
         12    1    6    6    0    0 -0.88345382257E+01  0.13561393397E+02  0.12854453223E+03  0.12955947369E+03  0.00000000000E+00 0. -1.
         -5    1    3    3    0  503  0.66089621589E+02  0.57737300183E+02 -0.91786512668E+02  0.12707591362E+03  0.47000000000E+01 0.  1.
         11    1    4    4    0    0  0.22482422228E+02  0.32362766965E+02  0.40229022710E+02  0.56313251221E+02  0.00000000000E+00 0. -1.
        -12    1    4    4    0    0 -0.28395392764E+02  0.98519684291E+01 -0.21083383994E+02  0.36713331268E+02  0.00000000000E+00 0.  1.
</event>
<event>
12    1  0.8052519E-002  0.2347559E+03  0.7818608E-02  0.1123482E+00
         21   -1    0    0  503  502  0.00000000000E+00  0.00000000000E+00  0.42607403343E+03  0.42607403343E+03  0.00000000000E+00 0. -1.
         21   -1    0    0  501  503 -0.00000000000E+00 -0.00000000000E+00 -0.13216727091E+03  0.13216727091E+03  0.00000000000E+00 0. -1.
          6    2    1    2  501    0  0.10498181895E+03 -0.12124379696E+03  0.10317259735E+03  0.25642718345E+03  0.17143242096E+03 0.  0.
         24    2    3    3    0    0  0.13867968747E+03 -0.92860159327E+02  0.58855920286E+02  0.19375952756E+03  0.78890241857E+02 0.  0.
         -6    2    1    2    0  502 -0.10498181895E+03  0.12124379696E+03  0.19073416517E+03  0.30181412089E+03  0.17026744021E+03 0.  0.
        -24    2    5    5    0    0 -0.73199048999E+02  0.15333848320E+03  0.15644527618E+03  0.24491041927E+03  0.81456723629E+02 0.  0.
          5    1    3    3  501    0 -0.33697868524E+02 -0.28383637633E+02  0.44316677059E+02  0.62667655883E+02  0.47000000000E+01 0. -1.
        -11    1    4    4    0    0 -0.99575353521E+01 -0.15853728185E+01  0.46682956222E+01  0.11111206113E+02  0.00000000000E+00 0.  1.
         12    1    4    4    0    0  0.14863722283E+03 -0.91274786508E+02  0.54187624664E+02  0.18264832145E+03  0.00000000000E+00 0. -1.
         -5    1    5    5    0  502 -0.31782769951E+02 -0.32094686235E+02  0.34288888993E+02  0.56903701626E+02  0.47000000000E+01 0.  1.
         11    1    6    6    0    0 -0.50011553963E+02  0.83304624963E+02  0.13816028506E+03  0.16890553702E+03  0.00000000000E+00 0. -1.
        -12    1    6    6    0    0 -0.23187495036E+02  0.70033858232E+02  0.18284991125E+02  0.76004882247E+02  0.00000000000E+00 0.  1.
</event>
<event>
12    1  0.8052519E-002  0.1757375E+03  0.7818608E-02  0.1172083E+00
         21   -1    0    0  503  502  0.00000000000E+00  0.00000000000E+00  0.91984713928E+03  0.91984713928E+03  0.00000000000E+00 0. -1.
         21   -1    0    0  501  503 -0.00000000000E+00 -0.00000000000E+00 -0.40180234915E+02  0.40180234915E+02  0.00000000000E+00 0. -1.
          6    2    1    2  501    0 -0.23001858959E+02  0.28706772906E+02  0.24383013330E+03  0.30035163404E+03  0.17147829554E+03 0.  0.
         24    2    3    3    0    0  0.24054749951E+02  0.64358959043E+02  0.10011804163E+03  0.14491464323E+03  0.79094405368E+02 0.  0.
         -6    2    1    2    0  502  0.23001858959E+02 -0.28706772906E+02  0.63583677107E+03  0.65967574016E+03  0.17184445985E+03 0.  0.
        -24    2    5    5    0    0  0.63225824040E+02 -0.64759141040E+02  0.45055164907E+03  0.46662028945E+03  0.80910165418E+02 0.  0.
          5    1    3    3  501    0 -0.47056608910E+02 -0.35652186137E+02  0.14371209167E+03  0.15543699081E+03  0.47000000000E+01 0. -1.
        -13    1    4    4    0    0  0.34092718695E+01  0.32339773693E+02 -0.51867168016E+01  0.32930018651E+02  0.00000000000E+00 0.  1.
         14    1    4    4    0    0  0.20645478082E+02  0.32019185351E+02  0.10530475843E+03  0.11198462458E+03  0.00000000000E+00 0. -1.
         -5    1    5    5    0  502 -0.40223965081E+02  0.36052368134E+02  0.18528512200E+03  0.19305545071E+03  0.47000000000E+01 0.  1.
         11    1    6    6    0    0  0.50553275128E+02  0.46961415893E+01  0.19325797983E+03  0.19981575048E+03  0.00000000000E+00 0. -1.
        -12    1    6    6    0    0  0.12672548912E+02 -0.69455282630E+02  0.25729366924E+03  0.26680453896E+03  0.00000000000E+00 0.  1.
</event>
<event>
12    1  0.8052519E-002  0.1846664E+03  0.7818608E-02  0.1163393E+00
         21   -1    0    0  503  502  0.00000000000E+00  0.00000000000E+00  0.31628349060E+02  0.31628349060E+02  0.00000000000E+00 0.  1.
         21   -1    0    0  501  503 -0.00000000000E+00 -0.00000000000E+00 -0.12454220591E+04  0.12454220591E+04  0.00000000000E+00 0.  1.
          6    2    1    2  501    0  0.54045669764E+02 -0.36637359677E+02 -0.84160391695E+03  0.86162568250E+03  0.17273804784E+03 0.  0.
         24    2    3    3    0    0  0.63895220071E+02 -0.73310932432E+02 -0.77483053103E+03  0.78466634488E+03  0.76693083155E+02 0.  0.
         -6    2    1    2    0  502 -0.54045669764E+02  0.36637359677E+02 -0.37218979307E+03  0.41542472564E+03  0.17259556792E+03 0.  0.
        -24    2    5    5    0    0 -0.40149023403E+02  0.77029592940E+02 -0.15939354694E+03  0.19833262156E+03  0.79900085732E+02 0.  0.
          5    1    3    3  501    0 -0.98495503070E+01  0.36673572755E+02 -0.66773385920E+02  0.76959337622E+02  0.47000000000E+01 0. -1.
        -11    1    4    4    0    0  0.41722910091E+00 -0.56957566658E+02 -0.41826292592E+03  0.42212345786E+03  0.00000000000E+00 0.  1.
         12    1    4    4    0    0  0.63477990970E+02 -0.16353365774E+02 -0.35656760512E+03  0.36254288702E+03  0.00000000000E+00 0. -1.
         -5    1    5    5    0  502 -0.13896646361E+02 -0.40392233263E+02 -0.21279624612E+03  0.21709210408E+03  0.47000000000E+01 0.  1.
         13    1    6    6    0    0  0.15400923472E+02 -0.64805761452E+01 -0.32905412789E+02  0.36904640653E+02  0.00000000000E+00 0. -1.
        -14    1    6    6    0    0 -0.55549946875E+02  0.83510169085E+02 -0.12648813415E+03  0.16142798091E+03  0.00000000000E+00 0.  1.
</event>
<event>
12    1  0.8052519E-002  0.2360728E+03  0.7818608E-02  0.1122949E+00
         21   -1    0    0  503  502  0.00000000000E+00  0.00000000000E+00  0.22489227464E+03  0.22489227464E+03  0.00000000000E+00 0.  1.
         21   -1    0    0  501  503 -0.00000000000E+00 -0.00000000000E+00 -0.26508946092E+03  0.26508946092E+03  0.00000000000E+00 0.  1.
          6    2    1    2  501    0 -0.15337613972E+03 -0.43490312467E+02  0.47995283281E+02  0.23797322749E+03  0.17003547358E+03 0.  0.
         24    2    3    3    0    0 -0.10967023226E+03 -0.23218154739E+02  0.10008826622E+03  0.16686109353E+03  0.72514280989E+02 0.  0.
         -6    2    1    2    0  502  0.15337613972E+03  0.43490312467E+02 -0.88192469567E+02  0.25200850807E+03  0.17411125448E+03 0.  0.
        -24    2    5    5    0    0  0.11408388688E+03  0.43344993248E+02  0.12100661173E+02  0.14419058598E+03  0.75832561591E+02 0.  0.
          5    1    3    3  501    0 -0.43705907460E+02 -0.20272157727E+02 -0.52092982935E+02  0.71112133964E+02  0.47000000000E+01 0. -1.
        -13    1    4    4    0    0 -0.74377645790E+02 -0.43132020329E+02  0.91269351036E+02  0.12538939273E+03  0.00000000000E+00 0.  1.
         14    1    4    4    0    0 -0.35292586467E+02  0.19913865590E+02  0.88189151796E+01  0.41471700800E+02  0.00000000000E+00 0. -1.
         -5    1    5    5    0  502  0.39292252833E+02  0.14531921864E+00 -0.10029313074E+03  0.10781792209E+03  0.47000000000E+01 0.  1.
         11    1    6    6    0    0 -0.38182656943E+01 -0.12570647735E+02 -0.38367528467E-01  0.13137800784E+02  0.00000000000E+00 0. -1.
        -12    1    6    6    0    0  0.11790215258E+03  0.55915640982E+02  0.12139028702E+02  0.13105278519E+03  0.00000000000E+00 0.  1.
</event>
<event>
12    1  0.8052519E-002  0.1844656E+03  0.7818608E-02  0.1163711E+00
         21   -1    0    0  503  502  0.00000000000E+00  0.00000000000E+00  0.12857588879E+04  0.12857588879E+04  0.00000000000E+00 0.  1.
         21   -1    0    0  501  503 -0.00000000000E+00 -0.00000000000E+00 -0.30429053789E+02  0.30429053789E+02  0.00000000000E+00 0.  1.
          6    2    1    2  501    0 -0.54171459055E+02 -0.40249231839E+02  0.38618324385E+03  0.42768169975E+03  0.17093738862E+03 0.  0.
         24    2    3    3    0    0 -0.42407633069E+02 -0.92277470310E+02  0.25842582368E+03  0.28915598513E+03  0.80707735224E+02 0.  0.
         -6    2    1    2    0  502  0.54171459055E+02  0.40249231839E+02  0.86914659023E+03  0.88850624191E+03  0.17167701934E+03 0.  0.
        -24    2    5    5    0    0 -0.33980173876E+02  0.10543434614E+02  0.50648167840E+03  0.51407190448E+03  0.80501032223E+02 0.  0.
          5    1    3    3  501    0 -0.11763825985E+02  0.52028238471E+02  0.12775742018E+03  0.13852571462E+03  0.47000000000E+01 0. -1.
        -11    1    4    4    0    0 -0.75340218547E+01 -0.78634282546E+02  0.22672474507E+03  0.24009211129E+03  0.00000000000E+00 0.  1.
         12    1    4    4    0    0 -0.34873611214E+02 -0.13643187764E+02  0.31701078609E+02  0.49063873843E+02  0.00000000000E+00 0. -1.
         -5    1    5    5    0  502  0.88151632930E+02  0.29705797224E+02  0.36266491183E+03  0.37443433743E+03  0.47000000000E+01 0.  1.
         11    1    6    6    0    0  0.47178861152E+01  0.77727998610E+01  0.40973591304E+03  0.40983678862E+03  0.00000000000E+00 0. -1.
        -12    1    6    6    0    0 -0.38698059991E+02  0.27706347535E+01  0.96745765356E+02  0.10423511586E+03  0.00000000000E+00 0.  1.
</event>
<event>
12    1  0.8052519E-002  0.1863246E+03  0.7818608E-02  0.1161879E+00
         21   -1    0    0  501  502  0.00000000000E+00  0.00000000000E+00  0.39272379099E+02  0.39272379099E+02  0.00000000000E+00 0.  1.
         21   -1    0    0  502  503 -0.00000000000E+00 -0.00000000000E+00 -0.97289535763E+03  0.97289535763E+03  0.00000000000E+00 0.  1.
         -6    2    1    2    0  503 -0.34782754030E+02  0.61484810607E+02 -0.31246954120E+03  0.36367066675E+03  0.17213052535E+03 0.  0.
        -24    2    3    3    0    0 -0.42638360472E+02  0.76375170222E+02 -0.32076233666E+03  0.34432399213E+03  0.89550759494E+02 0.  0.
          6    2    1    2  501    0  0.34782754030E+02 -0.61484810607E+02 -0.62115343733E+03  0.64849706999E+03  0.17241413852E+03 0.  0.
         24    2    5    5    0    0  0.34090820346E+02 -0.32175208342E+01 -0.54599754647E+03  0.55328124273E+03  0.82669682061E+02 0.  0.
          5    1    5    5  501    0  0.69193368400E+00 -0.58267289773E+02 -0.75155890863E+02  0.95215827262E+02  0.47000000000E+01 0. -1.
        -13    1    6    6    0    0 -0.27406504914E+02 -0.15502190790E+01 -0.19693545056E+03  0.19883936074E+03  0.00000000000E+00 0.  1.
         14    1    6    6    0    0  0.61497325260E+02 -0.16673017553E+01 -0.34906209590E+03  0.35444188199E+03  0.00000000000E+00 0. -1.
         -5    1    3    3    0  503  0.78556064413E+01 -0.14890359615E+02  0.82927954594E+01  0.19346674612E+02  0.47000000000E+01 0.  1.
         13    1    4    4    0    0  0.21247358605E+02  0.52596944805E+01 -0.11979261810E+03  0.12177596637E+03  0.00000000000E+00 0. -1.
        -14    1    4    4    0    0 -0.63885719077E+02  0.71115475742E+02 -0.20096971857E+03  0.22254802577E+03  0.00000000000E+00 0.  1.
</event>
<event>
12    1  0.8052519E-002  0.2774809E+03  0.7818608E-02  0.1097230E+00
         21   -1    0    0  503  502  0.00000000000E+00  0.00000000000E+00  0.27812089178E+03  0.27812089178E+03  0.00000000000E+00 0.  1.
         21   -1    0    0  501  503 -0.00000000000E+00 -0.00000000000E+00 -0.28685966700E+03  0.28685966700E+03  0.00000000000E+00 0. -1.
          6    2    1    2  501    0 -0.74145294790E+02  0.20307397781E+03  0.51336148146E+02  0.28107094524E+03  0.17213050558E+03 0.  0.
         24    2    3    3    0    0 -0.80204626948E+01  0.17105198592E+03  0.81480282057E+02  0.20151806853E+03  0.68171738056E+02 0.  0.
         -6    2    1    2    0  502  0.74145294790E+02 -0.20307397781E+03 -0.60074923371E+02  0.28390961354E+03  0.17395145023E+03 0.  0.
        -24    2    5    5    0    0  0.10173531831E+02 -0.25933253853E+02 -0.43013944829E+02  0.94741990704E+02  0.79685701023E+02 0.  0.
          5    1    3    3  501    0 -0.66124832095E+02  0.32021991885E+02 -0.30144133911E+02  0.79552876712E+02  0.47000000000E+01 0. -1.
        -11    1    4    4    0    0  0.25905525260E+02  0.34193178886E+02  0.13407642473E+02  0.44944795005E+02  0.00000000000E+00 0.  1.
         12    1    4    4    0    0 -0.33925987955E+02  0.13685880704E+03  0.68072639584E+02  0.15657327352E+03  0.00000000000E+00 0. -1.
         -5    1    5    5    0  502  0.63971762959E+02 -0.17714072396E+03 -0.17060978542E+02  0.18916762283E+03  0.47000000000E+01 0.  1.
         13    1    6    6    0    0  0.96143073644E+01 -0.37237278937E+02 -0.61812140250E+02  0.72799660240E+02  0.00000000000E+00 0. -1.
        -14    1    6    6    0    0  0.55922446636E+00  0.11304025084E+02  0.18798195421E+02  0.21942330464E+02  0.00000000000E+00 0.  1.
</event>
<event>
12    1  0.8052519E-002  0.5155316E+03  0.7818608E-02  0.1009862E+00
         21   -1    0    0  501  502  0.00000000000E+00  0.00000000000E+00  0.23839585884E+03  0.23839585884E+03  0.00000000000E+00 0.  1.
         21   -1    0    0  502  503 -0.00000000000E+00 -0.00000000000E+00 -0.19743230332E+04  0.19743230332E+04  0.00000000000E+00 0. -1.
         -6    2    1    2    0  503  0.46407422308E+03  0.14311633852E+03 -0.15992469688E+04  0.16802867768E+04  0.17299021414E+03 0.  0.
        -24    2    3    3    0    0  0.45202686503E+03  0.16296535250E+03 -0.15598862477E+04  0.16343468317E+04  0.83417429995E+02 0.  0.
          6    2    1    2  501    0 -0.46407422308E+03 -0.14311633852E+03 -0.13668020555E+03  0.53243211523E+03  0.17016259243E+03 0.  0.
         24    2    5    5    0    0 -0.25194069167E+03 -0.32466559031E+02 -0.23540574855E+02  0.26773101043E+03  0.81225277511E+02 0.  0.
          5    1    5    5  501    0 -0.21213353141E+03 -0.11064977949E+03 -0.11313963070E+03  0.26470110480E+03  0.47000000000E+01 0. -1.
        -11    1    6    6    0    0 -0.18054328738E+03 -0.21201460832E+02 -0.53491483081E+02  0.18949068400E+03  0.00000000000E+00 0.  1.
         12    1    6    6    0    0 -0.71397404290E+02 -0.11265098200E+02  0.29950908226E+02  0.78240326433E+02  0.00000000000E+00 0. -1.
         -5    1    3    3    0  503  0.12047358055E+02 -0.19849013984E+02 -0.39360721096E+02  0.45939945118E+02  0.47000000000E+01 0.  1.
         13    1    4    4    0    0  0.98860769671E+02  0.59455926320E+02 -0.28674485804E+03  0.30908101295E+03  0.00000000000E+00 0. -1.
        -14    1    4    4    0    0  0.35316609535E+03  0.10350942618E+03 -0.12731413897E+04  0.13252658187E+04  0.00000000000E+00 0.  1.
</event>
<event>
12    1  0.8052519E-002  0.2016099E+03  0.7818608E-02  0.1148403E+00
         21   -1    0    0  503  502  0.00000000000E+00  0.00000000000E+00  0.22723756364E+04  0.22723756364E+04  0.00000000000E+00 0. -1.
         21   -1    0    0  501  503 -0.00000000000E+00 -0.00000000000E+00 -0.18040331950E+02  0.18040331950E+02  0.00000000000E+00 0. -1.
          6    2    1    2  501    0 -0.22953734732E+02  0.10022425838E+03  0.10196589086E+04  0.10393992736E+04  0.17342082961E+03 0.  0.
         24    2    3    3    0    0 -0.18978605833E+01 -0.50340659381E+01  0.25585160418E+03  0.26807161755E+03  0.79833608731E+02 0.  0.
         -6    2    1    2    0  502  0.22953734732E+02 -0.10022425838E+03  0.12346763958E+04  0.12510166947E+04  0.17333549030E+03 0.  0.
        -24    2    5    5    0    0  0.17910035482E+02  0.16680131273E+01  0.42224620848E+03  0.43219292053E+03  0.90417411724E+02 0.  0.
          5    1    3    3  501    0 -0.21055874149E+02  0.10525832432E+03  0.76380730447E+03  0.77132765609E+03  0.47000000000E+01 0. -1.
        -11    1    4    4    0    0 -0.18731787656E+02  0.91089009719E+01  0.13715297957E+02  0.24939152828E+02  0.00000000000E+00 0.  1.
         12    1    4    4    0    0  0.16833927073E+02 -0.14142966910E+02  0.24213630622E+03  0.24313246472E+03  0.00000000000E+00 0. -1.
         -5    1    5    5    0  502  0.50436992497E+01 -0.10189227151E+03  0.81243018733E+03  0.81882377419E+03  0.47000000000E+01 0.  1.
         11    1    6    6    0    0  0.22542989698E+01 -0.19210369690E+02  0.15980021986E+02  0.25089465322E+02  0.00000000000E+00 0. -1.
        -12    1    6    6    0    0  0.15655736513E+02  0.20878382818E+02  0.40626618649E+03  0.40710345521E+03  0.00000000000E+00 0.  1.
</event>
<event>
12    1  0.8052519E-002  0.2320890E+03  0.7818608E-02  0.1125309E+00
         21   -1    0    0  503  502  0.00000000000E+00  0.00000000000E+00  0.51092947758E+03  0.51092947758E+03  0.00000000000E+00 0.  1.
         21   -1    0    0  501  503 -0.00000000000E+00 -0.00000000000E+00 -0.13574985257E+03  0.13574985257E+03  0.00000000000E+00 0.  1.
          6    2    1    2  501    0  0.15184400637E+03 -0.34338075219E+02  0.33680474517E+02  0.23377861948E+03  0.17112090136E+03 0.  0.
         24    2    3    3    0    0  0.11357411197E+03 -0.85214952499E+01 -0.41717724492E+02  0.14524580618E+03  0.79901695123E+02 0.  0.
         -6    2    1    2    0  502 -0.15184400637E+03  0.34338075219E+02  0.34149915049E+03  0.41290071066E+03  0.17213256926E+03 0.  0.
        -24    2    5    5    0    0 -0.75332961494E+02  0.46885925285E+02  0.89524868724E+02  0.14922568871E+03  0.79876523298E+02 0.  0.
          5    1    3    3  501    0  0.38269894399E+02 -0.25816579969E+02  0.75398199009E+02  0.88532813309E+02  0.47000000000E+01 0. -1.
        -13    1    4    4    0    0  0.69136457484E+02  0.29242816201E+02 -0.27675069048E+01  0.75117582145E+02  0.00000000000E+00 0.  1.
         14    1    4    4    0    0  0.44437654487E+02 -0.37764311451E+02 -0.38950217587E+02  0.70128224031E+02  0.00000000000E+00 0. -1.
         -5    1    5    5    0  502 -0.76511044876E+02 -0.12547850066E+02  0.25197428176E+03  0.26367502195E+03  0.47000000000E+01 0.  1.
         13    1    6    6    0    0 -0.18124381560E+02  0.53909255646E+02  0.65592921853E+02  0.86816659971E+02  0.00000000000E+00 0. -1.
        -14    1    6    6    0    0 -0.57208579934E+02 -0.70233303610E+01  0.23931946870E+02  0.62409028741E+02  0.00000000000E+00 0.  1.
</event>
<event>
12    1  0.8052519E-002  0.2593631E+03  0.7818608E-02  0.1107956E+00
         21   -1    0    0  501  502  0.00000000000E+00  0.00000000000E+00  0.47899287355E+02  0.47899287355E+02  0.00000000000E+00 0.  1.
         21   -1    0    0  502  503 -0.00000000000E+00 -0.00000000000E+00 -0.20937806205E+04  0.20937806205E+04  0.00000000000E+00 0. -1.
         -6    2    1    2    0  503  0.12081261941E+03 -0.14694455471E+03 -0.16404438738E+04  0.16603808577E+04  0.17210490447E+03 0.  0.
        -24    2    3    3    0    0  0.14050727160E+03 -0.16128818465E+03 -0.13646977086E+04  0.13835205017E+04  0.77284998441E+02 0.  0.
          6    2    1    2  501    0 -0.12081261941E+03  0.14694455471E+03 -0.40543745931E+03  0.48129905019E+03  0.17629762090E+03 0.  0.
         24    2    5    5    0    0 -0.23205237091E+02  0.11288505531E+03 -0.33010856623E+03  0.35329989896E+03  0.50671830135E+02 0.  0.
          5    1    5    5  501    0 -0.97607382314E+02  0.34059499392E+02 -0.75328893083E+02  0.12799915122E+03  0.47000000000E+01 0. -1.
        -13    1    6    6    0    0 -0.29800508579E+02  0.85153231154E+02 -0.19013095777E+03  0.21044933877E+03  0.00000000000E+00 0.  1.
         14    1    6    6    0    0  0.65952714876E+01  0.27731824161E+02 -0.13997760846E+03  0.14285056019E+03  0.00000000000E+00 0. -1.
         -5    1    3    3    0  503 -0.19694652199E+02  0.14343629942E+02 -0.27574616523E+03  0.27686035593E+03  0.47000000000E+01 0.  1.
         11    1    4    4    0    0  0.64772068441E+02 -0.80009977936E+02 -0.89315225088E+03  0.89906504808E+03  0.00000000000E+00 0. -1.
        -12    1    4    4    0    0  0.75735203163E+02 -0.81278206712E+02 -0.47154545773E+03  0.48445545367E+03  0.00000000000E+00 0.  1.
</event>
<event>
12    1  0.8052519E-002  0.1792683E+03  0.7818608E-02  0.1168999E+00
         21   -1    0    0  501  502  0.00000000000E+00  0.00000000000E+00  0.72996034117E+03  0.72996034117E+03  0.00000000000E+00 0.  1.
         21   -1    0    0  502  503 -0.00000000000E+00 -0.00000000000E+00 -0.83675582258E+02  0.83675582258E+02  0.00000000000E+00 0.  1.
         -6    2    1    2    0  503  0.21907464736E+02  0.31828880718E+02  0.42328591714E+02  0.18419781434E+03  0.17505459283E+03 0.  0.
        -24    2    3    3    0    0 -0.52870421263E+02  0.26002035236E+02  0.57578185271E+01  0.10062033045E+03  0.81362836381E+02 0.  0.
          6    2    1    2  501    0 -0.21907464736E+02 -0.31828880718E+02  0.60395616720E+03  0.62943810909E+03  0.17302100050E+03 0.  0.
         24    2    5    5    0    0  0.43208704272E+02 -0.14791791430E+02  0.47611033016E+03  0.48488007255E+03  0.79635727278E+02 0.  0.
          5    1    5    5  501    0 -0.65116169008E+02 -0.17037089288E+02  0.12784583704E+03  0.14455803654E+03  0.47000000000E+01 0. -1.
        -11    1    6    6    0    0  0.10245003871E+02  0.19759314908E+02  0.33828496864E+03  0.33901638697E+03  0.00000000000E+00 0.  1.
         12    1    6    6    0    0  0.32963700402E+02 -0.34551106338E+02  0.13782536152E+03  0.14586368558E+03  0.00000000000E+00 0. -1.
         -5    1    3    3    0  503  0.74777885999E+02  0.58268454825E+01  0.36570773187E+02  0.83577483895E+02  0.47000000000E+01 0.  1.
         13    1    4    4    0    0 -0.10900325531E+02 -0.27191768075E+02  0.13808168428E+02  0.32386337598E+02  0.00000000000E+00 0. -1.
        -14    1    4    4    0    0 -0.41970095732E+02  0.53193803310E+02 -0.80503499007E+01  0.68233992847E+02  0.00000000000E+00 0.  1.
</event>
<event>
12    1  0.8052519E-002  0.2154383E+03  0.7818608E-02  0.1137601E+00
         21   -1    0    0  503  502  0.00000000000E+00  0.00000000000E+00  0.14177198139E+03  0.14177198139E+03  0.00000000000E+00 0. -1.
         21   -1    0    0  501  503 -0.00000000000E+00 -0.00000000000E+00 -0.34246918020E+03  0.34246918020E+03  0.00000000000E+00 0. -1.
          6    2    1    2  501    0 -0.61582722517E+02 -0.11403346852E+03 -0.15432714666E+03  0.26386912808E+03  0.17033491979E+03 0.  0.
         24    2    3    3    0    0 -0.36419044805E+02 -0.10154891516E+03 -0.24211279672E+02  0.13067264317E+03  0.69646425720E+02 0.  0.
         -6    2    1    2    0  502  0.61582722517E+02  0.11403346852E+03 -0.46370052146E+02  0.22037203350E+03  0.17209761114E+03 0.  0.
        -24    2    5    5    0    0  0.94079301253E+02  0.11392812298E+03 -0.67655439468E+02  0.18124152826E+03  0.80253977764E+02 0.  0.
          5    1    3    3  501    0 -0.25163677712E+02 -0.12484553357E+02 -0.13011586699E+03  0.13319648491E+03  0.47000000000E+01 0. -1.
        -11    1    4    4    0    0  0.35407914311E+00 -0.86541401281E+02 -0.53589115807E+01  0.86707885691E+02  0.00000000000E+00 0.  1.
         12    1    4    4    0    0 -0.36773123948E+02 -0.15007513880E+02 -0.18852368092E+02  0.43964757482E+02  0.00000000000E+00 0. -1.
         -5    1    5    5    0  502 -0.32496578735E+02  0.10534553874E+00  0.21285387322E+02  0.39130505244E+02  0.47000000000E+01 0.  1.
         13    1    6    6    0    0  0.41114420623E+02  0.31408030806E+01 -0.35231917157E+02  0.54236041649E+02  0.00000000000E+00 0. -1.
        -14    1    6    6    0    0  0.52964880630E+02  0.11078731990E+03 -0.32423522311E+02  0.12700548661E+03  0.00000000000E+00 0.  1.
</event>
<event>
12    1  0.8052519E-002  0.2121295E+03  0.7818608E-02  0.1139988E+00
         21   -1    0    0  501  502  0.00000000000E+00  0.00000000000E+00  0.76232840496E+03  0.76232840496E+03  0.00000000000E+00 0. -1.
         21   -1    0    0  502  503 -0.00000000000E+00 -0.00000000000E+00 -0.68397270885E+02  0.68397270885E+02  0.00000000000E+00 0.  1.
         -6    2    1    2    0  503 -0.10603935473E+03 -0.64981145562E+02  0.19175198254E+03  0.28558089697E+03  0.17123297543E+03 0.  0.
        -24    2    3    3    0    0 -0.28006889239E+00 -0.39065473663E+01  0.12050692239E+03  0.14411329756E+03  0.78939119828E+02 0.  0.
          6    2    1    2  501    0  0.10603935473E+03  0.64981145562E+02  0.50217915154E+03  0.54514477888E+03  0.17184887451E+03 0.  0.
         24    2    5    5    0    0  0.74697211523E+02  0.26991746421E+02  0.47658582205E+03  0.48944349611E+03  0.78183516919E+02 0.  0.
          5    1    5    5  501    0  0.31342143211E+02  0.37989399142E+02  0.25593329486E+02  0.55701282771E+02  0.47000000000E+01 0. -1.
        -11    1    6    6    0    0  0.27029841161E+02  0.19452995202E+02  0.49622341868E+02  0.59761259592E+02  0.00000000000E+00 0.  1.
         12    1    6    6    0    0  0.47667370361E+02  0.75387512187E+01  0.42696348018E+03  0.42968223652E+03  0.00000000000E+00 0. -1.
         -5    1    3    3    0  503 -0.10575928584E+03 -0.61074598196E+02  0.71245060151E+02  0.14146759941E+03  0.47000000000E+01 0.  1.
         13    1    4    4    0    0  0.31103456500E+02  0.20417099444E+02  0.41813357954E+02  0.55969990704E+02  0.00000000000E+00 0. -1.
        -14    1    4    4    0    0 -0.31383525393E+02 -0.24323646810E+02  0.78693564434E+02  0.88143306856E+02  0.00000000000E+00 0.  1.
</event>
<event>
12    1  0.8052519E-002  0.2551313E+03  0.7818608E-02  0.1110324E+00
         21   -1    0    0  501  502  0.00000000000E+00  0.00000000000E+00  0.52814118626E+03  0.52814118626E+03  0.00000000000E+00 0.  1.
         21   -1    0    0  502  503 -0.00000000000E+00 -0.00000000000E+00 -0.12255999665E+03  0.12255999665E+03  0.00000000000E+00 0. -1.
         -6    2    1    2    0  503  0.17763074635E+03 -0.58380946034E+02  0.20354940483E+03  0.32638065129E+03  0.17358269620E+03 0.  0.
        -24    2    3    3    0    0  0.17831860889E+03 -0.56204422452E+02  0.10876316419E+03  0.23145050948E+03  0.82361696641E+02 0.  0.
          6    2    1    2  501    0 -0.17763074635E+03  0.58380946034E+02  0.20203178478E+03  0.32432053162E+03  0.17148162661E+03 0.  0.
         24    2    5    5    0    0 -0.15100604811E+03  0.91772222830E+02  0.20346748554E+03  0.28133212436E+03  0.80769914416E+02 0.  0.
          5    1    5    5  501    0 -0.26624698243E+02 -0.33391276796E+02 -0.14357007649E+01  0.42988407266E+02  0.47000000000E+01 0. -1.
        -13    1    6    6    0    0 -0.76877296204E+02  0.45516509991E+02  0.16112482982E+03  0.18423648428E+03  0.00000000000E+00 0.  1.
         14    1    6    6    0    0 -0.74128751905E+02  0.46255712839E+02  0.42342655716E+02  0.97095640079E+02  0.00000000000E+00 0. -1.
         -5    1    3    3    0  503 -0.68786253618E+00 -0.21765235822E+01  0.94786240642E+02  0.94930141814E+02  0.47000000000E+01 0.  1.
         13    1    4    4    0    0  0.14050220925E+02 -0.36099306169E+02  0.23064945921E+02  0.45083925564E+02  0.00000000000E+00 0. -1.
        -14    1    4    4    0    0  0.16426838796E+03 -0.20105116282E+02  0.85698218268E+02  0.18636658391E+03  0.00000000000E+00 0.  1.
</event>
<event>
12    1  0.8052519E-002  0.2336963E+03  0.7818608E-02  0.1124122E+00
         21   -1    0    0  503  502  0.00000000000E+00  0.00000000000E+00  0.25205632049E+03  0.25205632049E+03  0.00000000000E+00 0.  1.
         21   -1    0    0  501  503 -0.00000000000E+00 -0.00000000000E+00 -0.21895081019E+03  0.21895081019E+03  0.00000000000E+00 0. -1.
          6    2    1    2  501    0 -0.15141782333E+03  0.45542777255E+02 -0.90259614883E+01  0.23387054776E+03  0.17208272239E+03 0.  0.
         24    2    3    3    0    0 -0.16230172130E+03  0.35501919593E+02 -0.48994258176E+02  0.19098893401E+03  0.80461795575E+02 0.  0.
         -6    2    1    2    0  502  0.15141782333E+03 -0.45542777255E+02  0.42131471789E+02  0.23713658293E+03  0.17163098865E+03 0.  0.
        -24    2    5    5    0    0  0.23878098116E+02 -0.18641544237E+02  0.29531951267E+02  0.10609881828E+03  0.97299292669E+02 0.  0.
          5    1    3    3  501    0  0.10883897970E+02  0.10040857662E+02  0.39968296688E+02  0.42881613749E+02  0.47000000000E+01 0. -1.
        -11    1    4    4    0    0 -0.17836865054E+02 -0.22431647203E+02 -0.11558692373E+02  0.30902037482E+02  0.00000000000E+00 0.  1.
         12    1    4    4    0    0 -0.14446485625E+03  0.57933566795E+02 -0.37435565803E+02  0.16008689653E+03  0.00000000000E+00 0. -1.
         -5    1    5    5    0  502  0.12753972522E+03 -0.26901233018E+02  0.12599520522E+02  0.13103776465E+03  0.47000000000E+01 0.  1.
         13    1    6    6    0    0  0.16903393906E+02 -0.54859462578E+02  0.37230269839E+02  0.68420598888E+02  0.00000000000E+00 0. -1.
        -14    1    6    6    0    0  0.69747042098E+01  0.36217918341E+02 -0.76983185726E+01  0.37678219393E+02  0.00000000000E+00 0.  1.
</event>
<event>
12    1  0.8052519E-002  0.1900049E+03  0.7818608E-02  0.1162022E+00
         21   -1    0    0  503  502  0.00000000000E+00  0.00000000000E+00  0.38890901961E+03  0.38890901961E+03  0.00000000000E+00 0.  1.
         21   -1    0    0  501  503 -0.00000000000E+00 -0.00000000000E+00 -0.17435827839E+03  0.17435827839E+03  0.00000000000E+00 0.  1.
          6    2    1    2  501    0  0.19932599697E+02 -0.76047343455E+02 -0.91413823165E+02  0.21085151408E+03  0.17297793775E+03 0.  0.
         24    2    3    3    0    0  0.55166889323E+02 -0.45498036786E+00 -0.81468575826E+02  0.12672863689E+03  0.79871308217E+02 0.  0.
         -6    2    1    2    0  502 -0.19932599697E+02  0.76047343455E+02  0.30596456438E+03  0.35241578392E+03  0.15621159727E+03 0.  0.
        -24    2    5    5    0    0 -0.79681814921E+01 -0.16134364819E+02  0.12214293298E+03  0.14637429098E+03  0.78630320728E+02 0.  0.
          5    1    3    3  501    0 -0.35234289626E+02 -0.75592363087E+02 -0.99452473398E+01  0.84122877193E+02  0.47000000000E+01 0. -1.
        -11    1    4    4    0    0  0.17590301695E+02 -0.38248889049E+02 -0.47767163283E+02  0.63671800001E+02  0.00000000000E+00 0.  1.
         12    1    4    4    0    0  0.37576587629E+02  0.37793908681E+02 -0.33701412542E+02  0.63056836890E+02  0.00000000000E+00 0. -1.
         -5    1    5    5    0  502 -0.11964418205E+02  0.92181708274E+02  0.18382163140E+03  0.20604149294E+03  0.47000000000E+01 0.  1.
         13    1    6    6    0    0  0.34498450156E+02 -0.46590343671E+01  0.38751188864E+02  0.52091307363E+02  0.00000000000E+00 0. -1.
        -14    1    6    6    0    0 -0.42466631648E+02 -0.11475330452E+02  0.83391744114E+02  0.94282983613E+02  0.00000000000E+00 0.  1.
</event>
<event>
12    1  0.8052519E-002  0.3002910E+03  0.7818608E-02  0.1085169E+00
         21   -1    0    0  503  502  0.00000000000E+00  0.00000000000E+00  0.11733254788E+03  0.11733254788E+03  0.00000000000E+00 0. -1.
         21   -1    0    0  501  503 -0.00000000000E+00 -0.00000000000E+00 -0.11556504144E+04  0.11556504144E+04  0.00000000000E+00 0.  1.
          6    2    1    2  501    0 -0.22076093567E+03  0.10537246788E+03 -0.14972403424E+03  0.33502044404E+03  0.17315502820E+03 0.  0.
         24    2    3    3    0    0 -0.15618233219E+03  0.94039278766E+02 -0.17463763094E+03  0.26472382603E+03  0.79649827923E+02 0.  0.
         -6    2    1    2    0  502  0.22076093567E+03 -0.10537246788E+03 -0.88859383232E+03  0.93796251828E+03  0.17417215380E+03 0.  0.
        -24    2    5    5    0    0  0.29090494711E+02 -0.56873064340E+02 -0.30263188829E+03  0.31952639391E+03  0.80188866201E+02 0.  0.
          5    1    3    3  501    0 -0.64578603487E+02  0.11333189111E+02  0.24913596699E+02  0.70296618014E+02  0.47000000000E+01 0. -1.
        -11    1    4    4    0    0 -0.11483423698E+03  0.96491854158E+02 -0.16340301088E+03  0.22180650095E+03  0.00000000000E+00 0.  1.
         12    1    4    4    0    0 -0.41348095209E+02 -0.24525753916E+01 -0.11234620058E+02  0.42917325071E+02  0.00000000000E+00 0. -1.
         -5    1    5    5    0  502  0.19167044096E+03 -0.48499403538E+02 -0.58596194403E+03  0.61843612438E+03  0.47000000000E+01 0.  1.
         11    1    6    6    0    0  0.17444430702E+02 -0.11596485274E+02 -0.10050609192E+02  0.23233626027E+02  0.00000000000E+00 0. -1.
        -12    1    6    6    0    0  0.11646064009E+02 -0.45276579066E+02 -0.29258127910E+03  0.29629276788E+03  0.00000000000E+00 0.  1.
</event>
<event>
12    1  0.8052519E-002  0.2306557E+03  0.7818608E-02  0.1126347E+00
         21   -1    0    0  503  502  0.00000000000E+00  0.00000000000E+00  0.34628940623E+03  0.34628940623E+03  0.00000000000E+00 0.  1.
         21   -1    0    0  501  503 -0.00000000000E+00 -0.00000000000E+00 -0.17783990111E+03  0.17783990111E+03  0.00000000000E+00 0. -1.
          6    2    1    2  501    0  0.51052539506E+02  0.14376050221E+03 -0.13572194139E+02  0.23105470439E+03  0.17299892538E+03 0.  0.
         24    2    3    3    0    0 -0.22168698018E+02  0.87583817092E+02 -0.36777270445E+02  0.13577755529E+03  0.94448931756E+02 0.  0.
         -6    2    1    2    0  502 -0.51052539506E+02 -0.14376050221E+03  0.18202169925E+03  0.29307460295E+03  0.17171889852E+03 0.  0.
        -24    2    5    5    0    0 -0.51701806360E+02 -0.27449228445E+02  0.34152918580E+02  0.10488321034E+03  0.80047042677E+02 0.  0.
          5    1    3    3  501    0  0.73221237525E+02  0.56176685119E+02  0.23205076305E+02  0.95277149107E+02  0.47000000000E+01 0. -1.
        -11    1    4    4    0    0  0.28437433408E+02  0.56482167023E+02  0.45736267701E+01  0.63402215042E+02  0.00000000000E+00 0.  1.
         12    1    4    4    0    0 -0.50606131426E+02  0.31101650069E+02 -0.41350897215E+02  0.72375340243E+02  0.00000000000E+00 0. -1.
         -5    1    5    5    0  502  0.64926685401E+00 -0.11631127377E+03  0.14786878067E+03  0.18819139260E+03  0.47000000000E+01 0.  1.
         13    1    6    6    0    0 -0.11588999438E+02  0.22181993105E+01 -0.24912918003E+02  0.27565899216E+02  0.00000000000E+00 0. -1.
        -14    1    6    6    0    0 -0.40112806922E+02 -0.29667427755E+02  0.59065836583E+02  0.77317311128E+02  0.00000000000E+00 0.  1.
</event>
<event>
12    1  0.8052519E-002  0.1787453E+03  0.7818608E-02  0.1169162E+00
         21   -1    0    0  501  502  0.00000000000E+00  0.00000000000E+00  0.77484111280E+03  0.77484111280E+03  0.00000000000E+00 0.  1.
         21   -1    0    0  502  503 -0.00000000000E+00 -0.00000000000E+00 -0.54649421329E+02  0.54649421329E+02  0.00000000000E+00 0.  1.
         -6    2    1    2    0  503 -0.41936164814E+02  0.14313576353E+02  0.56702059936E+03  0.59452689604E+03  0.17316567103E+03 0.  0.
        -24    2    3    3    0    0  0.37080122691E+02  0.12944909722E+02  0.40115193534E+03  0.41073366807E+03  0.78973189613E+02 0.  0.
          6    2    1    2  501    0  0.41936164814E+02 -0.14313576353E+02  0.15317109211E+03  0.23496363809E+03  0.17257754020E+03 0.  0.
         24    2    5    5    0    0  0.15424260185E+02  0.42067239751E+02  0.14531457075E+03  0.17199148203E+03  0.80356611149E+02 0.  0.
          5    1    5    5  501    0  0.26511904629E+02 -0.56380816104E+02  0.78565213590E+01  0.62972156065E+02  0.47000000000E+01 0. -1.
        -11    1    6    6    0    0  0.34259318608E+02  0.57949540812E+02  0.10879451510E+03  0.12793786268E+03  0.00000000000E+00 0.  1.
         12    1    6    6    0    0 -0.18835058423E+02 -0.15882301061E+02  0.36520055649E+02  0.44053619345E+02  0.00000000000E+00 0. -1.
         -5    1    3    3    0  503 -0.79016287506E+02  0.13686666309E+01  0.16586866403E+03  0.18379322796E+03  0.47000000000E+01 0.  1.
         11    1    4    4    0    0  0.56528974271E+01  0.89661314989E+01  0.25852799492E+01  0.10910107048E+02  0.00000000000E+00 0. -1.
        -12    1    4    4    0    0  0.31427225264E+02  0.39787782228E+01  0.39856665539E+03  0.39982356102E+03  0.00000000000E+00 0.  1.
</event>
