<event>
12    1  0.9017558E-003  0.2116687E+03  0.7818608E-02  0.1141717E+00
         21   -1    0    0  501  502  0.00000000000E+00  0.00000000000E+00  0.19516486456E+03  0.19516486456E+03  0.00000000000E+00 0. -1.
         21   -1    0    0  502  503 -0.00000000000E+00 -0.00000000000E+00 -0.22805024227E+03  0.22805024227E+03  0.00000000000E+00 0.  1.
          6    2    1    2  501    0 -0.10965238982E+03 -0.14440990297E+02 -0.51526067732E+02  0.21072715060E+03  0.17181038254E+03 0.  0.
         24    2    3    3    0    0 -0.13012457858E+03 -0.39169747162E+02 -0.71402380538E+02  0.17267744969E+03  0.79072919759E+02 0.  0.
         -6    2    1    2    0  503  0.10965238982E+03  0.14440990297E+02  0.18640690016E+02  0.21248795623E+03  0.18047566990E+03 0.  0.
        -24    2    5    5    0    0  0.34909288910E+01  0.53972161022E+02  0.12746755230E+00  0.97606283838E+02  0.81251397814E+02 0.  0.
          5    1    3    3  501    0  0.20472188761E+02  0.24728756865E+02  0.19876312806E+02  0.38049700912E+02  0.47000000000E+01 0. -1.
        -13    1    4    4    0    0  0.33069268951E+01  0.10209043635E+02 -0.17511021241E+02  0.20537677628E+02  0.00000000000E+00 0.  1.
         14    1    4    4    0    0 -0.13343150548E+03 -0.49378790798E+02 -0.53891359296E+02  0.15213977206E+03  0.00000000000E+00 0. -1.
         -5    1    5    5    0  503  0.10616146093E+03 -0.39531170725E+02  0.18513222464E+02  0.11488167239E+03  0.47000000000E+01 0.  1.
         11    1    6    6    0    0 -0.26112341731E+02  0.59170491062E+01  0.24345871293E+02  0.36188220595E+02  0.00000000000E+00 0. -1.
        -12    1    6    6    0    0  0.29603270622E+02  0.48055111916E+02 -0.24218403741E+02  0.61418063243E+02  0.00000000000E+00 0.  1.
</event>
<event>
12    1  0.9017558E-003  0.1838604E+03  0.7818608E-02  0.1164200E+00
         21   -1    0    0  501  502  0.00000000000E+00  0.00000000000E+00  0.31152647485E+03  0.31152647485E+03  0.00000000000E+00 0. -1.
         21   -1    0    0  502  503 -0.00000000000E+00 -0.00000000000E+00 -0.11724950402E+03  0.11724950402E+03  0.00000000000E+00 0. -1.
          6    2    1    2  501    0  0.59796525207E+02 -0.17220840861E+02  0.37855895908E+02  0.18737959115E+03  0.17264373877E+03 0.  0.
         24    2    3    3    0    0  0.19265221352E+02 -0.64680603197E+02 -0.16764522714E+02  0.10430916462E+03  0.77747176273E+02 0.  0.
         -6    2    1    2    0  503 -0.59796525207E+02  0.17220840861E+02  0.15642107493E+03  0.24139638772E+03  0.17301006196E+03 0.  0.
        -24    2    5    5    0    0  0.25802876000E+02  0.45557656869E+01  0.32607259093E+02  0.90268585492E+02  0.79991504363E+02 0.  0.
          5    1    3    3  501    0  0.40531303855E+02  0.47459762336E+02  0.54620418622E+02  0.83070426528E+02  0.47000000000E+01 0. -1.
        -13    1    4    4    0    0 -0.24795080620E+02 -0.47334653402E+02 -0.19489895241E+02  0.56879007131E+02  0.00000000000E+00 0.  1.
         14    1    4    4    0    0  0.44060301972E+02 -0.17345949794E+02  0.27253725267E+01  0.47430157490E+02  0.00000000000E+00 0. -1.
         -5    1    5    5    0  503 -0.85599401207E+02  0.12665075174E+02  0.12381381583E+03  0.15112780223E+03  0.47000000000E+01 0.  1.
         11    1    6    6    0    0  0.46512234072E+02 -0.12466082500E+02  0.39845305605E+02  0.62501516062E+02  0.00000000000E+00 0. -1.
        -12    1    6    6    0    0 -0.20709358071E+02  0.17021848187E+02 -0.72380465121E+01  0.27767069430E+02  0.00000000000E+00 0.  1.
</event>
<event>
12    1  0.9017558E-003  0.1841740E+03  0.7818608E-02  0.1163849E+00
         21   -1    0    0  503  502  0.00000000000E+00  0.00000000000E+00  0.24872766712E+02  0.24872766712E+02  0.00000000000E+00 0.  1.
         21   -1    0    0  501  503 -0.00000000000E+00 -0.00000000000E+00 -0.13811566664E+04  0.13811566664E+04  0.00000000000E+00 0.  1.
          6    2    1    2  501    0  0.79872370559E+01  0.65640564157E+02 -0.59721196201E+03  0.62493388675E+03  0.17177821639E+03 0.  0.
         24    2    3    3    0    0 -0.17010756053E+01  0.46624235954E+02 -0.59595127357E+03  0.60304408374E+03  0.79545794490E+02 0.  0.
         -6    2    1    2    0  502 -0.79872370559E+01 -0.65640564157E+02 -0.75907193766E+03  0.78109554634E+03  0.17189405560E+03 0.  0.
        -24    2    5    5    0    0 -0.66700081156E+02 -0.32044785319E+02 -0.32436797002E+03  0.34113474820E+03  0.75382805483E+02 0.  0.
          5    1    3    3  501    0  0.96883126612E+01  0.19016328204E+02 -0.12606884336E+01  0.21889803012E+02  0.47000000000E+01 0. -1.
        -11    1    4    4    0    0 -0.33960241647E+02  0.11486107767E+02 -0.13671903663E+03  0.14134116053E+03  0.00000000000E+00 0.  1.
         12    1    4    4    0    0  0.32259166041E+02  0.35138128186E+02 -0.45923223694E+03  0.46170292320E+03  0.00000000000E+00 0. -1.
         -5    1    5    5    0  502  0.58712844100E+02 -0.33595778838E+02 -0.43470396764E+03  0.43996079814E+03  0.47000000000E+01 0.  1.
         13    1    6    6    0    0 -0.17260510519E+02  0.23061541935E+02 -0.59363015029E+02  0.65982781793E+02  0.00000000000E+00 0. -1.
        -14    1    6    6    0    0 -0.49439570638E+02 -0.55106327254E+02 -0.26500495499E+03  0.27515196641E+03  0.00000000000E+00 0.  1.
</event>
<event>
12    1  0.9017558E-003  0.1759536E+03  0.7818608E-02  0.1172313E+00
         21   -1    0    0  503  502  0.00000000000E+00  0.00000000000E+00  0.21918790613E+04  0.21918790613E+04  0.00000000000E+00 0. -1.
         21   -1    0    0  501  503 -0.00000000000E+00 -0.00000000000E+00 -0.25703019689E+02  0.25703019689E+02  0.00000000000E+00 0. -1.
          6    2    1    2  501    0  0.21749077873E+02 -0.27602377008E+02  0.33703140396E+03  0.38019708664E+03  0.17240865358E+03 0.  0.
         24    2    3    3    0    0  0.58473718135E+02  0.39766215143E+01  0.10884367977E+03  0.14687829224E+03  0.79317695841E+02 0.  0.
         -6    2    1    2    0  502 -0.21749077873E+02  0.27602377008E+02  0.18291446376E+04  0.18373849943E+04  0.17023101483E+03 0.  0.
        -24    2    5    5    0    0 -0.27967961711E+02 -0.26430820072E+02  0.15729304174E+04  0.15754191997E+04  0.79716759194E+02 0.  0.
          5    1    3    3  501    0 -0.36724640262E+02 -0.31578998522E+02  0.22818772419E+03  0.23331879440E+03  0.47000000000E+01 0. -1.
        -13    1    4    4    0    0 -0.97823070619E+01 -0.39337758607E+01  0.63918852008E+02  0.64782619320E+02  0.00000000000E+00 0.  1.
         14    1    4    4    0    0  0.68256025197E+02  0.79103973750E+01  0.44924827763E+02  0.82095672918E+02  0.00000000000E+00 0. -1.
         -5    1    5    5    0  502  0.62188838374E+01  0.54033197080E+02  0.25621422020E+03  0.26196579459E+03  0.47000000000E+01 0.  1.
         13    1    6    6    0    0 -0.62573896823E+01 -0.35178407159E+02  0.27919556542E+03  0.28147262567E+03  0.00000000000E+00 0. -1.
        -14    1    6    6    0    0 -0.21710572028E+02  0.87475870869E+01  0.12937348520E+04  0.12939465741E+04  0.00000000000E+00 0.  1.
</event>
<event>
12    1  0.9017558E-003  0.2242855E+03  0.7818608E-02  0.1131344E+00
         21   -1    0    0  501  502  0.00000000000E+00  0.00000000000E+00  0.49677877974E+03  0.49677877974E+03  0.00000000000E+00 0. -1.
         21   -1    0    0  502  503 -0.00000000000E+00 -0.00000000000E+00 -0.12630358555E+03  0.12630358555E+03  0.00000000000E+00 0.  1.
          6    2    1    2  501    0 -0.11534568365E+03 -0.76391384802E+02  0.32919226087E+03  0.39833594753E+03  0.17653246746E+03 0.  0.
         24    2    3    3    0    0 -0.35730711308E+02  0.25340178178E+02  0.16723023487E+03  0.19111229397E+03  0.81480973801E+02 0.  0.
         -6    2    1    2    0  503  0.11534568365E+03  0.76391384802E+02  0.41282933325E+02  0.22474641776E+03  0.17223937211E+03 0.  0.
        -24    2    5    5    0    0  0.12715037174E+03  0.73256950892E+02  0.79009152205E+02  0.18481481464E+03  0.79876602901E+02 0.  0.
          5    1    3    3  501    0 -0.79614972346E+02 -0.10173156298E+03  0.16196202600E+03  0.20722365356E+03  0.47000000000E+01 0. -1.
        -13    1    4    4    0    0  0.95403430343E+01  0.38945204070E+02  0.10880845284E+03  0.11596131456E+03  0.00000000000E+00 0.  1.
         14    1    4    4    0    0 -0.45271054342E+02 -0.13605025892E+02  0.58421782033E+02  0.75150979413E+02  0.00000000000E+00 0. -1.
         -5    1    5    5    0  503 -0.11804688088E+02  0.31344339098E+01 -0.37726218881E+02  0.39931603121E+02  0.47000000000E+01 0.  1.
         11    1    6    6    0    0  0.14742345763E+01 -0.13510184032E+02  0.11652068719E+02  0.17901652035E+02  0.00000000000E+00 0. -1.
        -12    1    6    6    0    0  0.12567613717E+03  0.86767134924E+02  0.67357083486E+02  0.16691316261E+03  0.00000000000E+00 0.  1.
</event>
<event>
12    1  0.9017558E-003  0.1781208E+03  0.7818608E-02  0.1170070E+00
         21   -1    0    0  503  502  0.00000000000E+00  0.00000000000E+00  0.41696974918E+03  0.41696974918E+03  0.00000000000E+00 0.  1.
         21   -1    0    0  501  503 -0.00000000000E+00 -0.00000000000E+00 -0.76514350791E+02  0.76514350791E+02  0.00000000000E+00 0.  1.
          6    2    1    2  501    0 -0.40342615762E+02  0.31031349560E+02  0.13878746963E+03  0.22441724445E+03  0.16885101888E+03 0.  0.
         24    2    3    3    0    0 -0.13305364941E+02  0.83939255839E+02  0.89457776689E+02  0.14704949869E+03  0.79987685593E+02 0.  0.
         -6    2    1    2    0  502  0.40342615762E+02 -0.31031349560E+02  0.20166792876E+03  0.26906685553E+03  0.17069431141E+03 0.  0.
        -24    2    5    5    0    0  0.46576742913E+02  0.43249308044E+02  0.10213498635E+03  0.14462660054E+03  0.80283264263E+02 0.  0.
          5    1    3    3  501    0 -0.27037250822E+02 -0.52907906278E+02  0.49329692939E+02  0.77367745762E+02  0.47000000000E+01 0. -1.
        -11    1    4    4    0    0 -0.29294588516E+02  0.50588308549E+02  0.98671542331E+01  0.59284994821E+02  0.00000000000E+00 0.  1.
         12    1    4    4    0    0  0.15989223576E+02  0.33350947289E+02  0.79590622456E+02  0.87764503865E+02  0.00000000000E+00 0. -1.
         -5    1    5    5    0  502 -0.62341271508E+01 -0.74280657604E+02  0.99532942408E+02  0.12444025498E+03  0.47000000000E+01 0.  1.
         11    1    6    6    0    0  0.65297600957E+02  0.13736161360E+02  0.58659746975E+02  0.88844947717E+02  0.00000000000E+00 0. -1.
        -12    1    6    6    0    0 -0.18720858043E+02  0.29513146684E+02  0.43475239380E+02  0.55781652828E+02  0.00000000000E+00 0.  1.
</event>
<event>
12    1  0.9017558E-003  0.2036791E+03  0.7818608E-02  0.1147271E+00
         21   -1    0    0  503  502  0.00000000000E+00  0.00000000000E+00  0.44206413022E+03  0.44206413022E+03  0.00000000000E+00 0. -1.
         21   -1    0    0  501  503 -0.00000000000E+00 -0.00000000000E+00 -0.93191615214E+02  0.93191615214E+02  0.00000000000E+00 0. -1.
          6    2    1    2  501    0  0.76514801099E+02 -0.75869822522E+02  0.15044887629E+03  0.25090189243E+03  0.16942889510E+03 0.  0.
         24    2    3    3    0    0 -0.10962653265E+02 -0.77940284151E+02  0.80451806299E+02  0.13874899840E+03  0.81141381302E+02 0.  0.
         -6    2    1    2    0  502 -0.76514801099E+02  0.75869822522E+02  0.19842363872E+03  0.28435385300E+03  0.17284220711E+03 0.  0.
        -24    2    5    5    0    0 -0.44596221638E+02 -0.11262958034E+02  0.15750981364E+03  0.18283071158E+03  0.80635293120E+02 0.  0.
          5    1    3    3  501    0  0.87477454364E+02  0.20704616289E+01  0.69997069993E+02  0.11215289404E+03  0.47000000000E+01 0. -1.
        -13    1    4    4    0    0 -0.68088789281E+01 -0.41727157027E+02  0.91387314268E+02  0.10069338446E+03  0.00000000000E+00 0.  1.
         14    1    4    4    0    0 -0.41537743368E+01 -0.36213127124E+02 -0.10935507969E+02  0.38055613934E+02  0.00000000000E+00 0. -1.
         -5    1    5    5    0  502 -0.31918579460E+02  0.87132780555E+02  0.40913825082E+02  0.10152314143E+03  0.47000000000E+01 0.  1.
         11    1    6    6    0    0 -0.44399609775E+01  0.21263903936E+02  0.56878541519E+01  0.22454811265E+02  0.00000000000E+00 0. -1.
        -12    1    6    6    0    0 -0.40156260661E+02 -0.32526861970E+02  0.15182195948E+03  0.16037590031E+03  0.00000000000E+00 0.  1.
</event>
<event>
12    1  0.9017558E-003  0.2099751E+03  0.7818608E-02  0.1142475E+00
         21   -1    0    0  501  502  0.00000000000E+00  0.00000000000E+00  0.15345562483E+03  0.15345562483E+03  0.00000000000E+00 0.  1.
         21   -1    0    0  502  503 -0.00000000000E+00 -0.00000000000E+00 -0.31042451408E+03  0.31042451408E+03  0.00000000000E+00 0. -1.
          6    2    1    2  501    0  0.52114922308E+02 -0.99313767638E+02 -0.81653100573E+01  0.21013375349E+03  0.17751149962E+03 0.  0.
         24    2    3    3    0    0  0.21703572381E+02 -0.12750141569E+03 -0.33428012115E+02  0.16135170943E+03  0.90494674351E+02 0.  0.
         -6    2    1    2    0  503 -0.52114922308E+02  0.99313767638E+02 -0.14880357919E+03  0.25374638542E+03  0.17223685251E+03 0.  0.
        -24    2    5    5    0    0  0.10150518467E+01  0.10287237317E+03 -0.42776872319E+02  0.13500628942E+03  0.76243569465E+02 0.  0.
          5    1    3    3  501    0  0.30411349927E+02  0.28187648052E+02  0.25262702058E+02  0.48782044057E+02  0.47000000000E+01 0. -1.
        -11    1    4    4    0    0 -0.34938031164E+02 -0.52756979616E+02 -0.55786819506E+01  0.63522331602E+02  0.00000000000E+00 0.  1.
         12    1    4    4    0    0  0.56641603545E+02 -0.74744436073E+02 -0.27849330164E+02  0.97829377830E+02  0.00000000000E+00 0. -1.
         -5    1    5    5    0  503 -0.53129974155E+02 -0.35586055365E+01 -0.10602670688E+03  0.11874009600E+03  0.47000000000E+01 0.  1.
         13    1    6    6    0    0 -0.20666897628E+02  0.97975154699E+02 -0.49616141351E+02  0.11174977887E+03  0.00000000000E+00 0. -1.
        -14    1    6    6    0    0  0.21681949475E+02  0.48972184749E+01  0.68392690323E+01  0.23256510545E+02  0.00000000000E+00 0.  1.
</event>
<event>
12    1  0.9017558E-003  0.1751335E+03  0.7818608E-02  0.1172817E+00
         21   -1    0    0  503  502  0.00000000000E+00  0.00000000000E+00  0.10796015130E+03  0.10796015130E+03  0.00000000000E+00 0. -1.
         21   -1    0    0  501  503 -0.00000000000E+00 -0.00000000000E+00 -0.59506492253E+03  0.59506492253E+03  0.00000000000E+00 0. -1.
          6    2    1    2  501    0  0.94418112917E+01 -0.33301388028E+02 -0.49794389554E+03  0.52755648683E+03  0.17079108127E+03 0.  0.
         24    2    3    3    0    0  0.12481040804E+02 -0.60643726691E+02 -0.48691311993E+03  0.49754634837E+03  0.81452712981E+02 0.  0.
         -6    2    1    2    0  502 -0.94418112917E+01  0.33301388028E+02  0.10839124309E+02  0.17546858701E+03  0.17167879358E+03 0.  0.
        -24    2    5    5    0    0 -0.29216547688E+02  0.14839774916E+02 -0.55193525983E+02  0.10395444671E+03  0.81770264163E+02 0.  0.
          5    1    3    3  501    0 -0.30392295122E+01  0.27342338663E+02 -0.11030775612E+02  0.30010138457E+02  0.47000000000E+01 0. -1.
        -13    1    4    4    0    0  0.15801565657E+02  0.17525610249E+02 -0.93775217790E+02  0.96698645096E+02  0.00000000000E+00 0.  1.
         14    1    4    4    0    0 -0.33205248531E+01 -0.78169336940E+02 -0.39313790214E+03  0.40084770328E+03  0.00000000000E+00 0. -1.
         -5    1    5    5    0  502  0.19774736397E+02  0.18461613112E+02  0.66032650292E+02  0.71514140300E+02  0.47000000000E+01 0.  1.
         11    1    6    6    0    0 -0.53812655215E+02  0.11905302039E+02 -0.56784443994E+02  0.79132870273E+02  0.00000000000E+00 0. -1.
        -12    1    6    6    0    0  0.24596107527E+02  0.29344728770E+01  0.15909180107E+01  0.24821576434E+02  0.00000000000E+00 0.  1.
</event>
<event>
12    1  0.9017558E-003  0.2468096E+03  0.7818608E-02  0.1115581E+00
         21   -1    0    0  501  502  0.00000000000E+00  0.00000000000E+00  0.16786486450E+04  0.16786486450E+04  0.00000000000E+00 0.  1.
         21   -1    0    0  502  503 -0.00000000000E+00 -0.00000000000E+00 -0.38118216612E+02  0.38118216612E+02  0.00000000000E+00 0.  1.
          6    2    1    2  501    0  0.12125442885E+03 -0.12812587937E+03  0.10217770648E+04  0.10511628467E+04  0.17261541846E+03 0.  0.
         24    2    3    3    0    0  0.11424692139E+03 -0.51582867381E+02  0.85180418656E+03  0.86455950489E+03  0.78610520890E+02 0.  0.
         -6    2    1    2    0  503 -0.12125442885E+03  0.12812587937E+03  0.61875336359E+03  0.66560401489E+03  0.17045263920E+03 0.  0.
        -24    2    5    5    0    0 -0.33052768491E+02 -0.15094029083E+01  0.29001056370E+03  0.30135306050E+03  0.74918463747E+02 0.  0.
          5    1    3    3  501    0  0.70075074598E+01 -0.76543011985E+02  0.16997287820E+03  0.18660334179E+03  0.47000000000E+01 0. -1.
        -11    1    4    4    0    0  0.83153876605E+01 -0.39769468734E+02  0.27576237639E+03  0.27873938464E+03  0.00000000000E+00 0.  1.
         12    1    4    4    0    0  0.10593153373E+03 -0.11813398648E+02  0.57604181017E+03  0.58582012026E+03  0.00000000000E+00 0. -1.
         -5    1    5    5    0  503 -0.88201660362E+02  0.12963528227E+03  0.32874279988E+03  0.36425095439E+03  0.47000000000E+01 0.  1.
         13    1    6    6    0    0 -0.48120810495E+02  0.21630579054E+02  0.21625951239E+03  0.22260204638E+03  0.00000000000E+00 0. -1.
        -14    1    6    6    0    0  0.15068042004E+02 -0.23139981963E+02  0.73751051317E+02  0.78751014123E+02  0.00000000000E+00 0.  1.
</event>
<event>
12    1  0.9017558E-003  0.1844239E+03  0.7818608E-02  0.1164412E+00
         21   -1    0    0  503  502  0.00000000000E+00  0.00000000000E+00  0.47652371554E+03  0.47652371554E+03  0.00000000000E+00 0.  1.
         21   -1    0    0  501  503 -0.00000000000E+00 -0.00000000000E+00 -0.70492760067E+02  0.70492760067E+02  0.00000000000E+00 0.  1.
          6    2    1    2  501    0 -0.63484362142E+02  0.26269374546E+02  0.22309005179E+03  0.28724819255E+03  0.16739775578E+03 0.  0.
         24    2    3    3    0    0 -0.54655907660E+02  0.29850370234E+02  0.62781821082E+02  0.12658835323E+03  0.90580026878E+02 0.  0.
         -6    2    1    2    0  502  0.63484362142E+02 -0.26269374546E+02  0.18294090369E+03  0.25976828306E+03  0.17114859733E+03 0.  0.
        -24    2    5    5    0    0 -0.81051803016E+01 -0.55333539576E+02  0.59090811485E+02  0.11371786843E+03  0.79451463473E+02 0.  0.
          5    1    3    3  501    0 -0.88284544819E+01 -0.35809956881E+01  0.16030823071E+03  0.16065983932E+03  0.47000000000E+01 0. -1.
        -13    1    4    4    0    0 -0.58620114152E+02  0.36077432685E+02  0.81375650798E+02  0.10658281041E+03  0.00000000000E+00 0.  1.
         14    1    4    4    0    0  0.39642064917E+01 -0.62270624502E+01 -0.18593829716E+02  0.20005542816E+02  0.00000000000E+00 0. -1.
         -5    1    5    5    0  502  0.71589542443E+02  0.29064165030E+02  0.12385009220E+03  0.14605041463E+03  0.47000000000E+01 0.  1.
         11    1    6    6    0    0  0.17047545761E+02 -0.36991812923E+02 -0.63756248901E+01  0.41226952744E+02  0.00000000000E+00 0. -1.
        -12    1    6    6    0    0 -0.25152726062E+02 -0.18341726652E+02  0.65466436375E+02  0.72490915684E+02  0.00000000000E+00 0.  1.
</event>
<event>
12    1  0.9017558E-003  0.1730522E+03  0.7818608E-02  0.1175107E+00
         21   -1    0    0  503  502  0.00000000000E+00  0.00000000000E+00  0.12027438328E+03  0.12027438328E+03  0.00000000000E+00 0.  1.
         21   -1    0    0  501  503 -0.00000000000E+00 -0.00000000000E+00 -0.33739991918E+03  0.33739991918E+03  0.00000000000E+00 0.  1.
          6    2    1    2  501    0  0.14193258086E+02 -0.26558071436E+00 -0.22756182533E+03  0.28588711532E+03  0.17246895155E+03 0.  0.
         24    2    3    3    0    0  0.61065156655E+02  0.42773652330E+02 -0.14111804776E+03  0.17844426010E+03  0.79809221703E+02 0.  0.
         -6    2    1    2    0  502 -0.14193258086E+02  0.26558071436E+00  0.10436289427E+02  0.17178718715E+03  0.17088125240E+03 0.  0.
        -24    2    5    5    0    0  0.11267201963E+02  0.61484697446E+02  0.12578110439E+02  0.10528385884E+03  0.83780452428E+02 0.  0.
          5    1    3    3  501    0 -0.46871898568E+02 -0.43039233044E+02 -0.86443777571E+02  0.10744285522E+03  0.47000000000E+01 0. -1.
        -11    1    4    4    0    0 -0.45186473267E+01  0.21136683982E+02 -0.31490170754E+00  0.21616584987E+02  0.00000000000E+00 0.  1.
         12    1    4    4    0    0  0.65583803981E+02  0.21636968349E+02 -0.14080314605E+03  0.15682767511E+03  0.00000000000E+00 0. -1.
         -5    1    5    5    0  502 -0.25460460049E+02 -0.61219116732E+02 -0.21418210121E+01  0.66503328312E+02  0.47000000000E+01 0.  1.
         13    1    6    6    0    0  0.76307512428E+00  0.30594737672E+02 -0.35695082586E+02  0.47018710931E+02  0.00000000000E+00 0. -1.
        -14    1    6    6    0    0  0.10504126838E+02  0.30889959775E+02  0.48273193025E+02  0.58265147905E+02  0.00000000000E+00 0.  1.
</event>
<event>
12    1  0.9017558E-003  0.1854443E+03  0.7818608E-02  0.1162745E+00
         21   -1    0    0  501  502  0.00000000000E+00  0.00000000000E+00  0.11646891454E+03  0.11646891454E+03  0.00000000000E+00 0. -1.
         21   -1    0    0  502  503 -0.00000000000E+00 -0.00000000000E+00 -0.37934690706E+03  0.37934690706E+03  0.00000000000E+00 0. -1.
          6    2    1    2  501    0 -0.15583810684E+02  0.66316179343E+02 -0.14082162738E+02  0.18551123761E+03  0.17197505974E+03 0.  0.
         24    2    3    3    0    0 -0.10174256289E+02  0.14038737368E+02 -0.70338311293E+02  0.10838122744E+03  0.80612721004E+02 0.  0.
         -6    2    1    2    0  503  0.15583810684E+02 -0.66316179343E+02 -0.24879582979E+03  0.31030458399E+03  0.17247863383E+03 0.  0.
        -24    2    5    5    0    0 -0.55301291304E+02 -0.61352384115E+02 -0.15374738271E+03  0.19153744106E+03  0.78904916090E+02 0.  0.
          5    1    3    3  501    0 -0.54095543946E+01  0.52277441975E+02  0.56256148555E+02  0.77130010168E+02  0.47000000000E+01 0. -1.
        -13    1    4    4    0    0  0.31114334262E+02  0.79560573030E+01 -0.55434842720E+02  0.64065766457E+02  0.00000000000E+00 0.  1.
         14    1    4    4    0    0 -0.41288590552E+02  0.60826800647E+01 -0.14903468573E+02  0.44315460982E+02  0.00000000000E+00 0. -1.
         -5    1    5    5    0  503  0.70885101987E+02 -0.49637952286E+01 -0.95048447078E+02  0.11876714293E+03  0.47000000000E+01 0.  1.
         11    1    6    6    0    0  0.36451984085E+01 -0.54762857977E+02 -0.71642731991E+02  0.90249316520E+02  0.00000000000E+00 0. -1.
        -12    1    6    6    0    0 -0.58946489712E+02 -0.65895261374E+01 -0.82104650718E+02  0.10128812454E+03  0.00000000000E+00 0.  1.
</event>
<event>
12    1  0.9017558E-003  0.2261172E+03  0.7818608E-02  0.1129473E+00
         21   -1    0    0  503  502  0.00000000000E+00  0.00000000000E+00  0.36487309994E+02  0.36487309994E+02  0.00000000000E+00 0.  1.
         21   -1    0    0  501  503 -0.00000000000E+00 -0.00000000000E+00 -0.18200189014E+04  0.18200189014E+04  0.00000000000E+00 0.  1.
          6    2    1    2  501    0  0.12991843492E+03  0.66751210493E+02 -0.13388736604E+04  0.13578334428E+04  0.17261070704E+03 0.  0.
         24    2    3    3    0    0  0.92438525574E+02  0.31748511459E+02 -0.44576828002E+03  0.46324457471E+03  0.79582206151E+02 0.  0.
         -6    2    1    2    0  502 -0.12991843492E+03 -0.66751210493E+02 -0.44465793105E+03  0.49867276859E+03  0.17210267473E+03 0.  0.
        -24    2    5    5    0    0 -0.88641603892E+02  0.24570292271E+02 -0.19827738013E+03  0.23264859765E+03  0.79689505688E+02 0.  0.
          5    1    3    3  501    0  0.37479909347E+02  0.35002699034E+02 -0.89310538033E+03  0.89458886809E+03  0.47000000000E+01 0. -1.
        -11    1    4    4    0    0  0.56975446555E+02  0.56528986897E+02 -0.24297451797E+03  0.25588736634E+03  0.00000000000E+00 0.  1.
         12    1    4    4    0    0  0.35463079019E+02 -0.24780475438E+02 -0.20279376205E+03  0.20735720837E+03  0.00000000000E+00 0. -1.
         -5    1    5    5    0  502 -0.41276831029E+02 -0.91321502764E+02 -0.24638055093E+03  0.26602417093E+03  0.47000000000E+01 0.  1.
         13    1    6    6    0    0 -0.90200752555E+00 -0.75112310051E-02  0.75243670650E+01  0.75782434457E+01  0.00000000000E+00 0. -1.
        -14    1    6    6    0    0 -0.87739596366E+02  0.24577803502E+02 -0.20580174719E+03  0.22507035421E+03  0.00000000000E+00 0.  1.
</event>
<event>
12    1  0.9017558E-003  0.1808970E+03  0.7818608E-02  0.1168004E+00
         21   -1    0    0  501  502  0.00000000000E+00  0.00000000000E+00  0.30931335534E+03  0.30931335534E+03  0.00000000000E+00 0.  1.
         21   -1    0    0  502  503 -0.00000000000E+00 -0.00000000000E+00 -0.30775038309E+03  0.30775038309E+03  0.00000000000E+00 0.  1.
          6    2    1    2  501    0  0.35669277298E+02  0.25354934742E+02  0.25228429390E+03  0.31043693353E+03  0.17552365848E+03 0.  0.
         24    2    3    3    0    0  0.31002655618E+02 -0.44791141556E+01  0.26409846060E+03  0.27767243496E+03  0.79829550454E+02 0.  0.
         -6    2    1    2    0  503 -0.35669277298E+02 -0.25354934742E+02 -0.25072132165E+03  0.30662680491E+03  0.17100773755E+03 0.  0.
        -24    2    5    5    0    0 -0.48286353580E+02 -0.32503263172E+02 -0.26685665508E+03  0.28442932312E+03  0.79369587545E+02 0.  0.
          5    1    3    3  501    0  0.46666216801E+01  0.29834048897E+02 -0.11814166697E+02  0.32764498566E+02  0.47000000000E+01 0. -1.
        -13    1    4    4    0    0  0.52372679572E+02 -0.10387837016E+02  0.11327403747E+03  0.12522704296E+03  0.00000000000E+00 0.  1.
         14    1    4    4    0    0 -0.21370023955E+02  0.59087228602E+01  0.15082442313E+03  0.15244539200E+03  0.00000000000E+00 0. -1.
         -5    1    5    5    0  503  0.12617076282E+02  0.71483284302E+01  0.16135333429E+02  0.22197481797E+02  0.47000000000E+01 0.  1.
         13    1    6    6    0    0 -0.34088721378E+02  0.11265992774E+02 -0.20044174836E+03  0.20363167240E+03  0.00000000000E+00 0. -1.
        -14    1    6    6    0    0 -0.14197632201E+02 -0.43769255946E+02 -0.66414906718E+02  0.80797650712E+02  0.00000000000E+00 0.  1.
</event>
<event>
12    1  0.9017558E-003  0.1744808E+03  0.7818608E-02  0.1178690E+00
         21   -1    0    0  503  502  0.00000000000E+00  0.00000000000E+00  0.10765393750E+03  0.10765393750E+03  0.00000000000E+00 0. -1.
         21   -1    0    0  501  503 -0.00000000000E+00 -0.00000000000E+00 -0.32652278937E+03  0.32652278937E+03  0.00000000000E+00 0. -1.
          6    2    1    2  501    0  0.23270823027E+02  0.19210126275E+02 -0.20851958547E+03  0.25938921644E+03  0.15130032360E+03 0.  0.
         24    2    3    3    0    0  0.26112937968E+02  0.92795451142E+00 -0.44521269725E+02  0.94283635093E+02  0.78895587706E+02 0.  0.
         -6    2    1    2    0  502 -0.23270823027E+02 -0.19210126275E+02 -0.10349266401E+02  0.17478751044E+03  0.17185169867E+03 0.  0.
        -24    2    5    5    0    0  0.21639090756E+02  0.28883581607E+02  0.37826777391E+02  0.93099529136E+02  0.77033406405E+02 0.  0.
          5    1    3    3  501    0 -0.28421149411E+01  0.18282171763E+02 -0.16399831575E+03  0.16510558134E+03  0.47000000000E+01 0. -1.
        -11    1    4    4    0    0  0.26012929940E+02 -0.36972290979E+02 -0.23811518364E+02  0.51094140869E+02  0.00000000000E+00 0.  1.
         12    1    4    4    0    0  0.10000802780E+00  0.37900245491E+02 -0.20709751360E+02  0.43189494223E+02  0.00000000000E+00 0. -1.
         -5    1    5    5    0  502 -0.44909913783E+02 -0.48093707881E+02 -0.48176043792E+02  0.81687981302E+02  0.47000000000E+01 0.  1.
         13    1    6    6    0    0 -0.20780050772E+02  0.35695230633E+02  0.24926440810E+02  0.48241967740E+02  0.00000000000E+00 0. -1.
        -14    1    6    6    0    0  0.42419141528E+02 -0.68116490261E+01  0.12900336582E+02  0.44857561396E+02  0.00000000000E+00 0.  1.
</event>
<event>
12    1  0.9017558E-003  0.1962416E+03  0.7818608E-02  0.1156410E+00
         21   -1    0    0  501  502  0.00000000000E+00  0.00000000000E+00  0.27789935301E+03  0.27789935301E+03  0.00000000000E+00 0.  1.
         21   -1    0    0  502  503 -0.00000000000E+00 -0.00000000000E+00 -0.16004712912E+03  0.16004712912E+03  0.00000000000E+00 0.  1.
          6    2    1    2  501    0  0.52193076985E+02 -0.23629341456E+02  0.15881301376E+03  0.25245266687E+03  0.18769206857E+03 0.  0.
         24    2    3    3    0    0  0.63560191986E+02 -0.65849701075E+01  0.32641329819E+02  0.12454212888E+03  0.10179403528E+03 0.  0.
         -6    2    1    2    0  503 -0.52193076985E+02  0.23629341456E+02 -0.40960789865E+02  0.18549381527E+03  0.17160333951E+03 0.  0.
        -24    2    5    5    0    0  0.27885693531E+02 -0.23249396289E+02 -0.13609722319E+02  0.88641368545E+02  0.79711488158E+02 0.  0.
          5    1    3    3  501    0 -0.11367115002E+02 -0.17044371349E+02  0.12617168394E+03  0.12791053798E+03  0.47000000000E+01 0. -1.
        -11    1    4    4    0    0  0.18759963581E+02  0.41968711539E+02  0.36004498394E+02  0.58392061844E+02  0.00000000000E+00 0.  1.
         12    1    4    4    0    0  0.44800228405E+02 -0.48553681646E+02 -0.33631685756E+01  0.66150067040E+02  0.00000000000E+00 0. -1.
         -5    1    5    5    0  503 -0.80078770515E+02  0.46878737745E+02 -0.27351067546E+02  0.96852446721E+02  0.47000000000E+01 0.  1.
         11    1    6    6    0    0 -0.31380358814E+00 -0.46878591055E+01 -0.43377848805E+02  0.43631551229E+02  0.00000000000E+00 0. -1.
        -12    1    6    6    0    0  0.28199497119E+02 -0.18561537184E+02  0.29768126486E+02  0.45009817316E+02  0.00000000000E+00 0.  1.
</event>
<event>
12    1  0.9017558E-003  0.1921215E+03  0.7818608E-02  0.1157887E+00
         21   -1    0    0  501  502  0.00000000000E+00  0.00000000000E+00  0.55099317543E+03  0.55099317543E+03  0.00000000000E+00 0.  1.
         21   -1    0    0  502  503 -0.00000000000E+00 -0.00000000000E+00 -0.65004699255E+02  0.65004699255E+02  0.00000000000E+00 0.  1.
          6    2    1    2  501    0  0.25248226490E+01 -0.71503447958E+02  0.24732802507E+03  0.30961658679E+03  0.17196558096E+03 0.  0.
         24    2    3    3    0    0  0.25731646146E+02 -0.79723627904E+02  0.25745231754E+03  0.28258476641E+03  0.80959742729E+02 0.  0.
         -6    2    1    2    0  503 -0.25248226490E+01  0.71503447958E+02  0.23866045111E+03  0.30638128789E+03  0.17830189244E+03 0.  0.
        -24    2    5    5    0    0 -0.16372557915E+02  0.10085082712E+03  0.10903261385E+03  0.17267079979E+03  0.86534064008E+02 0.  0.
          5    1    3    3  501    0 -0.23206823497E+02  0.82201799462E+01 -0.10124292469E+02  0.27031820382E+02  0.47000000000E+01 0. -1.
        -11    1    4    4    0    0  0.36317249476E+02 -0.26698693296E+02  0.46294334414E+02  0.64613684556E+02  0.00000000000E+00 0.  1.
         12    1    4    4    0    0 -0.10585603329E+02 -0.53024934608E+02  0.21115798312E+03  0.21797108185E+03  0.00000000000E+00 0. -1.
         -5    1    5    5    0  503  0.13847735266E+02 -0.29347379165E+02  0.12962783726E+03  0.13371048810E+03  0.47000000000E+01 0.  1.
         13    1    6    6    0    0 -0.12257459622E+02 -0.13282504994E+02  0.25137729519E+02  0.30960873707E+02  0.00000000000E+00 0. -1.
        -14    1    6    6    0    0 -0.41150982927E+01  0.11413333212E+03  0.83894884330E+02  0.14170992608E+03  0.00000000000E+00 0.  1.
</event>
<event>
12    1  0.9017558E-003  0.2873456E+03  0.7818608E-02  0.1091809E+00
         21   -1    0    0  501  502  0.00000000000E+00  0.00000000000E+00  0.86544683384E+02  0.86544683384E+02  0.00000000000E+00 0.  1.
         21   -1    0    0  502  503 -0.00000000000E+00 -0.00000000000E+00 -0.10380419170E+04  0.10380419170E+04  0.00000000000E+00 0.  1.
          6    2    1    2  501    0  0.19863788550E+03 -0.11592564413E+03 -0.63689283236E+03  0.69850744654E+03  0.17141881007E+03 0.  0.
         24    2    3    3    0    0  0.67374367054E+02 -0.89849344554E+02 -0.43733059358E+03  0.45818004107E+03  0.77837599558E+02 0.  0.
         -6    2    1    2    0  503 -0.19863788550E+03  0.11592564413E+03 -0.31460440129E+03  0.42607915387E+03  0.17225490278E+03 0.  0.
        -24    2    5    5    0    0 -0.39995457112E+02  0.38694496038E+02 -0.53388574329E+02  0.11082073832E+03  0.79586403115E+02 0.  0.
          5    1    3    3  501    0  0.13126351844E+03 -0.26076299577E+02 -0.19956223878E+03  0.24032740547E+03  0.47000000000E+01 0. -1.
        -13    1    4    4    0    0  0.70826495942E+02 -0.82535398952E+02 -0.27612652095E+03  0.29677321338E+03  0.00000000000E+00 0.  1.
         14    1    4    4    0    0 -0.34521288879E+01 -0.73139456025E+01 -0.16120407262E+03  0.16140682769E+03  0.00000000000E+00 0. -1.
         -5    1    5    5    0  503 -0.15864242838E+03  0.77231148093E+02 -0.26121582696E+03  0.31525841555E+03  0.47000000000E+01 0.  1.
         11    1    6    6    0    0  0.16124003202E+02  0.33471541343E+02 -0.36257583546E+02  0.51912810786E+02  0.00000000000E+00 0. -1.
        -12    1    6    6    0    0 -0.56119460314E+02  0.52229546952E+01 -0.17130990782E+02  0.58907927538E+02  0.00000000000E+00 0.  1.
</event>
<event>
12    1  0.9017558E-003  0.2349571E+03  0.7818608E-02  0.1123245E+00
         21   -1    0    0  503  502  0.00000000000E+00  0.00000000000E+00  0.14470952638E+04  0.14470952638E+04  0.00000000000E+00 0. -1.
         21   -1    0    0  501  503 -0.00000000000E+00 -0.00000000000E+00 -0.44263463296E+02  0.44263463296E+02  0.00000000000E+00 0.  1.
          6    2    1    2  501    0  0.14476121622E+03 -0.67914130431E+02  0.42361873638E+03  0.48441475494E+03  0.17215307768E+03 0.  0.
         24    2    3    3    0    0  0.13509697070E+03 -0.39084764217E+02  0.42399492715E+03  0.45364526490E+03  0.79015934018E+02 0.  0.
         -6    2    1    2    0  502 -0.14476121622E+03  0.67914130431E+02  0.97921306413E+03  0.10069439722E+04  0.17178416480E+03 0.  0.
        -24    2    5    5    0    0 -0.97069385255E+02  0.23315106354E+02  0.32123735313E+03  0.34571957005E+03  0.79765433162E+02 0.  0.
          5    1    3    3  501    0  0.96642455227E+01 -0.28829366214E+02 -0.37619077130E+00  0.30769490040E+02  0.47000000000E+01 0. -1.
        -13    1    4    4    0    0  0.76081494664E+02  0.96060386085E+01  0.14116118930E+03  0.16064604313E+03  0.00000000000E+00 0.  1.
         14    1    4    4    0    0  0.59015476038E+02 -0.48690802826E+02  0.28283373785E+03  0.29299922177E+03  0.00000000000E+00 0. -1.
         -5    1    5    5    0  502 -0.47691830970E+02  0.44599024077E+02  0.65797571100E+03  0.66122440212E+03  0.47000000000E+01 0.  1.
         11    1    6    6    0    0 -0.40657629852E+02  0.35618586801E+01  0.24729812295E+03  0.25064335482E+03  0.00000000000E+00 0. -1.
        -12    1    6    6    0    0 -0.56411755403E+02  0.19753247674E+02  0.73939230185E+02  0.95076215226E+02  0.00000000000E+00 0.  1.
</event>
<event>
12    1  0.9017558E-003  0.2035703E+03  0.7818608E-02  0.1147948E+00
         21   -1    0    0  501  502  0.00000000000E+00  0.00000000000E+00  0.35687040841E+02  0.35687040841E+02  0.00000000000E+00 0. -1.
         21   -1    0    0  502  503 -0.00000000000E+00 -0.00000000000E+00 -0.11720917239E+04  0.11720917239E+04  0.00000000000E+00 0.  1.
          6    2    1    2  501    0  0.68060921472E+02  0.84189054862E+02 -0.67610471772E+03  0.70447277663E+03  0.16566296416E+03 0.  0.
         24    2    3    3    0    0  0.75016333675E+02  0.14022822895E+02 -0.54208947067E+03  0.55296748197E+03  0.78025329377E+02 0.  0.
         -6    2    1    2    0  503 -0.68060921472E+02 -0.84189054862E+02 -0.46029996538E+03  0.50330598815E+03  0.17239713917E+03 0.  0.
        -24    2    5    5    0    0 -0.15669474267E+02 -0.65692470453E+02 -0.42408276936E+03  0.43681717208E+03  0.80012583129E+02 0.  0.
          5    1    3    3  501    0 -0.69554122033E+01  0.70166231967E+02 -0.13401524705E+03  0.15150529466E+03  0.47000000000E+01 0. -1.
        -13    1    4    4    0    0  0.13779798654E+02  0.15671120600E+02 -0.36473662885E+03  0.36533310183E+03  0.00000000000E+00 0.  1.
         14    1    4    4    0    0  0.61236535022E+02 -0.16482977047E+01 -0.17735284183E+03  0.18763438014E+03  0.00000000000E+00 0. -1.
         -5    1    5    5    0  503 -0.52391447205E+02 -0.18496584409E+02 -0.36217196013E+02  0.66488816068E+02  0.47000000000E+01 0.  1.
         11    1    6    6    0    0 -0.17373946783E+02 -0.74622471307E+01 -0.16509958965E+02  0.25102149391E+02  0.00000000000E+00 0. -1.
        -12    1    6    6    0    0  0.17044725158E+01 -0.58230223322E+02 -0.40757281040E+03  0.41171502269E+03  0.00000000000E+00 0.  1.
</event>
<event>
12    1  0.9017558E-003  0.1967876E+03  0.7818608E-02  0.1152648E+00
         21   -1    0    0  503  502  0.00000000000E+00  0.00000000000E+00  0.14035869390E+03  0.14035869390E+03  0.00000000000E+00 0.  1.
         21   -1    0    0  501  503 -0.00000000000E+00 -0.00000000000E+00 -0.27497418456E+03  0.27497418456E+03  0.00000000000E+00 0. -1.
          6    2    1    2  501    0  0.35710834143E+01  0.94207342334E+02 -0.72715596451E+02  0.20979258684E+03  0.17273562325E+03 0.  0.
         24    2    3    3    0    0  0.18183466151E+02 -0.16278039751E+02 -0.33498428300E+02  0.91552924880E+02  0.81634431069E+02 0.  0.
         -6    2    1    2    0  502 -0.35710834143E+01 -0.94207342334E+02 -0.61899894212E+02  0.20554029161E+03  0.17183549862E+03 0.  0.
        -24    2    5    5    0    0  0.47288661881E+01 -0.13209041883E+02  0.12528473247E+01  0.10239004875E+03  0.10141652475E+03 0.  0.
          5    1    3    3  501    0 -0.14612382737E+02  0.11048538209E+03 -0.39217168151E+02  0.11823966196E+03  0.47000000000E+01 0. -1.
        -11    1    4    4    0    0 -0.10228837652E+02  0.18444900927E+01  0.23297883053E+02  0.25511225336E+02  0.00000000000E+00 0.  1.
         12    1    4    4    0    0  0.28412303803E+02 -0.18122529843E+02 -0.56796311353E+02  0.66041699544E+02  0.00000000000E+00 0. -1.
         -5    1    5    5    0  502 -0.82999496024E+01 -0.80998300451E+02 -0.63152741537E+02  0.10315024286E+03  0.47000000000E+01 0.  1.
         11    1    6    6    0    0 -0.51057250267E+01  0.36001995793E+02 -0.26545767841E+02  0.45020994207E+02  0.00000000000E+00 0. -1.
        -12    1    6    6    0    0  0.98345912148E+01 -0.49211037676E+02  0.27798615165E+02  0.57369054539E+02  0.00000000000E+00 0.  1.
</event>
<event>
12    1  0.9017558E-003  0.2528293E+03  0.7818608E-02  0.1111551E+00
         21   -1    0    0  503  502  0.00000000000E+00  0.00000000000E+00  0.32987000971E+03  0.32987000971E+03  0.00000000000E+00 0.  1.
         21   -1    0    0  501  503 -0.00000000000E+00 -0.00000000000E+00 -0.32935059116E+03  0.32935059116E+03  0.00000000000E+00 0. -1.
          6    2    1    2  501    0  0.18229978265E+03  0.30867434082E+02 -0.21129521770E+03  0.32939021398E+03  0.17223888875E+03 0.  0.
         24    2    3    3    0    0  0.10135481660E+03  0.28461892087E+02 -0.34372374669E+02  0.13475810833E+03  0.76781569865E+02 0.  0.
         -6    2    1    2    0  502 -0.18229978265E+03 -0.30867434082E+02  0.21181463624E+03  0.32983038689E+03  0.17244313482E+03 0.  0.
        -24    2    5    5    0    0 -0.16146458828E+03 -0.81106740176E+02  0.16612849863E+03  0.25864466942E+03  0.81543058527E+02 0.  0.
          5    1    3    3  501    0  0.80944966054E+02  0.24055419951E+01 -0.17692284303E+03  0.19463210565E+03  0.47000000000E+01 0. -1.
        -13    1    4    4    0    0  0.92135018714E+02 -0.79268200243E+01 -0.28467867192E+02  0.96758026084E+02  0.00000000000E+00 0.  1.
         14    1    4    4    0    0  0.92197978868E+01  0.36388712111E+02 -0.59045074777E+01  0.38000082246E+02  0.00000000000E+00 0. -1.
         -5    1    5    5    0  502 -0.20835194374E+02  0.50239306094E+02  0.45686137619E+02  0.71185717472E+02  0.47000000000E+01 0.  1.
         11    1    6    6    0    0 -0.11123200301E+03 -0.10861993486E+02  0.89249458660E+02  0.14302449883E+03  0.00000000000E+00 0. -1.
        -12    1    6    6    0    0 -0.50232585274E+02 -0.70244746690E+02  0.76879039966E+02  0.11562017059E+03  0.00000000000E+00 0.  1.
</event>
<event>
12    1  0.9017558E-003  0.2027907E+03  0.7818608E-02  0.1147516E+00
         21   -1    0    0  503  502  0.00000000000E+00  0.00000000000E+00  0.55336999352E+02  0.55336999352E+02  0.00000000000E+00 0. -1.
         21   -1    0    0  501  503 -0.00000000000E+00 -0.00000000000E+00 -0.84452242727E+03  0.84452242727E+03  0.00000000000E+00 0. -1.
          6    2    1    2  501    0 -0.24399559144E+02  0.10286617043E+03 -0.55150967411E+03  0.58742731784E+03  0.17242721831E+03 0.  0.
         24    2    3    3    0    0  0.27240018047E+02  0.11768465971E+03 -0.44379232117E+03  0.46696424599E+03  0.80698729783E+02 0.  0.
         -6    2    1    2    0  502  0.24399559144E+02 -0.10286617043E+03 -0.23767575382E+03  0.31243210878E+03  0.17305279871E+03 0.  0.
        -24    2    5    5    0    0  0.12289568301E+02 -0.13022204773E+03 -0.23665424416E+03  0.28213145890E+03  0.80523994038E+02 0.  0.
          5    1    3    3  501    0 -0.51639577191E+02 -0.14818489286E+02 -0.10771735293E+03  0.12046307185E+03  0.47000000000E+01 0. -1.
        -13    1    4    4    0    0  0.27691460767E+02  0.11500893001E+03 -0.29069719518E+03  0.31384507367E+03  0.00000000000E+00 0.  1.
         14    1    4    4    0    0 -0.45144272009E+00  0.26757297017E+01 -0.15309512599E+03  0.15311917232E+03  0.00000000000E+00 0. -1.
         -5    1    5    5    0  502  0.12109990843E+02  0.27355877306E+02 -0.10215096550E+01  0.30300649883E+02  0.47000000000E+01 0.  1.
         13    1    6    6    0    0 -0.26458328076E+01 -0.41153941040E+02 -0.16944236637E+02  0.44584239924E+02  0.00000000000E+00 0. -1.
        -14    1    6    6    0    0  0.14935401109E+02 -0.89068106691E+02 -0.21971000752E+03  0.23754721897E+03  0.00000000000E+00 0.  1.
</event>
<event>
12    1  0.9017558E-003  0.1986503E+03  0.7818608E-02  0.1152721E+00
         21   -1    0    0  501  502  0.00000000000E+00  0.00000000000E+00  0.44535084717E+02  0.44535084717E+02  0.00000000000E+00 0.  1.
         21   -1    0    0  502  503 -0.00000000000E+00 -0.00000000000E+00 -0.84894894593E+03  0.84894894593E+03  0.00000000000E+00 0.  1.
          6    2    1    2  501    0 -0.45886345403E+02  0.67926131270E+02 -0.41608012056E+03  0.46106900113E+03  0.18094872498E+03 0.  0.
         24    2    3    3    0    0 -0.17906737232E+02  0.11209936402E+02 -0.37812472383E+03  0.38716171208E+03  0.80433641073E+02 0.  0.
         -6    2    1    2    0  503  0.45886345403E+02 -0.67926131270E+02 -0.38833374065E+03  0.43241502951E+03  0.17163958640E+03 0.  0.
        -24    2    5    5    0    0  0.86802334731E+02 -0.72043763356E+02 -0.35225093030E+03  0.37750480934E+03  0.75526247265E+02 0.  0.
          5    1    3    3  501    0 -0.27979608171E+02  0.56716194867E+02 -0.37955396730E+02  0.73907289049E+02  0.47000000000E+01 0. -1.
        -13    1    4    4    0    0  0.11458917117E+02  0.39466596712E+02 -0.15557314786E+03  0.16090967458E+03  0.00000000000E+00 0.  1.
         14    1    4    4    0    0 -0.29365654349E+02 -0.28256660309E+02 -0.22255157597E+03  0.22625203750E+03  0.00000000000E+00 0. -1.
         -5    1    5    5    0  503 -0.40915989328E+02  0.41176320867E+01 -0.36082810350E+02  0.54910220173E+02  0.47000000000E+01 0.  1.
         11    1    6    6    0    0  0.53097334655E+02 -0.19472026731E+02 -0.26016451423E+03  0.26624060780E+03  0.00000000000E+00 0. -1.
        -12    1    6    6    0    0  0.33705000076E+02 -0.52571736625E+02 -0.92086416063E+02  0.11126420154E+03  0.00000000000E+00 0.  1.
</event>
<event>
12    1  0.9017558E-003  0.1994356E+03  0.7818608E-02  0.1151150E+00
         21   -1    0    0  501  502  0.00000000000E+00  0.00000000000E+00  0.11860584556E+04  0.11860584556E+04  0.00000000000E+00 0.  1.
         21   -1    0    0  502  503 -0.00000000000E+00 -0.00000000000E+00 -0.43471269086E+02  0.43471269086E+02  0.00000000000E+00 0.  1.
          6    2    1    2  501    0 -0.45695641457E+02  0.79292765692E+02  0.87101952934E+03  0.89259719021E+03  0.17227678063E+03 0.  0.
         24    2    3    3    0    0 -0.56330981765E+02  0.84166257206E+02  0.87038374041E+03  0.87997357699E+03  0.80799147733E+02 0.  0.
         -6    2    1    2    0  503  0.45695641457E+02 -0.79292765692E+02  0.27156765722E+03  0.33693253452E+03  0.17719792897E+03 0.  0.
        -24    2    5    5    0    0 -0.35568517400E+02 -0.34915752245E+02  0.19564874583E+03  0.21710368180E+03  0.79820722383E+02 0.  0.
          5    1    3    3  501    0  0.10635340309E+02 -0.48734915137E+01  0.63578892222E+00  0.12623613214E+02  0.47000000000E+01 0. -1.
        -13    1    4    4    0    0 -0.67349176028E+02  0.33800864329E+02  0.60048838529E+03  0.60519807569E+03  0.00000000000E+00 0.  1.
         14    1    4    4    0    0  0.11018194263E+02  0.50365392877E+02  0.26989535512E+03  0.27477550131E+03  0.00000000000E+00 0. -1.
         -5    1    5    5    0  503  0.81264158857E+02 -0.44377013447E+02  0.75918911392E+02  0.11982885272E+03  0.47000000000E+01 0.  1.
         13    1    6    6    0    0  0.20307369019E+02 -0.31579096958E+02  0.90621385522E+02  0.98091101101E+02  0.00000000000E+00 0. -1.
        -14    1    6    6    0    0 -0.55875886419E+02 -0.33366552870E+01  0.10502736030E+03  0.11901258070E+03  0.00000000000E+00 0.  1.
</event>
<event>
12    1  0.9017558E-003  0.1841075E+03  0.7818608E-02  0.1164070E+00
         21   -1    0    0  501  502  0.00000000000E+00  0.00000000000E+00  0.34982042162E+03  0.34982042162E+03  0.00000000000E+00 0. -1.
         21   -1    0    0  502  503 -0.00000000000E+00 -0.00000000000E+00 -0.12959260060E+03  0.12959260060E+03  0.00000000000E+00 0. -1.
          6    2    1    2  501    0 -0.44520985889E+02  0.47318248326E+02  0.23110102055E+03  0.29498471542E+03  0.17142685268E+03 0.  0.
         24    2    3    3    0    0 -0.82646867069E+02  0.10865337609E+02  0.98889912958E+02  0.15256187846E+03  0.80915707231E+02 0.  0.
         -6    2    1    2    0  503  0.44520985889E+02 -0.47318248326E+02 -0.10873199533E+02  0.18442830681E+03  0.17226270367E+03 0.  0.
        -24    2    5    5    0    0  0.52016427237E+02  0.34987539635E+02 -0.63162572892E+01  0.10152305911E+03  0.79606531095E+02 0.  0.
          5    1    3    3  501    0  0.38125881180E+02  0.36452910716E+02  0.13221110760E+03  0.14242283696E+03  0.47000000000E+01 0. -1.
        -13    1    4    4    0    0  0.69309741841E+01  0.18850173171E+02  0.17143332514E+01  0.20157042695E+02  0.00000000000E+00 0.  1.
         14    1    4    4    0    0 -0.89577841253E+02 -0.79848355620E+01  0.97175579707E+02  0.13240483576E+03  0.00000000000E+00 0. -1.
         -5    1    5    5    0  503 -0.74954413481E+01 -0.82305787960E+02 -0.45569422441E+01  0.82905247695E+02  0.47000000000E+01 0.  1.
         11    1    6    6    0    0 -0.11014664925E+02 -0.13698382544E+02 -0.12606170147E+02  0.21630627672E+02  0.00000000000E+00 0. -1.
        -12    1    6    6    0    0  0.63031092161E+02  0.48685922179E+02  0.62899128574E+01  0.79892431439E+02  0.00000000000E+00 0.  1.
</event>
<event>
12    1  0.9017558E-003  0.2472797E+03  0.7818608E-02  0.1117172E+00
         21   -1    0    0  503  502  0.00000000000E+00  0.00000000000E+00  0.63294792068E+02  0.63294792068E+02  0.00000000000E+00 0. -1.
         21   -1    0    0  501  503 -0.00000000000E+00 -0.00000000000E+00 -0.98150829569E+03  0.98150829569E+03  0.00000000000E+00 0. -1.
          6    2    1    2  501    0 -0.81480756607E+02  0.13834778277E+03 -0.33585310332E+03  0.41706662398E+03  0.18806392300E+03 0.  0.
         24    2    3    3    0    0 -0.97156182846E+01 -0.97991980308E+01 -0.92101029594E+02  0.12289842984E+03  0.80193558868E+02 0.  0.
         -6    2    1    2    0  502  0.81480756607E+02 -0.13834778277E+03 -0.58236040030E+03  0.62773646378E+03  0.17067574350E+03 0.  0.
        -24    2    5    5    0    0  0.67502628735E+02 -0.16294706967E+03 -0.55574872543E+03  0.58861122622E+03  0.80611273463E+02 0.  0.
          5    1    3    3  501    0 -0.71765138322E+02  0.14814698080E+03 -0.24375207372E+03  0.29416819414E+03  0.47000000000E+01 0. -1.
        -11    1    4    4    0    0  0.32117542117E+01  0.31564186587E+02 -0.63470388783E+02  0.70958463147E+02  0.00000000000E+00 0.  1.
         12    1    4    4    0    0 -0.12927372496E+02 -0.41363384617E+02 -0.28630640811E+02  0.51939966692E+02  0.00000000000E+00 0. -1.
         -5    1    5    5    0  502  0.13978127872E+02  0.24599286899E+02 -0.26611674868E+02  0.39125237559E+02  0.47000000000E+01 0.  1.
         11    1    6    6    0    0  0.39118631897E+02 -0.12223712127E+03 -0.48821735822E+03  0.50480527934E+03  0.00000000000E+00 0. -1.
        -12    1    6    6    0    0  0.28383996838E+02 -0.40709948396E+02 -0.67531367209E+02  0.83805946878E+02  0.00000000000E+00 0.  1.
</event>
<event>
12    1  0.9017558E-003  0.2219699E+03  0.7818608E-02  0.1134771E+00
         21   -1    0    0  501  502  0.00000000000E+00  0.00000000000E+00  0.38305237612E+02  0.38305237612E+02  0.00000000000E+00 0.  1.
         21   -1    0    0  502  503 -0.00000000000E+00 -0.00000000000E+00 -0.12198106921E+04  0.12198106921E+04  0.00000000000E+00 0.  1.
          6    2    1    2  501    0 -0.33319222980E+02  0.11239257027E+03 -0.61066138851E+03  0.64563442483E+03  0.17376483718E+03 0.  0.
         24    2    3    3    0    0 -0.15579343955E+02  0.76394895074E+02 -0.58934922687E+03  0.59995254482E+03  0.80818617143E+02 0.  0.
         -6    2    1    2    0  503  0.33319222980E+02 -0.11239257027E+03 -0.57084406603E+03  0.61248150493E+03  0.18848974956E+03 0.  0.
        -24    2    5    5    0    0 -0.50353916629E+02 -0.90163245369E+02 -0.43293012823E+03  0.44957760253E+03  0.63455472839E+02 0.  0.
          5    1    3    3  501    0 -0.17739879025E+02  0.35997675197E+02 -0.21312161642E+02  0.45681880010E+02  0.47000000000E+01 0. -1.
        -13    1    4    4    0    0  0.69398987086E+01  0.86505447401E+02 -0.42611909433E+03  0.43486645902E+03  0.00000000000E+00 0.  1.
         14    1    4    4    0    0 -0.22519242663E+02 -0.10110552327E+02 -0.16323013254E+03  0.16508608581E+03  0.00000000000E+00 0. -1.
         -5    1    5    5    0  503  0.83673139609E+02 -0.22229324902E+02 -0.13791393780E+03  0.16290390240E+03  0.47000000000E+01 0.  1.
         11    1    6    6    0    0 -0.43427042045E+02 -0.76073018401E+02 -0.42057019777E+03  0.42959551134E+03  0.00000000000E+00 0. -1.
        -12    1    6    6    0    0 -0.69268745837E+01 -0.14090226968E+02 -0.12359930461E+02  0.19982091195E+02  0.00000000000E+00 0.  1.
</event>
<event>
12    1  0.9017558E-003  0.1956029E+03  0.7818608E-02  0.1153691E+00
         21   -1    0    0  501  502  0.00000000000E+00  0.00000000000E+00  0.87207293207E+02  0.87207293207E+02  0.00000000000E+00 0. -1.
         21   -1    0    0  502  503 -0.00000000000E+00 -0.00000000000E+00 -0.46868484701E+03  0.46868484701E+03  0.00000000000E+00 0. -1.
          6    2    1    2  501    0  0.13040172173E+02 -0.90860364988E+02 -0.26284888453E+03  0.32712752020E+03  0.17174756581E+03 0.  0.
         24    2    3    3    0    0 -0.41050304623E+02 -0.10603486368E+03 -0.20372183763E+03  0.24543209337E+03  0.76195836528E+02 0.  0.
         -6    2    1    2    0  503 -0.13040172173E+02  0.90860364988E+02 -0.11862866928E+03  0.22876462001E+03  0.17272764162E+03 0.  0.
        -24    2    5    5    0    0 -0.30093156387E+02 -0.15747484391E+02 -0.46723382116E+02  0.98962855226E+02  0.80355404001E+02 0.  0.
          5    1    3    3  501    0  0.54090476796E+02  0.15174498695E+02 -0.59127046894E+02  0.81695426830E+02  0.47000000000E+01 0. -1.
        -11    1    4    4    0    0  0.96386498081E+01  0.51041522831E+01 -0.46190271943E+01  0.11844465073E+02  0.00000000000E+00 0.  1.
         12    1    4    4    0    0 -0.50688954431E+02 -0.11113901597E+03 -0.19910281044E+03  0.23358762830E+03  0.00000000000E+00 0. -1.
         -5    1    5    5    0  503  0.17052984214E+02  0.10660784938E+03 -0.71905287160E+02  0.12980176479E+03  0.47000000000E+01 0.  1.
         13    1    6    6    0    0 -0.37219030899E+02 -0.41518114677E+01  0.11495323087E+02  0.39174433658E+02  0.00000000000E+00 0. -1.
        -14    1    6    6    0    0  0.71258745124E+01 -0.11595672923E+02 -0.58218705203E+02  0.59788421568E+02  0.00000000000E+00 0.  1.
</event>
<event>
12    1  0.9017558E-003  0.1967850E+03  0.7818608E-02  0.1152595E+00
         21   -1    0    0  501  502  0.00000000000E+00  0.00000000000E+00  0.24379107078E+03  0.24379107078E+03  0.00000000000E+00 0.  1.
         21   -1    0    0  502  503 -0.00000000000E+00 -0.00000000000E+00 -0.16353486502E+03  0.16353486502E+03  0.00000000000E+00 0.  1.
          6    2    1    2  501    0  0.20429258601E+02  0.93326556832E+02  0.41421725243E+01  0.19682863903E+03  0.17203823625E+03 0.  0.
         24    2    3    3    0    0  0.44570074395E+02  0.91630384670E+02 -0.49205887581E+02  0.13805992708E+03  0.79099337329E+02 0.  0.
         -6    2    1    2    0  503 -0.20429258601E+02 -0.93326556832E+02  0.76114033237E+02  0.21049729678E+03  0.17143093384E+03 0.  0.
        -24    2    5    5    0    0 -0.12373127249E+02  0.14479041666E+02  0.59143883935E+02  0.10096636833E+03  0.79583111281E+02 0.  0.
          5    1    3    3  501    0 -0.24140815794E+02  0.16961721621E+01  0.53348060105E+02  0.58768711950E+02  0.47000000000E+01 0. -1.
        -11    1    4    4    0    0  0.46264192589E+02  0.68471083355E+02  0.11110078058E+01  0.82643203653E+02  0.00000000000E+00 0.  1.
         12    1    4    4    0    0 -0.16941181932E+01  0.23159301315E+02 -0.50316895387E+02  0.55416723426E+02  0.00000000000E+00 0. -1.
         -5    1    5    5    0  503 -0.80561313519E+01 -0.10780559850E+03  0.16970149302E+02  0.10953092845E+03  0.47000000000E+01 0.  1.
         13    1    6    6    0    0 -0.14177402700E+01 -0.27449679548E+02  0.49424771003E+02  0.56553539972E+02  0.00000000000E+00 0. -1.
        -14    1    6    6    0    0 -0.10955386979E+02  0.41928721213E+02  0.97191129324E+01  0.44412828357E+02  0.00000000000E+00 0.  1.
</event>
<event>
12    1  0.9017558E-003  0.1716827E+03  0.7818608E-02  0.1176158E+00
         21   -1    0    0  501  502  0.00000000000E+00  0.00000000000E+00  0.17623533072E+02  0.17623533072E+02  0.00000000000E+00 0. -1.
         21   -1    0    0  502  503 -0.00000000000E+00 -0.00000000000E+00 -0.17395028167E+04  0.17395028167E+04  0.00000000000E+00 0. -1.
          6    2    1    2  501    0  0.15101690874E+01  0.63356473505E+01 -0.10364677643E+04  0.10505904948E+04  0.17155914533E+03 0.  0.
         24    2    3    3    0    0  0.17507302489E+02  0.53018919705E+02 -0.38645105461E+03  0.39868632313E+03  0.80553430448E+02 0.  0.
         -6    2    1    2    0  503 -0.15101690874E+01 -0.63356473505E+01 -0.68541151937E+03  0.70653585498E+03  0.17135210083E+03 0.  0.
        -24    2    5    5    0    0  0.55120523111E+02  0.31961346068E+02 -0.39274580804E+03  0.40595474515E+03  0.80561688567E+02 0.  0.
          5    1    3    3  501    0 -0.15997133402E+02 -0.46683272354E+02 -0.65001670969E+03  0.65190417169E+03  0.47000000000E+01 0. -1.
        -13    1    4    4    0    0 -0.42224456525E+00 -0.21307699235E+02 -0.73210744523E+02  0.76249652135E+02  0.00000000000E+00 0.  1.
         14    1    4    4    0    0  0.17929547055E+02  0.74326618939E+02 -0.31324031008E+03  0.32243667099E+03  0.00000000000E+00 0. -1.
         -5    1    5    5    0  503 -0.56630692198E+02 -0.38296993418E+02 -0.29266571133E+03  0.30058110983E+03  0.47000000000E+01 0.  1.
         13    1    6    6    0    0  0.65985966981E+02  0.14719428692E+02 -0.18072696562E+03  0.19295866272E+03  0.00000000000E+00 0. -1.
        -14    1    6    6    0    0 -0.10865443870E+02  0.17241917376E+02 -0.21201884242E+03  0.21299608242E+03  0.00000000000E+00 0.  1.
</event>
<event>
12    1  0.9017558E-003  0.1897948E+03  0.7818608E-02  0.1158976E+00
         21   -1    0    0  501  502  0.00000000000E+00  0.00000000000E+00  0.65202913317E+03  0.65202913317E+03  0.00000000000E+00 0.  1.
         21   -1    0    0  502  503 -0.00000000000E+00 -0.00000000000E+00 -0.55005568957E+02  0.55005568957E+02  0.00000000000E+00 0.  1.
          6    2    1    2  501    0  0.77784182930E+02 -0.17929384369E+02  0.27706692260E+03  0.33502085650E+03  0.17059030675E+03 0.  0.
         24    2    3    3    0    0  0.20796123207E+02  0.22613218947E+02  0.50190364061E+02  0.97562640290E+02  0.77817476984E+02 0.  0.
         -6    2    1    2    0  503 -0.77784182930E+02  0.17929384369E+02  0.31995664161E+03  0.37201384562E+03  0.17219235431E+03 0.  0.
        -24    2    5    5    0    0 -0.90244309420E+02  0.59767101882E+02  0.17739684666E+03  0.22284603912E+03  0.80464738222E+02 0.  0.
          5    1    3    3  501    0  0.56988059723E+02 -0.40542603315E+02  0.22687655854E+03  0.23745821621E+03  0.47000000000E+01 0. -1.
        -11    1    4    4    0    0 -0.99241059005E+01  0.29839483600E+01  0.59126175281E+02  0.60027463957E+02  0.00000000000E+00 0.  1.
         12    1    4    4    0    0  0.30720229107E+02  0.19629270587E+02 -0.89358112202E+01  0.37535176333E+02  0.00000000000E+00 0. -1.
         -5    1    5    5    0  503  0.12460126490E+02 -0.41837717514E+02  0.14255979495E+03  0.14916780650E+03  0.47000000000E+01 0.  1.
         13    1    6    6    0    0  0.20772449958E+01 -0.11718146489E+00  0.66791163223E+02  0.66823559939E+02  0.00000000000E+00 0. -1.
        -14    1    6    6    0    0 -0.92321554416E+02  0.59884283347E+02  0.11060568344E+03  0.15602247919E+03  0.00000000000E+00 0.  1.
</event>
<event>
12    1  0.9017558E-003  0.2402013E+03  0.7818608E-02  0.1122547E+00
         21   -1    0    0  501  502  0.00000000000E+00  0.00000000000E+00  0.15586293603E+03  0.15586293603E+03  0.00000000000E+00 0. -1.
         21   -1    0    0  502  503 -0.00000000000E+00 -0.00000000000E+00 -0.35096743649E+03  0.35096743649E+03  0.00000000000E+00 0. -1.
          6    2    1    2  501    0 -0.67071701411E+02 -0.12750072213E+03 -0.67645970399E+02  0.24954490481E+03  0.19220206797E+03 0.  0.
         24    2    3    3    0    0  0.36541808815E+02 -0.72374319271E+02 -0.17518990605E+01  0.11486454830E+03  0.81347706939E+02 0.  0.
         -6    2    1    2    0  503  0.67071701411E+02  0.12750072213E+03 -0.12745853007E+03  0.25728546771E+03  0.17086570087E+03 0.  0.
        -24    2    5    5    0    0  0.69304778486E+02  0.14538140864E+03 -0.63462621648E+02  0.19063509728E+03  0.79845661564E+02 0.  0.
          5    1    3    3  501    0 -0.10361351023E+03 -0.55126402861E+02 -0.65894071338E+02  0.13468035652E+03  0.47000000000E+01 0. -1.
        -11    1    4    4    0    0  0.12009412985E+01  0.16554718061E+02 -0.90274318039E+01  0.18894323884E+02  0.00000000000E+00 0.  1.
         12    1    4    4    0    0  0.35340867516E+02 -0.88929037332E+02  0.72755327434E+01  0.95970224415E+02  0.00000000000E+00 0. -1.
         -5    1    5    5    0  503 -0.22330770746E+01 -0.17880686509E+02 -0.63995908419E+02  0.66650370424E+02  0.47000000000E+01 0.  1.
         13    1    6    6    0    0  0.26970085726E+02  0.11730158695E+01 -0.21729626846E+02  0.34654554869E+02  0.00000000000E+00 0. -1.
        -14    1    6    6    0    0  0.42334692760E+02  0.14420839277E+03 -0.41732994802E+02  0.15598054242E+03  0.00000000000E+00 0.  1.
</event>
<event>
12    1  0.9017558E-003  0.1874810E+03  0.7818608E-02  0.1162327E+00
         21   -1    0    0  503  502  0.00000000000E+00  0.00000000000E+00  0.48494392159E+02  0.48494392159E+02  0.00000000000E+00 0.  1.
         21   -1    0    0  501  503 -0.00000000000E+00 -0.00000000000E+00 -0.70070644753E+03  0.70070644753E+03  0.00000000000E+00 0.  1.
          6    2    1    2  501    0  0.47038623088E+02  0.24112090714E+02 -0.30188988342E+03  0.35186627431E+03  0.17285354582E+03 0.  0.
         24    2    3    3    0    0 -0.19516578015E+01 -0.41091138293E+02 -0.85724232139E+02  0.12077930478E+03  0.74476210106E+02 0.  0.
         -6    2    1    2    0  502 -0.47038623088E+02 -0.24112090714E+02 -0.35032217195E+03  0.39733456538E+03  0.17987525595E+03 0.  0.
        -24    2    5    5    0    0  0.38899658486E+02  0.15619673871E+01 -0.23432366866E+03  0.25062979973E+03  0.79950557500E+02 0.  0.
          5    1    3    3  501    0  0.48990280890E+02  0.65203229007E+02 -0.21616565128E+03  0.23108696953E+03  0.47000000000E+01 0. -1.
        -13    1    4    4    0    0  0.55407352746E+00 -0.62730823100E+02 -0.69443168459E+02  0.93583207949E+02  0.00000000000E+00 0.  1.
         14    1    4    4    0    0 -0.25057313290E+01  0.21639684807E+02 -0.16281063680E+02  0.27196096827E+02  0.00000000000E+00 0. -1.
         -5    1    5    5    0  502 -0.85938281574E+02 -0.25674058101E+02 -0.11599850329E+03  0.14670476565E+03  0.47000000000E+01 0.  1.
         13    1    6    6    0    0  0.15615261997E+02 -0.21524505892E+02 -0.18655702438E+02  0.32483472638E+02  0.00000000000E+00 0. -1.
        -14    1    6    6    0    0  0.23284396489E+02  0.23086473279E+02 -0.21566796622E+03  0.21814632709E+03  0.00000000000E+00 0.  1.
</event>
<event>
12    1  0.9017558E-003  0.1807738E+03  0.7818608E-02  0.1168276E+00
         21   -1    0    0  503  502  0.00000000000E+00  0.00000000000E+00  0.68218353814E+02  0.68218353814E+02  0.00000000000E+00 0. -1.
         21   -1    0    0  501  503 -0.00000000000E+00 -0.00000000000E+00 -0.49613704078E+03  0.49613704078E+03  0.00000000000E+00 0. -1.
          6    2    1    2  501    0 -0.35422614015E+02  0.74331328105E+01 -0.28080041590E+03  0.33128254729E+03  0.17201523050E+03 0.  0.
         24    2    3    3    0    0  0.20050386746E+02  0.99731301541E+01 -0.61006114371E+02  0.10453305912E+03  0.81877549579E+02 0.  0.
         -6    2    1    2    0  502  0.35422614015E+02 -0.74331328105E+01 -0.14711827107E+03  0.23307284731E+03  0.17711339142E+03 0.  0.
        -24    2    5    5    0    0  0.21726107144E+02  0.64046046348E+02 -0.10485852040E+03  0.14878261133E+03  0.81037252855E+02 0.  0.
          5    1    3    3  501    0 -0.55473000761E+02 -0.25399973435E+01 -0.21979430153E+03  0.22674948817E+03  0.47000000000E+01 0. -1.
        -11    1    4    4    0    0 -0.16127866054E+02 -0.28001857951E+02 -0.25985550899E+02  0.41466383586E+02  0.00000000000E+00 0.  1.
         12    1    4    4    0    0  0.36178252800E+02  0.37974988105E+02 -0.35020563472E+02  0.63066675536E+02  0.00000000000E+00 0. -1.
         -5    1    5    5    0  502  0.13696506871E+02 -0.71479179158E+02 -0.42259750666E+02  0.84290235971E+02  0.47000000000E+01 0.  1.
         13    1    6    6    0    0 -0.26635579185E+02  0.10435771364E+02 -0.11666980595E+02  0.30894624754E+02  0.00000000000E+00 0. -1.
        -14    1    6    6    0    0  0.48361686329E+02  0.53610274984E+02 -0.93191539807E+02  0.11788798658E+03  0.00000000000E+00 0.  1.
</event>
<event>
12    1  0.9017558E-003  0.1810730E+03  0.7818608E-02  0.1167369E+00
         21   -1    0    0  501  502  0.00000000000E+00  0.00000000000E+00  0.50184182064E+03  0.50184182064E+03  0.00000000000E+00 0.  1.
         21   -1    0    0  502  503 -0.00000000000E+00 -0.00000000000E+00 -0.73743831546E+02  0.73743831546E+02  0.00000000000E+00 0. -1.
          6    2    1    2  501    0  0.53668505868E+02 -0.22556578011E+02  0.31755608778E+03  0.36555341466E+03  0.17145938980E+03 0.  0.
         24    2    3    3    0    0  0.12931641409E+01 -0.69454551903E+02  0.15087870167E+03  0.18459475249E+03  0.80530944201E+02 0.  0.
         -6    2    1    2    0  503 -0.53668505868E+02  0.22556578011E+02  0.11054190131E+03  0.21003223752E+03  0.16883400463E+03 0.  0.
        -24    2    5    5    0    0 -0.54653382683E+02  0.58694509283E+02  0.23975871434E+02  0.11610307492E+03  0.80455229386E+02 0.  0.
          5    1    3    3  501    0  0.52375341727E+02  0.46897973892E+02  0.16667738611E+03  0.18095866218E+03  0.47000000000E+01 0. -1.
        -11    1    4    4    0    0  0.27965499866E+02 -0.35734795679E+02  0.25503126417E+02  0.52052418407E+02  0.00000000000E+00 0.  1.
         12    1    4    4    0    0 -0.26672335725E+02 -0.33719756224E+02  0.12537557526E+03  0.13254233408E+03  0.00000000000E+00 0. -1.
         -5    1    5    5    0  503  0.98487681505E+00 -0.36137931271E+02  0.86566029880E+02  0.93929162607E+02  0.47000000000E+01 0.  1.
         13    1    6    6    0    0 -0.19243813703E+02 -0.15926559277E+02 -0.98463609747E+01  0.26850148616E+02  0.00000000000E+00 0. -1.
        -14    1    6    6    0    0 -0.35409568980E+02  0.74621068560E+02  0.33822232408E+02  0.89252926302E+02  0.00000000000E+00 0.  1.
</event>
<event>
12    1  0.9017558E-003  0.1866748E+03  0.7818608E-02  0.1162015E+00
         21   -1    0    0  501  502  0.00000000000E+00  0.00000000000E+00  0.15029637331E+03  0.15029637331E+03  0.00000000000E+00 0.  1.
         21   -1    0    0  502  503 -0.00000000000E+00 -0.00000000000E+00 -0.28810378929E+03  0.28810378929E+03  0.00000000000E+00 0.  1.
          6    2    1    2  501    0  0.50491253523E+02 -0.51010531449E+02  0.30637097937E+02  0.18696223173E+03  0.16989644883E+03 0.  0.
         24    2    3    3    0    0 -0.24031852757E+02 -0.60123525128E+02  0.36981220240E+02  0.11146999431E+03  0.82858800136E+02 0.  0.
         -6    2    1    2    0  503 -0.50491253523E+02  0.51010531449E+02 -0.16844451392E+03  0.25143793086E+03  0.17232538352E+03 0.  0.
        -24    2    5    5    0    0  0.37954716458E+02  0.11668087232E+02 -0.74002596199E+02  0.11611652330E+03  0.80187018756E+02 0.  0.
          5    1    3    3  501    0  0.74523106281E+02  0.91129936788E+01 -0.63441223031E+01  0.75492237424E+02  0.47000000000E+01 0. -1.
        -11    1    4    4    0    0  0.13924518386E+02 -0.58999387215E+02  0.32968023262E+01  0.60709874070E+02  0.00000000000E+00 0.  1.
         12    1    4    4    0    0 -0.37956371144E+02 -0.11241379135E+01  0.33684417914E+02  0.50760120239E+02  0.00000000000E+00 0. -1.
         -5    1    5    5    0  503 -0.88445969982E+02  0.39342444217E+02 -0.94441917718E+02  0.13532140756E+03  0.47000000000E+01 0.  1.
         13    1    6    6    0    0  0.11466538299E+02  0.10201774210E+02  0.16068092439E+02  0.22220290102E+02  0.00000000000E+00 0. -1.
        -14    1    6    6    0    0  0.26488178160E+02  0.14663130218E+01 -0.90070688638E+02  0.93896233193E+02  0.00000000000E+00 0.  1.
</event>
<event>
12    1  0.9017558E-003  0.2073422E+03  0.7818608E-02  0.1143951E+00
         21   -1    0    0  501  502  0.00000000000E+00  0.00000000000E+00  0.13110210984E+04  0.13110210984E+04  0.00000000000E+00 0.  1.
         21   -1    0    0  502  503 -0.00000000000E+00 -0.00000000000E+00 -0.33143114166E+02  0.33143114166E+02  0.00000000000E+00 0. -1.
          6    2    1    2  501    0  0.10880772544E+03  0.39545020606E+02  0.54985345885E+03  0.58718964904E+03  0.17044039413E+03 0.  0.
         24    2    3    3    0    0  0.45726217834E+02  0.87720003414E+02  0.34660699631E+03  0.36894364081E+03  0.78723022090E+02 0.  0.
         -6    2    1    2    0  503 -0.10880772544E+03 -0.39545020606E+02  0.72802452540E+03  0.75697456355E+03  0.17201119297E+03 0.  0.
        -24    2    5    5    0    0 -0.64000508449E+02  0.29356800791E+02  0.55050607782E+03  0.56129616179E+03  0.83896082644E+02 0.  0.
          5    1    3    3  501    0  0.63081507605E+02 -0.48174982808E+02  0.20324646255E+03  0.21824600823E+03  0.47000000000E+01 0. -1.
        -11    1    4    4    0    0  0.48455515983E+00  0.17941319918E+02  0.19667763413E+03  0.19749485442E+03  0.00000000000E+00 0.  1.
         12    1    4    4    0    0  0.45241662674E+02  0.69778683496E+02  0.14992936218E+03  0.17144878639E+03  0.00000000000E+00 0. -1.
         -5    1    5    5    0  503 -0.44807216990E+02 -0.68901821397E+02  0.17751844758E+03  0.19567840176E+03  0.47000000000E+01 0.  1.
         11    1    6    6    0    0 -0.91045027875E+01  0.30098840068E+02  0.60127326893E+02  0.67853721960E+02  0.00000000000E+00 0. -1.
        -12    1    6    6    0    0 -0.54896005661E+02 -0.74203927707E+00  0.49037875093E+03  0.49344243983E+03  0.00000000000E+00 0.  1.
</event>
<event>
12    1  0.9017558E-003  0.2023244E+03  0.7818608E-02  0.1148173E+00
         21   -1    0    0  503  502  0.00000000000E+00  0.00000000000E+00  0.38510154871E+02  0.38510154871E+02  0.00000000000E+00 0.  1.
         21   -1    0    0  501  503 -0.00000000000E+00 -0.00000000000E+00 -0.12681895350E+04  0.12681895350E+04  0.00000000000E+00 0.  1.
          6    2    1    2  501    0 -0.83954978743E+02  0.61352696508E+02 -0.88140043705E+03  0.90391763672E+03  0.17142861991E+03 0.  0.
         24    2    3    3    0    0 -0.77920986298E+02  0.10432599570E+03 -0.59788241569E+03  0.61705935822E+03  0.79644680269E+02 0.  0.
         -6    2    1    2    0  502  0.83954978743E+02 -0.61352696508E+02 -0.34827894310E+03  0.40278205317E+03  0.17355854437E+03 0.  0.
        -24    2    5    5    0    0  0.11339005899E+03 -0.84327861911E+02 -0.28850874086E+03  0.33215026676E+03  0.84368313892E+02 0.  0.
          5    1    3    3  501    0 -0.60339924451E+01 -0.42973299191E+02 -0.28351802136E+03  0.28685827850E+03  0.47000000000E+01 0. -1.
        -13    1    4    4    0    0 -0.74592677505E+02  0.45770289727E+02 -0.44037211210E+03  0.44898394634E+03  0.00000000000E+00 0.  1.
         14    1    4    4    0    0 -0.33283087931E+01  0.58555705973E+02 -0.15751030359E+03  0.16807541188E+03  0.00000000000E+00 0. -1.
         -5    1    5    5    0  502 -0.29435080247E+02  0.22975165402E+02 -0.59770202246E+02  0.70631786406E+02  0.47000000000E+01 0.  1.
         11    1    6    6    0    0  0.20438142774E+02 -0.13713426830E+02 -0.14541044775E+03  0.14747872413E+03  0.00000000000E+00 0. -1.
        -12    1    6    6    0    0  0.92951916216E+02 -0.70614435081E+02 -0.14309829311E+03  0.18467154264E+03  0.00000000000E+00 0.  1.
</event>
<event>
12    1  0.9017558E-003  0.2354543E+03  0.7818608E-02  0.1123273E+00
         21   -1    0    0  503  502  0.00000000000E+00  0.00000000000E+00  0.76392732226E+03  0.76392732226E+03  0.00000000000E+00 0.  1.
         21   -1    0    0  501  503 -0.00000000000E+00 -0.00000000000E+00 -0.72235919597E+02  0.72235919597E+02  0.00000000000E+00 0.  1.
          6    2    1    2  501    0 -0.96942295014E+02  0.12526699860E+03  0.31269445727E+03  0.38998232269E+03  0.17093495518E+03 0.  0.
         24    2    3    3    0    0  0.50343268527E+01  0.14147034974E+02  0.12568416778E+03  0.14968705411E+03  0.79901320980E+02 0.  0.
         -6    2    1    2    0  502  0.96942295014E+02 -0.12526699860E+03  0.37899694539E+03  0.44618091917E+03  0.17420992656E+03 0.  0.
        -24    2    5    5    0    0  0.11036526354E+03 -0.65584414459E+02  0.16530247514E+03  0.22385322510E+03  0.79394907162E+02 0.  0.
          5    1    3    3  501    0 -0.10197662187E+03  0.11111996362E+03  0.18701028949E+03  0.24029526857E+03  0.47000000000E+01 0. -1.
        -13    1    4    4    0    0 -0.42824084589E+01  0.36132479473E+02  0.20368869879E+02  0.41698752443E+02  0.00000000000E+00 0.  1.
         14    1    4    4    0    0  0.93167353116E+01 -0.21985444500E+02  0.10531529790E+03  0.10798830167E+03  0.00000000000E+00 0. -1.
         -5    1    5    5    0  502 -0.13422968524E+02 -0.59682584140E+02  0.21369447025E+03  0.22232769407E+03  0.47000000000E+01 0.  1.
         11    1    6    6    0    0  0.52058276501E+00  0.66615821509E+01 -0.52574684501E+01  0.85022736766E+01  0.00000000000E+00 0. -1.
        -12    1    6    6    0    0  0.10984468077E+03 -0.72245996610E+02  0.17055994359E+03  0.21535095142E+03  0.00000000000E+00 0.  1.
</event>
<event>
12    1  0.9017558E-003  0.1768588E+03  0.7818608E-02  0.1171815E+00
         21   -1    0    0  501  502  0.00000000000E+00  0.00000000000E+00  0.77523265072E+03  0.77523265072E+03  0.00000000000E+00 0.  1.
         21   -1    0    0  502  503 -0.00000000000E+00 -0.00000000000E+00 -0.52712427906E+02  0.52712427906E+02  0.00000000000E+00 0.  1.
          6    2    1    2  501    0  0.11252112612E+02 -0.11090236903E+02  0.56561985620E+03  0.59152010409E+03  0.17239666014E+03 0.  0.
         24    2    3    3    0    0  0.64469634270E+01  0.60788163088E+01  0.56808602490E+03  0.57291801187E+03  0.73721104849E+02 0.  0.
         -6    2    1    2    0  503 -0.11252112612E+02  0.11090236903E+02  0.15690036661E+03  0.23642497453E+03  0.17615175317E+03 0.  0.
        -24    2    5    5    0    0 -0.27121159010E+02  0.48676504623E+02  0.31966710620E+02  0.10491428084E+03  0.82946828561E+02 0.  0.
          5    1    3    3  501    0  0.48051491855E+01 -0.17169053211E+02 -0.24661686993E+01  0.18602092219E+02  0.47000000000E+01 0. -1.
        -11    1    4    4    0    0 -0.22499528282E+02  0.25544942833E+01  0.47108050749E+03  0.47162442553E+03  0.00000000000E+00 0.  1.
         12    1    4    4    0    0  0.28946491709E+02  0.35243220256E+01  0.97005517406E+02  0.10129358635E+03  0.00000000000E+00 0. -1.
         -5    1    5    5    0  503  0.15869046398E+02 -0.37586267720E+02  0.12493365599E+03  0.13151069369E+03  0.47000000000E+01 0.  1.
         13    1    6    6    0    0 -0.14690743401E+02  0.43769908740E+02  0.58905412839E+02  0.74842972379E+02  0.00000000000E+00 0. -1.
        -14    1    6    6    0    0 -0.12430415609E+02  0.49065958827E+01 -0.26938702220E+02  0.30071308462E+02  0.00000000000E+00 0.  1.
</event>
<event>
12    1  0.9017558E-003  0.1979640E+03  0.7818608E-02  0.1151537E+00
         21   -1    0    0  503  502  0.00000000000E+00  0.00000000000E+00  0.14473614599E+03  0.14473614599E+03  0.00000000000E+00 0.  1.
         21   -1    0    0  501  503 -0.00000000000E+00 -0.00000000000E+00 -0.30982699740E+03  0.30982699740E+03  0.00000000000E+00 0.  1.
          6    2    1    2  501    0  0.80195928062E+02 -0.56497099366E+02 -0.16364111594E+03  0.25659382531E+03  0.17157700092E+03 0.  0.
         24    2    3    3    0    0  0.93672493530E+02 -0.66884738190E+02 -0.18411434774E+03  0.22956117694E+03  0.74512661103E+02 0.  0.
         -6    2    1    2    0  502 -0.80195928062E+02  0.56497099366E+02 -0.14497354763E+01  0.19796931808E+03  0.17194894607E+03 0.  0.
        -24    2    5    5    0    0 -0.49454258816E+02  0.10469028140E+03  0.28928381559E+01  0.14044905236E+03  0.79446768739E+02 0.  0.
          5    1    3    3  501    0 -0.13476565468E+02  0.10387638825E+02  0.20473231808E+02  0.27032648369E+02  0.47000000000E+01 0. -1.
        -11    1    4    4    0    0  0.44097288712E+02  0.34600505291E+01 -0.31321552557E+02  0.54199469333E+02  0.00000000000E+00 0.  1.
         12    1    4    4    0    0  0.49575204818E+02 -0.70344788719E+02 -0.15279279519E+03  0.17536170760E+03  0.00000000000E+00 0. -1.
         -5    1    5    5    0  502 -0.30741669246E+02 -0.48193182033E+02 -0.43425736322E+01  0.57520265718E+02  0.47000000000E+01 0.  1.
         11    1    6    6    0    0 -0.32812626410E+02  0.10549756778E+03 -0.19854732272E+02  0.11225246390E+03  0.00000000000E+00 0. -1.
        -12    1    6    6    0    0 -0.16641632406E+02 -0.80728637930E+00  0.22747570428E+02  0.28196588460E+02  0.00000000000E+00 0.  1.
</event>
<event>
12    1  0.9017558E-003  0.1919193E+03  0.7818608E-02  0.1157433E+00
         21   -1    0    0  503  502  0.00000000000E+00  0.00000000000E+00  0.12761305364E+03  0.12761305364E+03  0.00000000000E+00 0.  1.
         21   -1    0    0  501  503 -0.00000000000E+00 -0.00000000000E+00 -0.37002684787E+03  0.37002684787E+03  0.00000000000E+00 0.  1.
          6    2    1    2  501    0 -0.78093890337E+02 -0.31184252859E+01 -0.24191840144E+03  0.30880017164E+03  0.17528449094E+03 0.  0.
         24    2    3    3    0    0 -0.44536077213E+02  0.66741869042E+02 -0.16092640761E+03  0.19660221885E+03  0.79480717996E+02 0.  0.
         -6    2    1    2    0  502  0.78093890337E+02  0.31184252859E+01 -0.49539279000E+00  0.18883972987E+03  0.17190642187E+03 0.  0.
        -24    2    5    5    0    0  0.67316231905E+02  0.68768055405E+02  0.52446920210E+01  0.12189893192E+03  0.74641290767E+02 0.  0.
          5    1    3    3  501    0 -0.33557813123E+02 -0.69860294328E+02 -0.80991993826E+02  0.11219795279E+03  0.47000000000E+01 0. -1.
        -11    1    4    4    0    0 -0.90427072274E+01 -0.15738846073E+02 -0.93320965392E+01  0.20410043007E+02  0.00000000000E+00 0.  1.
         12    1    4    4    0    0 -0.35493369986E+02  0.82480715115E+02 -0.15159431108E+03  0.17619217585E+03  0.00000000000E+00 0. -1.
         -5    1    5    5    0  502  0.10777658432E+02 -0.65649630119E+02 -0.57400848110E+01  0.66940797946E+02  0.47000000000E+01 0.  1.
         13    1    6    6    0    0 -0.56746462740E+01  0.12873833778E+02 -0.21910369677E+02  0.26038462049E+02  0.00000000000E+00 0. -1.
        -14    1    6    6    0    0  0.72990878179E+02  0.55894221627E+02  0.27155061698E+02  0.95860469874E+02  0.00000000000E+00 0.  1.
</event>
<event>
12    1  0.9017558E-003  0.3867375E+03  0.7818608E-02  0.1048489E+00
         21   -1    0    0  501  502  0.00000000000E+00  0.00000000000E+00  0.44225789004E+03  0.44225789004E+03  0.00000000000E+00 0. -1.
         21   -1    0    0  502  503 -0.00000000000E+00 -0.00000000000E+00 -0.33891535410E+03  0.33891535410E+03  0.00000000000E+00 0. -1.
          6    2    1    2  501    0  0.11387655108E+03 -0.32684516651E+03  0.71862725172E+02  0.39335752942E+03  0.17254061239E+03 0.  0.
         24    2    3    3    0    0  0.64297434131E+01 -0.91112869265E+02 -0.11160842970E+02  0.12127383768E+03  0.78992928446E+02 0.  0.
         -6    2    1    2    0  503 -0.11387655108E+03  0.32684516651E+03  0.31479810763E+02  0.38781571473E+03  0.17208840272E+03 0.  0.
        -24    2    5    5    0    0 -0.93384398529E+02  0.17158334344E+03 -0.39981309446E+02  0.21560960647E+03  0.82021385407E+02 0.  0.
          5    1    3    3  501    0  0.10744680766E+03 -0.23573229724E+03  0.83023568142E+02  0.27208369173E+03  0.47000000000E+01 0. -1.
        -11    1    4    4    0    0  0.29518277342E+02 -0.45959484643E+01 -0.10686693546E+02  0.31727856191E+02  0.00000000000E+00 0.  1.
         12    1    4    4    0    0 -0.23088533928E+02 -0.86516920801E+02 -0.47414942432E+00  0.89545981493E+02  0.00000000000E+00 0. -1.
         -5    1    5    5    0  503 -0.20492152548E+02  0.15526182307E+03  0.71461120209E+02  0.17220610825E+03  0.47000000000E+01 0.  1.
         13    1    6    6    0    0 -0.51379032761E+02  0.11967675046E+03 -0.63395976596E+02  0.14484950623E+03  0.00000000000E+00 0. -1.
        -14    1    6    6    0    0 -0.42005365768E+02  0.51906592982E+02  0.23414667149E+02  0.70760100240E+02  0.00000000000E+00 0.  1.
</event>
<event>
12    1  0.9017558E-003  0.2113018E+03  0.7818608E-02  0.1141811E+00
         21   -1    0    0  503  502  0.00000000000E+00  0.00000000000E+00  0.33916900420E+02  0.33916900420E+02  0.00000000000E+00 0.  1.
         21   -1    0    0  501  503 -0.00000000000E+00 -0.00000000000E+00 -0.17883698691E+04  0.17883698691E+04  0.00000000000E+00 0. -1.
          6    2    1    2  501    0  0.11301735987E+03  0.48805417818E+02 -0.13739927137E+04  0.13901454640E+04  0.17173683746E+03 0.  0.
         24    2    3    3    0    0  0.11026965407E+02  0.45879881773E+02 -0.93417084450E+03  0.93861920125E+03  0.78129896522E+02 0.  0.
         -6    2    1    2    0  502 -0.11301735987E+03 -0.48805417818E+02 -0.38046025497E+03  0.43214130551E+03  0.16383287178E+03 0.  0.
        -24    2    5    5    0    0 -0.41073757714E+02  0.12633395321E+02 -0.27938889998E+03  0.29362012139E+03  0.79422679381E+02 0.  0.
          5    1    3    3  501    0  0.10199039447E+03  0.29255360450E+01 -0.43982186923E+03  0.45152626278E+03  0.47000000000E+01 0. -1.
        -11    1    4    4    0    0 -0.50224087861E+01 -0.18040510847E+02 -0.39368432501E+03  0.39412946145E+03  0.00000000000E+00 0.  1.
         12    1    4    4    0    0  0.16049374193E+02  0.63920392620E+02 -0.54048651948E+03  0.54448973980E+03  0.00000000000E+00 0. -1.
         -5    1    5    5    0  502 -0.71943602159E+02 -0.61438813139E+02 -0.10107135499E+03  0.13852118412E+03  0.47000000000E+01 0.  1.
         11    1    6    6    0    0  0.20706828688E+02 -0.45304874828E+01 -0.11928406389E+03  0.12115273819E+03  0.00000000000E+00 0. -1.
        -12    1    6    6    0    0 -0.61780586402E+02  0.17163882804E+02 -0.16010483609E+03  0.17246738320E+03  0.00000000000E+00 0.  1.
</event>
<event>
12    1  0.9017558E-003  0.3133271E+03  0.7818608E-02  0.1079069E+00
         21   -1    0    0  501  502  0.00000000000E+00  0.00000000000E+00  0.24676919198E+04  0.24676919198E+04  0.00000000000E+00 0.  1.
         21   -1    0    0  502  503 -0.00000000000E+00 -0.00000000000E+00 -0.55970156086E+02  0.55970156086E+02  0.00000000000E+00 0. -1.
          6    2    1    2  501    0  0.12443770021E+03 -0.22921437341E+03  0.18877431891E+04  0.19131480307E+04  0.16892918378E+03 0.  0.
         24    2    3    3    0    0  0.10938519379E+03 -0.74068397692E+02  0.93510781200E+03  0.94783300261E+03  0.80681674633E+02 0.  0.
         -6    2    1    2    0  503 -0.12443770021E+03  0.22921437341E+03  0.52397857462E+03  0.61051404520E+03  0.17363721523E+03 0.  0.
        -24    2    5    5    0    0 -0.44575303807E+02  0.34914715168E+02  0.20174537442E+03  0.22582366988E+03  0.84197023307E+02 0.  0.
          5    1    3    3  501    0  0.15052506417E+02 -0.15514597572E+03  0.95263537709E+03  0.96531502806E+03  0.47000000000E+01 0. -1.
        -11    1    4    4    0    0  0.59970909081E+02 -0.83565427490E+02  0.56033657248E+03  0.56969883716E+03  0.00000000000E+00 0.  1.
         12    1    4    4    0    0  0.49414284712E+02  0.94970297971E+01  0.37477123952E+03  0.37813416545E+03  0.00000000000E+00 0. -1.
         -5    1    5    5    0  503 -0.79862396402E+02  0.19429965824E+03  0.32223320020E+03  0.38469037532E+03  0.47000000000E+01 0.  1.
         11    1    6    6    0    0 -0.61200011522E+02  0.40171164805E+02  0.10801441321E+03  0.13048477825E+03  0.00000000000E+00 0. -1.
        -12    1    6    6    0    0  0.16624707715E+02 -0.52564496361E+01  0.93730961206E+02  0.95338891634E+02  0.00000000000E+00 0.  1.
</event>
<event>
12    1  0.9017558E-003  0.2394363E+03  0.7818608E-02  0.1120207E+00
         21   -1    0    0  501  502  0.00000000000E+00  0.00000000000E+00  0.37399684139E+03  0.37399684139E+03  0.00000000000E+00 0.  1.
         21   -1    0    0  502  503 -0.00000000000E+00 -0.00000000000E+00 -0.16384768774E+03  0.16384768774E+03  0.00000000000E+00 0. -1.
          6    2    1    2  501    0  0.11735372117E+03 -0.11821831267E+03  0.17386217098E+03  0.29590167479E+03  0.17199500378E+03 0.  0.
         24    2    3    3    0    0  0.25165932139E+02 -0.48227896776E+02  0.14770027534E+03  0.17714233181E+03  0.81269798913E+02 0.  0.
         -6    2    1    2    0  503 -0.11735372117E+03  0.11821831267E+03  0.36286982671E+02  0.24194285434E+03  0.17167450111E+03 0.  0.
        -24    2    5    5    0    0 -0.22984748274E+02  0.10232635961E+03  0.53179943177E+02  0.14465195378E+03  0.84244280823E+02 0.  0.
          5    1    3    3  501    0  0.92187789029E+02 -0.69990415894E+02  0.26161895638E+02  0.11875934299E+03  0.47000000000E+01 0. -1.
        -13    1    4    4    0    0  0.43466265569E+02 -0.43098202233E+02  0.54289269186E+02  0.81817455516E+02  0.00000000000E+00 0.  1.
         14    1    4    4    0    0 -0.18300333430E+02 -0.51296945425E+01  0.93411006153E+02  0.95324876293E+02  0.00000000000E+00 0. -1.
         -5    1    5    5    0  503 -0.94368972894E+02  0.15891953061E+02 -0.16892960506E+02  0.97290900560E+02  0.47000000000E+01 0.  1.
         11    1    6    6    0    0 -0.20078188371E+02  0.11049296177E+03  0.65181076712E+02  0.12984760687E+03  0.00000000000E+00 0. -1.
        -12    1    6    6    0    0 -0.29065599027E+01 -0.81666021575E+01 -0.12001133535E+02  0.14804346909E+02  0.00000000000E+00 0.  1.
</event>
<event>
12    1  0.9017558E-003  0.2141786E+03  0.7818608E-02  0.1138339E+00
         21   -1    0    0  501  502  0.00000000000E+00  0.00000000000E+00  0.87947048018E+03  0.87947048018E+03  0.00000000000E+00 0.  1.
         21   -1    0    0  502  503 -0.00000000000E+00 -0.00000000000E+00 -0.53618970393E+02  0.53618970393E+02  0.00000000000E+00 0. -1.
          6    2    1    2  501    0  0.20227207470E+02 -0.12595729672E+03  0.49103614834E+03  0.53563025758E+03  0.17178152793E+03 0.  0.
         24    2    3    3    0    0  0.56896817017E+02 -0.12057492809E+03  0.30489757407E+03  0.34577955574E+03  0.93943650256E+02 0.  0.
         -6    2    1    2    0  503 -0.20227207470E+02  0.12595729672E+03  0.33481536144E+03  0.39745919299E+03  0.17204099313E+03 0.  0.
        -24    2    5    5    0    0  0.44426091010E+02  0.11174069162E+03  0.26022591766E+03  0.29762014257E+03  0.80003508145E+02 0.  0.
          5    1    3    3  501    0 -0.36669609548E+02 -0.53823686283E+01  0.18613857427E+03  0.18985070184E+03  0.47000000000E+01 0. -1.
        -13    1    4    4    0    0  0.34814967897E+02 -0.44399089947E+02  0.39732985466E+02  0.69007762692E+02  0.00000000000E+00 0.  1.
         14    1    4    4    0    0  0.22081849121E+02 -0.76175838145E+02  0.26516458860E+03  0.27677179305E+03  0.00000000000E+00 0. -1.
         -5    1    5    5    0  503 -0.64653298480E+02  0.14216605096E+02  0.74589443775E+02  0.99839050413E+02  0.47000000000E+01 0.  1.
         13    1    6    6    0    0 -0.78415134214E+00  0.79694902661E+02  0.20240905854E+03  0.21753463950E+03  0.00000000000E+00 0. -1.
        -14    1    6    6    0    0  0.45210242352E+02  0.32045788963E+02  0.57816859123E+02  0.80085503074E+02  0.00000000000E+00 0.  1.
</event>
<event>
12    1  0.9017558E-003  0.2106571E+03  0.7818608E-02  0.1141061E+00
         21   -1    0    0  503  502  0.00000000000E+00  0.00000000000E+00  0.58784937113E+03  0.58784937113E+03  0.00000000000E+00 0. -1.
         21   -1    0    0  501  503 -0.00000000000E+00 -0.00000000000E+00 -0.26254958645E+03  0.26254958645E+03  0.00000000000E+00 0. -1.
          6    2    1    2  501    0  0.25266780421E+02 -0.11796463755E+03 -0.19628739606E+03  0.28787818637E+03  0.17260081817E+03 0.  0.
         24    2    3    3    0    0 -0.15142136865E+02 -0.10259485950E+02 -0.13337207042E+03  0.15667716321E+03  0.80156615103E+02 0.  0.
         -6    2    1    2    0  502 -0.25266780421E+02  0.11796463755E+03  0.52158718074E+03  0.56252077120E+03  0.17269153140E+03 0.  0.
        -24    2    5    5    0    0  0.82312406756E+00  0.43122093174E+02  0.10744207687E+03  0.14083327243E+03  0.80187394814E+02 0.  0.
          5    1    3    3  501    0  0.40408917286E+02 -0.10770515160E+03 -0.62915325640E+02  0.13120102316E+03  0.47000000000E+01 0. -1.
        -11    1    4    4    0    0  0.17170285034E+01 -0.27673562332E+02 -0.78221764502E+01  0.28809038225E+02  0.00000000000E+00 0.  1.
         12    1    4    4    0    0 -0.16859165369E+02  0.17414076382E+02 -0.12554989397E+03  0.12786812499E+03  0.00000000000E+00 0. -1.
         -5    1    5    5    0  502 -0.26089904488E+02  0.74842544379E+02  0.41414510387E+03  0.42168749878E+03  0.47000000000E+01 0.  1.
         11    1    6    6    0    0  0.18797086252E+02  0.32637792683E+02  0.11315205524E+03  0.11925579050E+03  0.00000000000E+00 0. -1.
        -12    1    6    6    0    0 -0.17973962185E+02  0.10484300491E+02 -0.57099783671E+01  0.21577481928E+02  0.00000000000E+00 0.  1.
</event>
<event>
12    1  0.9017558E-003  0.1786658E+03  0.7818608E-02  0.1169221E+00
         21   -1    0    0  503  502  0.00000000000E+00  0.00000000000E+00  0.52359829393E+03  0.52359829393E+03  0.00000000000E+00 0. -1.
         21   -1    0    0  501  503 -0.00000000000E+00 -0.00000000000E+00 -0.60863973015E+02  0.60863973015E+02  0.00000000000E+00 0. -1.
          6    2    1    2  501    0  0.24471272774E+02 -0.42139321740E+02  0.22201768414E+03  0.28497949650E+03  0.17189210491E+03 0.  0.
         24    2    3    3    0    0 -0.26657275344E+02  0.79152317691E+01  0.19414438241E+03  0.20804707350E+03  0.69413848392E+02 0.  0.
         -6    2    1    2    0  502 -0.24471272774E+02  0.42139321740E+02  0.24071663677E+03  0.29948277044E+03  0.17137930138E+03 0.  0.
        -24    2    5    5    0    0  0.39381958145E+02 -0.46670745101E+01  0.17639026295E+03  0.19736496495E+03  0.79162392039E+02 0.  0.
          5    1    3    3  501    0  0.51128548119E+02 -0.50054553509E+02  0.27873301729E+02  0.76932423002E+02  0.47000000000E+01 0. -1.
        -11    1    4    4    0    0 -0.40874948352E+02 -0.18040528285E+02  0.12831863249E+03  0.13587455063E+03  0.00000000000E+00 0.  1.
         12    1    4    4    0    0  0.14217673008E+02  0.25955760054E+02  0.65825749918E+02  0.72172522874E+02  0.00000000000E+00 0. -1.
         -5    1    5    5    0  502 -0.63853230920E+02  0.46806396250E+02  0.64326373819E+02  0.10211780549E+03  0.47000000000E+01 0.  1.
         13    1    6    6    0    0  0.79303437287E+01 -0.36406819506E+01 -0.70667054261E+01  0.11228679455E+02  0.00000000000E+00 0. -1.
        -14    1    6    6    0    0  0.31451614416E+02 -0.10263925595E+01  0.18345696838E+03  0.18613628550E+03  0.00000000000E+00 0.  1.
</event>
<event>
12    1  0.9017558E-003  0.2232420E+03  0.7818608E-02  0.1131608E+00
         21   -1    0    0  503  502  0.00000000000E+00  0.00000000000E+00  0.59184355895E+03  0.59184355895E+03  0.00000000000E+00 0. -1.
         21   -1    0    0  501  503 -0.00000000000E+00 -0.00000000000E+00 -0.89534559239E+02  0.89534559239E+02  0.00000000000E+00 0.  1.
          6    2    1    2  501    0  0.95901070531E+02  0.10495475419E+03  0.16649157917E+03  0.27848959012E+03  0.17211766358E+03 0.  0.
         24    2    3    3    0    0 -0.63891100928E+01  0.11793354524E+02  0.35508175099E+02  0.87908715997E+02  0.79291915797E+02 0.  0.
         -6    2    1    2    0  502 -0.95901070531E+02 -0.10495475419E+03  0.33581742054E+03  0.40288852806E+03  0.17126970062E+03 0.  0.
        -24    2    5    5    0    0 -0.12773351950E+03 -0.82228027926E+02  0.31284438597E+03  0.35728524735E+03  0.81876965998E+02 0.  0.
          5    1    3    3  501    0  0.10229018062E+03  0.93161399669E+02  0.13098340407E+03  0.19058087412E+03  0.47000000000E+01 0. -1.
        -11    1    4    4    0    0  0.42940779302E+01  0.10779274629E+02 -0.24415173531E+02  0.27032065503E+02  0.00000000000E+00 0.  1.
         12    1    4    4    0    0 -0.10683188023E+02  0.10140798942E+01  0.59923348630E+02  0.60876650494E+02  0.00000000000E+00 0. -1.
         -5    1    5    5    0  502  0.31832448973E+02 -0.22726726267E+02  0.22973034570E+02  0.45603280713E+02  0.47000000000E+01 0.  1.
         11    1    6    6    0    0 -0.14668315361E+02 -0.27565894685E+02  0.14115348474E+03  0.14456605507E+03  0.00000000000E+00 0. -1.
        -12    1    6    6    0    0 -0.11306520414E+03 -0.54662133241E+02  0.17169090123E+03  0.21271919228E+03  0.00000000000E+00 0.  1.
</event>
<event>
12    1  0.9017558E-003  0.1830568E+03  0.7818608E-02  0.1166087E+00
         21   -1    0    0  503  502  0.00000000000E+00  0.00000000000E+00  0.38184628788E+03  0.38184628788E+03  0.00000000000E+00 0. -1.
         21   -1    0    0  501  503 -0.00000000000E+00 -0.00000000000E+00 -0.86589123472E+02  0.86589123472E+02  0.00000000000E+00 0. -1.
          6    2    1    2  501    0 -0.48966373231E+02  0.38777086947E+02  0.12174403566E+03  0.21984400443E+03  0.17207093852E+03 0.  0.
         24    2    3    3    0    0 -0.98365901063E+02  0.32082194199E+02  0.72820335854E+02  0.14983862362E+03  0.80272623844E+02 0.  0.
         -6    2    1    2    0  502  0.48966373231E+02 -0.38777086947E+02  0.17351312875E+03  0.24859140693E+03  0.16670187032E+03 0.  0.
        -24    2    5    5    0    0  0.42054696685E+02  0.10435851544E+02  0.28955319138E+02  0.95657647057E+02  0.80215150834E+02 0.  0.
          5    1    3    3  501    0  0.49399527832E+02  0.66948927484E+01  0.48923699805E+02  0.70005380805E+02  0.47000000000E+01 0. -1.
        -11    1    4    4    0    0 -0.69729731799E+02  0.64929451459E+00  0.80635073563E+02  0.10660521642E+03  0.00000000000E+00 0.  1.
         12    1    4    4    0    0 -0.28636169264E+02  0.31432899684E+02 -0.78147377084E+01  0.43233407200E+02  0.00000000000E+00 0. -1.
         -5    1    5    5    0  502  0.69116765459E+01 -0.49212938491E+02  0.14455780961E+03  0.15293375987E+03  0.47000000000E+01 0.  1.
         11    1    6    6    0    0  0.29138548245E+02 -0.11014416751E+02  0.52656240190E+02  0.61180487095E+02  0.00000000000E+00 0. -1.
        -12    1    6    6    0    0  0.12916148440E+02  0.21450268294E+02 -0.23700921051E+02  0.34477159962E+02  0.00000000000E+00 0.  1.
</event>
<event>
12    1  0.9017558E-003  0.2287284E+03  0.7818608E-02  0.1127887E+00
         21   -1    0    0  501  502  0.00000000000E+00  0.00000000000E+00  0.47216510607E+03  0.47216510607E+03  0.00000000000E+00 0.  1.
         21   -1    0    0  502  503 -0.00000000000E+00 -0.00000000000E+00 -0.10995858662E+03  0.10995858662E+03  0.00000000000E+00 0. -1.
          6    2    1    2  501    0  0.11259906324E+03  0.97800810282E+02  0.17294936900E+03  0.28675453283E+03  0.17341606132E+03 0.  0.
         24    2    3    3    0    0  0.76939634018E+02  0.15538798195E+02  0.16175953970E+03  0.19627837130E+03  0.78726671620E+02 0.  0.
         -6    2    1    2    0  503 -0.11259906324E+03 -0.97800810282E+02  0.18925715044E+03  0.29536915986E+03  0.17082483446E+03 0.  0.
        -24    2    5    5    0    0 -0.12483221500E+03 -0.56844896314E+02  0.19744535313E+03  0.25159504018E+03  0.74168542053E+02 0.  0.
          5    1    3    3  501    0  0.35659429221E+02  0.82262012087E+02  0.11189829303E+02  0.90476161528E+02  0.47000000000E+01 0. -1.
        -13    1    4    4    0    0 -0.99159687934E+01 -0.28237341451E+01  0.61524330643E+02  0.62382234432E+02  0.00000000000E+00 0.  1.
         14    1    4    4    0    0  0.86855602812E+02  0.18362532340E+02  0.10023520905E+03  0.13389613687E+03  0.00000000000E+00 0. -1.
         -5    1    5    5    0  503  0.12233151757E+02 -0.40955913968E+02 -0.81882026895E+01  0.43774119684E+02  0.47000000000E+01 0.  1.
         13    1    6    6    0    0 -0.66093832213E+02 -0.69292323390E+02  0.11627866006E+03  0.15063381932E+03  0.00000000000E+00 0. -1.
        -14    1    6    6    0    0 -0.58738382783E+02  0.12447427076E+02  0.81166693071E+02  0.10096122086E+03  0.00000000000E+00 0.  1.
</event>
<event>
12    1  0.9017558E-003  0.2136297E+03  0.7818608E-02  0.1139943E+00
         21   -1    0    0  503  502  0.00000000000E+00  0.00000000000E+00  0.26575832987E+03  0.26575832987E+03  0.00000000000E+00 0. -1.
         21   -1    0    0  501  503 -0.00000000000E+00 -0.00000000000E+00 -0.17000004746E+03  0.17000004746E+03  0.00000000000E+00 0. -1.
          6    2    1    2  501    0  0.12160025922E+03 -0.24391041872E+02  0.78555218762E+02  0.22761498078E+03  0.17394283863E+03 0.  0.
         24    2    3    3    0    0  0.62215948750E+02 -0.12219505689E+02 -0.27563910734E+02  0.10531206884E+03  0.79440053309E+02 0.  0.
         -6    2    1    2    0  502 -0.12160025922E+03  0.24391041872E+02  0.17203063644E+02  0.20814339656E+03  0.16627141115E+03 0.  0.
        -24    2    5    5    0    0 -0.43055061348E+02 -0.40136034985E+02 -0.17802282011E+02  0.10053040486E+03  0.79528620290E+02 0.  0.
          5    1    3    3  501    0  0.59384310474E+02 -0.12171536183E+02  0.10611912950E+03  0.12230291194E+03  0.47000000000E+01 0. -1.
        -11    1    4    4    0    0  0.60410834979E+02 -0.20754680848E+02  0.11830747510E+02  0.64963007524E+02  0.00000000000E+00 0.  1.
         12    1    4    4    0    0  0.18051137714E+01  0.85351751591E+01 -0.39394658244E+02  0.40349061313E+02  0.00000000000E+00 0. -1.
         -5    1    5    5    0  502 -0.78545197876E+02  0.64527076857E+02  0.35005345655E+02  0.10761299169E+03  0.47000000000E+01 0.  1.
         13    1    6    6    0    0 -0.57891688535E+02 -0.40917983653E+02 -0.33937374606E+02  0.78596910772E+02  0.00000000000E+00 0. -1.
        -14    1    6    6    0    0  0.14836627187E+02  0.78194866830E+00  0.16135092595E+02  0.21933494091E+02  0.00000000000E+00 0.  1.
</event>
<event>
12    1  0.9017558E-003  0.3603652E+03  0.7818608E-02  0.1058702E+00
         21   -1    0    0  503  502  0.00000000000E+00  0.00000000000E+00  0.50588187529E+03  0.50588187529E+03  0.00000000000E+00 0. -1.
         21   -1    0    0  501  503 -0.00000000000E+00 -0.00000000000E+00 -0.25780824617E+03  0.25780824617E+03  0.00000000000E+00 0.  1.
          6    2    1    2  501    0 -0.16028910141E+03 -0.26960893842E+03  0.82520170356E+02  0.36711601946E+03  0.17199714395E+03 0.  0.
         24    2    3    3    0    0 -0.18675535429E+03 -0.24076964618E+03  0.88922084808E+02  0.32717554091E+03  0.79303925036E+02 0.  0.
         -6    2    1    2    0  502  0.16028910141E+03  0.26960893842E+03  0.16555345876E+03  0.39657410199E+03  0.17743025379E+03 0.  0.
        -24    2    5    5    0    0  0.18238835785E+03  0.24332816077E+03  0.11289239803E+03  0.33353178505E+03  0.77618626651E+02 0.  0.
          5    1    3    3  501    0  0.26466252882E+02 -0.28839292233E+02 -0.64019144521E+01  0.39940478550E+02  0.47000000000E+01 0. -1.
        -13    1    4    4    0    0 -0.11942994342E+03 -0.15662908769E+03  0.17174330693E+02  0.19771479492E+03  0.00000000000E+00 0.  1.
         14    1    4    4    0    0 -0.67325410870E+02 -0.84140558495E+02  0.71747754115E+02  0.12946074599E+03  0.00000000000E+00 0. -1.
         -5    1    5    5    0  502 -0.22099256437E+02  0.26280777647E+02  0.52661060730E+02  0.63042316947E+02  0.47000000000E+01 0.  1.
         11    1    6    6    0    0  0.72078447767E+02  0.16028254427E+03  0.61087727655E+02  0.18605780581E+03  0.00000000000E+00 0. -1.
        -12    1    6    6    0    0  0.11030991008E+03  0.83045616495E+02  0.51804670373E+02  0.14747397924E+03  0.00000000000E+00 0.  1.
</event>
<event>
12    1  0.9017558E-003  0.1742914E+03  0.7818608E-02  0.1173701E+00
         21   -1    0    0  501  502  0.00000000000E+00  0.00000000000E+00  0.38836139141E+03  0.38836139141E+03  0.00000000000E+00 0. -1.
         21   -1    0    0  502  503 -0.00000000000E+00 -0.00000000000E+00 -0.86225144089E+02  0.86225144089E+02  0.00000000000E+00 0. -1.
          6    2    1    2  501    0  0.23735858448E+02 -0.10691561377E+01  0.77143788281E+02  0.19060077590E+03  0.17266429172E+03 0.  0.
         24    2    3    3    0    0 -0.51317926798E+02 -0.10888626637E+02  0.26606559655E+02  0.99465743355E+02  0.80208685836E+02 0.  0.
         -6    2    1    2    0  503 -0.23735858448E+02  0.10691561377E+01  0.22499245904E+03  0.28398575960E+03  0.17164431525E+03 0.  0.
        -24    2    5    5    0    0  0.47298713617E+02  0.81513669552E+01  0.17043442009E+03  0.19401499905E+03  0.79311507444E+02 0.  0.
          5    1    3    3  501    0  0.75053785246E+02  0.98194704996E+01  0.50537228626E+02  0.91135032550E+02  0.47000000000E+01 0. -1.
        -11    1    4    4    0    0 -0.34656242483E+02  0.12091025974E+02  0.50454287137E+02  0.62392973504E+02  0.00000000000E+00 0.  1.
         12    1    4    4    0    0 -0.16661684315E+02 -0.22979652611E+02 -0.23847727482E+02  0.37072769851E+02  0.00000000000E+00 0. -1.
         -5    1    5    5    0  503 -0.71034572065E+02 -0.70822108175E+01  0.54558038954E+02  0.89970760545E+02  0.47000000000E+01 0.  1.
         13    1    6    6    0    0  0.41179963099E+02  0.40782638973E+02  0.12459956012E+03  0.13741929772E+03  0.00000000000E+00 0. -1.
        -14    1    6    6    0    0  0.61187505181E+01 -0.32631272018E+02  0.45834859964E+02  0.56595701332E+02  0.00000000000E+00 0.  1.
</event>
<event>
12    1  0.9017558E-003  0.2442859E+03  0.7818608E-02  0.1117885E+00
         21   -1    0    0  501  502  0.00000000000E+00  0.00000000000E+00  0.45360958377E+02  0.45360958377E+02  0.00000000000E+00 0. -1.
         21   -1    0    0  502  503 -0.00000000000E+00 -0.00000000000E+00 -0.13155552706E+04  0.13155552706E+04  0.00000000000E+00 0.  1.
          6    2    1    2  501    0  0.16104027868E+03 -0.37118976362E+02 -0.73019792458E+03  0.76823443169E+03  0.17228854640E+03 0.  0.
         24    2    3    3    0    0  0.98933131019E+02  0.28441787014E+02 -0.28513987678E+03  0.31408218036E+03  0.82135053578E+02 0.  0.
         -6    2    1    2    0  503 -0.16104027868E+03  0.37118976362E+02 -0.53999638766E+03  0.59268179730E+03  0.17989948415E+03 0.  0.
        -24    2    5    5    0    0 -0.14559366844E+03  0.44194586790E+02 -0.25201707438E+03  0.30416344968E+03  0.76499153933E+02 0.  0.
          5    1    3    3  501    0  0.62107147660E+02 -0.65560763376E+02 -0.44505804780E+03  0.45415225134E+03  0.47000000000E+01 0. -1.
        -13    1    4    4    0    0 -0.42767704559E+01 -0.17748416444E+02 -0.32132354964E+02  0.36956532404E+02  0.00000000000E+00 0.  1.
         14    1    4    4    0    0  0.10320990148E+03  0.46190203458E+02 -0.25300752182E+03  0.27712564795E+03  0.00000000000E+00 0. -1.
         -5    1    5    5    0  503 -0.15446610234E+02 -0.70756104283E+01 -0.28797931329E+03  0.28851834762E+03  0.47000000000E+01 0.  1.
         11    1    6    6    0    0 -0.39095018270E+02 -0.16195036002E+02 -0.10266765724E+03  0.11104660052E+03  0.00000000000E+00 0. -1.
        -12    1    6    6    0    0 -0.10649865018E+03  0.60389622792E+02 -0.14934941714E+03  0.19311684916E+03  0.00000000000E+00 0.  1.
</event>
<event>
12    1  0.9017558E-003  0.2276847E+03  0.7818608E-02  0.1128722E+00
         21   -1    0    0  501  502  0.00000000000E+00  0.00000000000E+00  0.41238898103E+03  0.41238898103E+03  0.00000000000E+00 0. -1.
         21   -1    0    0  502  503 -0.00000000000E+00 -0.00000000000E+00 -0.16266181967E+03  0.16266181967E+03  0.00000000000E+00 0. -1.
          6    2    1    2  501    0  0.14001751350E+03  0.57144901439E+02  0.26492256271E+03  0.34931977779E+03  0.17020546136E+03 0.  0.
         24    2    3    3    0    0  0.70322233891E+02 -0.20674986132E+02  0.19540947088E+03  0.22375096464E+03  0.80665737688E+02 0.  0.
         -6    2    1    2    0  503 -0.14001751350E+03 -0.57144901439E+02 -0.15195401357E+02  0.22573102291E+03  0.16689263206E+03 0.  0.
        -24    2    5    5    0    0 -0.68759702135E+02 -0.83942584387E+02  0.23520245712E+02  0.14019282782E+03  0.85595402346E+02 0.  0.
          5    1    3    3  501    0  0.69695279605E+02  0.77819887570E+02  0.69513091831E+02  0.12556881315E+03  0.47000000000E+01 0. -1.
        -13    1    4    4    0    0  0.48825388906E+02 -0.12806550376E+01  0.33389236322E+02  0.59164176503E+02  0.00000000000E+00 0.  1.
         14    1    4    4    0    0  0.21496844985E+02 -0.19394331094E+02  0.16202023456E+03  0.16458678814E+03  0.00000000000E+00 0. -1.
         -5    1    5    5    0  503 -0.71257811360E+02  0.26797682948E+02 -0.38715647069E+02  0.85538195090E+02  0.47000000000E+01 0.  1.
         13    1    6    6    0    0 -0.67712775398E+02 -0.43372552413E+02 -0.17710152158E+02  0.82339830850E+02  0.00000000000E+00 0. -1.
        -14    1    6    6    0    0 -0.10469267371E+01 -0.40570031974E+02  0.41230397870E+02  0.57852996971E+02  0.00000000000E+00 0.  1.
</event>
<event>
12    1  0.9017558E-003  0.2866215E+03  0.7818608E-02  0.1092184E+00
         21   -1    0    0  501  502  0.00000000000E+00  0.00000000000E+00  0.63271446016E+02  0.63271446016E+02  0.00000000000E+00 0. -1.
         21   -1    0    0  502  503 -0.00000000000E+00 -0.00000000000E+00 -0.13054428647E+04  0.13054428647E+04  0.00000000000E+00 0.  1.
          6    2    1    2  501    0 -0.18762286992E+03 -0.13099446893E+03 -0.56469876383E+03  0.63327447455E+03  0.17259772315E+03 0.  0.
         24    2    3    3    0    0 -0.76772926777E+02 -0.45880838238E+01 -0.34043171757E+03  0.35294594919E+03  0.52554314036E+02 0.  0.
         -6    2    1    2    0  503  0.18762286992E+03  0.13099446893E+03 -0.67747265487E+03  0.73543983618E+03  0.17187397226E+03 0.  0.
        -24    2    5    5    0    0  0.84910018692E+02  0.68295746308E+02 -0.18857762718E+03  0.23193065282E+03  0.79726319419E+02 0.  0.
          5    1    3    3  501    0 -0.11084994314E+03 -0.12640638511E+03 -0.22426704626E+03  0.28032852536E+03  0.47000000000E+01 0. -1.
        -13    1    4    4    0    0 -0.52085148761E+02  0.11654017347E+02 -0.13124971552E+03  0.14168686130E+03  0.00000000000E+00 0.  1.
         14    1    4    4    0    0 -0.24687778016E+02 -0.16242101171E+02 -0.20918200205E+03  0.21125908789E+03  0.00000000000E+00 0. -1.
         -5    1    5    5    0  503  0.10271285123E+03  0.62698722624E+02 -0.48889502769E+03  0.50350918336E+03  0.47000000000E+01 0.  1.
         13    1    6    6    0    0  0.79519308108E+02  0.16282591956E+02 -0.13138528678E+03  0.15443618988E+03  0.00000000000E+00 0. -1.
        -14    1    6    6    0    0  0.53907105840E+01  0.52013154352E+02 -0.57192340400E+02  0.77494462942E+02  0.00000000000E+00 0.  1.
</event>
<event>
12    1  0.9017558E-003  0.1817730E+03  0.7818608E-02  0.1166262E+00
         21   -1    0    0  501  502  0.00000000000E+00  0.00000000000E+00  0.34344491799E+03  0.34344491799E+03  0.00000000000E+00 0. -1.
         21   -1    0    0  502  503 -0.00000000000E+00 -0.00000000000E+00 -0.12838897418E+03  0.12838897418E+03  0.00000000000E+00 0. -1.
          6    2    1    2  501    0 -0.41874725530E+01 -0.56483613444E+02  0.22645699731E+03  0.29038625936E+03  0.17272369403E+03 0.  0.
         24    2    3    3    0    0  0.42959114280E+02 -0.28777830712E+02  0.53679933108E+02  0.10910080776E+03  0.79673094552E+02 0.  0.
         -6    2    1    2    0  503  0.41874725530E+01  0.56483613444E+02 -0.11401053500E+02  0.18144763281E+03  0.17200385437E+03 0.  0.
        -24    2    5    5    0    0  0.65513436507E+02  0.10619822986E+02 -0.14018485615E+02  0.10467978746E+03  0.79727968490E+02 0.  0.
          5    1    3    3  501    0 -0.47146586833E+02 -0.27705782731E+02  0.17277706420E+03  0.18128545159E+03  0.47000000000E+01 0. -1.
        -11    1    4    4    0    0  0.24778421151E+02  0.26522348901E+02  0.15386330289E+02  0.39422636971E+02  0.00000000000E+00 0.  1.
         12    1    4    4    0    0  0.18180693128E+02 -0.55300179613E+02  0.38293602819E+02  0.69678170791E+02  0.00000000000E+00 0. -1.
         -5    1    5    5    0  503 -0.61325963954E+02  0.45863790457E+02  0.26174321156E+01  0.76767845357E+02  0.47000000000E+01 0.  1.
         13    1    6    6    0    0  0.35116298480E+01  0.35094747155E+02 -0.14201721292E+02  0.38021858315E+02  0.00000000000E+00 0. -1.
        -14    1    6    6    0    0  0.62001806659E+02 -0.24474924168E+02  0.18323567698E+00  0.66657929140E+02  0.00000000000E+00 0.  1.
</event>
<event>
12    1  0.9017558E-003  0.1849412E+03  0.7818608E-02  0.1164022E+00
         21   -1    0    0  501  502  0.00000000000E+00  0.00000000000E+00  0.33804618845E+03  0.33804618845E+03  0.00000000000E+00 0.  1.
         21   -1    0    0  502  503 -0.00000000000E+00 -0.00000000000E+00 -0.10036734952E+03  0.10036734952E+03  0.00000000000E+00 0.  1.
          6    2    1    2  501    0  0.46394331495E+02 -0.47398335077E+02  0.14255776712E+03  0.23044412324E+03  0.16847178045E+03 0.  0.
         24    2    3    3    0    0  0.94147435026E+02 -0.50753972715E+02  0.10326163123E+03  0.16833216388E+03  0.78949652577E+02 0.  0.
         -6    2    1    2    0  503 -0.46394331495E+02  0.47398335077E+02  0.95121071812E+02  0.20796941473E+03  0.17263899616E+03 0.  0.
        -24    2    5    5    0    0 -0.30428156762E+02  0.11343530940E+02 -0.18587540187E+02  0.87526041808E+02  0.79124982946E+02 0.  0.
          5    1    3    3  501    0 -0.47753103530E+02  0.33556376389E+01  0.39296135884E+02  0.62111959365E+02  0.47000000000E+01 0. -1.
        -11    1    4    4    0    0  0.74977311942E+02 -0.21197209372E+01  0.36153021483E+02  0.83265427912E+02  0.00000000000E+00 0.  1.
         12    1    4    4    0    0  0.19170123083E+02 -0.48634251778E+02  0.67108609750E+02  0.85066735964E+02  0.00000000000E+00 0. -1.
         -5    1    5    5    0  503 -0.15966174733E+02  0.36054804136E+02  0.11370861200E+03  0.12044337292E+03  0.47000000000E+01 0.  1.
         13    1    6    6    0    0 -0.48443428558E+02  0.31279798569E+02 -0.63915288931E+01  0.58017611210E+02  0.00000000000E+00 0. -1.
        -14    1    6    6    0    0  0.18015271795E+02 -0.19936267629E+02 -0.12196011294E+02  0.29508430597E+02  0.00000000000E+00 0.  1.
</event>
<event>
12    1  0.9017558E-003  0.1892126E+03  0.7818608E-02  0.1159485E+00
         21   -1    0    0  501  502  0.00000000000E+00  0.00000000000E+00  0.26002861992E+02  0.26002861992E+02  0.00000000000E+00 0. -1.
         21   -1    0    0  502  503 -0.00000000000E+00 -0.00000000000E+00 -0.16400445918E+04  0.16400445918E+04  0.00000000000E+00 0. -1.
          6    2    1    2  501    0 -0.48469968830E+02  0.61452875644E+02 -0.46461914517E+03  0.50115532127E+03  0.17076273651E+03 0.  0.
         24    2    3    3    0    0 -0.94255931938E+02  0.49390628892E+02 -0.38373299062E+03  0.40731230229E+03  0.85607760032E+02 0.  0.
         -6    2    1    2    0  503  0.48469968830E+02 -0.61452875644E+02 -0.11494225846E+04  0.11648921325E+04  0.17226609800E+03 0.  0.
        -24    2    5    5    0    0  0.33757103406E+02 -0.43928191055E+02 -0.11309430437E+04  0.11351067936E+04  0.79787448050E+02 0.  0.
          5    1    3    3  501    0  0.45785963108E+02  0.12062246751E+02 -0.80886154542E+02  0.93843018979E+02  0.47000000000E+01 0. -1.
        -11    1    4    4    0    0 -0.45327659915E+01 -0.13210771159E+02 -0.13324186103E+03  0.13397187755E+03  0.00000000000E+00 0.  1.
         12    1    4    4    0    0 -0.89723165947E+02  0.62601400051E+02 -0.25049112959E+03  0.27334042474E+03  0.00000000000E+00 0. -1.
         -5    1    5    5    0  503  0.14712865425E+02 -0.17524684589E+02 -0.18479540938E+02  0.29785338881E+02  0.47000000000E+01 0.  1.
         13    1    6    6    0    0  0.27812884674E+02 -0.66514324339E+02 -0.75324609039E+03  0.75668843296E+03  0.00000000000E+00 0. -1.
        -14    1    6    6    0    0  0.59442187316E+01  0.22586133285E+02 -0.37769695327E+03  0.37841836063E+03  0.00000000000E+00 0.  1.
</event>
<event>
12    1  0.9017558E-003  0.1819809E+03  0.7818608E-02  0.1166606E+00
         21   -1    0    0  501  502  0.00000000000E+00  0.00000000000E+00  0.10616569926E+03  0.10616569926E+03  0.00000000000E+00 0.  1.
         21   -1    0    0  502  503 -0.00000000000E+00 -0.00000000000E+00 -0.38265898078E+03  0.38265898078E+03  0.00000000000E+00 0.  1.
          6    2    1    2  501    0 -0.17923530212E+01  0.57612565565E+02 -0.30419013665E+02  0.18450573781E+03  0.17261121242E+03 0.  0.
         24    2    3    3    0    0 -0.38923776712E+02 -0.21499581506E+01 -0.62259522037E+02  0.10713513719E+03  0.77987222183E+02 0.  0.
         -6    2    1    2    0  503  0.17923530212E+01 -0.57612565565E+02 -0.24607426786E+03  0.30431894223E+03  0.16951416771E+03 0.  0.
        -24    2    5    5    0    0 -0.21951124151E+02  0.29607906402E+02 -0.11016502151E+03  0.14102602541E+03  0.79959539185E+02 0.  0.
          5    1    3    3  501    0  0.37131423691E+02  0.59762523716E+02  0.31840508372E+02  0.77370600615E+02  0.47000000000E+01 0. -1.
        -13    1    4    4    0    0 -0.27329496976E+02  0.25347050621E+00  0.13481013884E+02  0.30474635151E+02  0.00000000000E+00 0.  1.
         14    1    4    4    0    0 -0.11594279736E+02 -0.24034286568E+01 -0.75740535921E+02  0.76660502043E+02  0.00000000000E+00 0. -1.
         -5    1    5    5    0  503  0.23743477172E+02 -0.87220471967E+02 -0.13590924635E+03  0.16329291682E+03  0.47000000000E+01 0.  1.
         13    1    6    6    0    0 -0.27991080997E+02  0.14488725351E+02 -0.19346591430E+01  0.31577946160E+02  0.00000000000E+00 0. -1.
        -14    1    6    6    0    0  0.60399568460E+01  0.15119181050E+02 -0.10823036237E+03  0.10944807925E+03  0.00000000000E+00 0.  1.
</event>
<event>
12    1  0.9017558E-003  0.2213249E+03  0.7818608E-02  0.1132971E+00
         21   -1    0    0  501  502  0.00000000000E+00  0.00000000000E+00  0.41727068718E+02  0.41727068718E+02  0.00000000000E+00 0. -1.
         21   -1    0    0  502  503 -0.00000000000E+00 -0.00000000000E+00 -0.11992953084E+04  0.11992953084E+04  0.00000000000E+00 0. -1.
          6    2    1    2  501    0 -0.89900411190E+02  0.10733624731E+03 -0.67211859217E+03  0.70750006816E+03  0.17090872002E+03 0.  0.
         24    2    3    3    0    0 -0.48203158883E+02 -0.10994036235E+02 -0.29641275540E+03  0.31137170179E+03  0.81531599730E+02 0.  0.
         -6    2    1    2    0  503  0.89900411190E+02 -0.10733624731E+03 -0.48544964746E+03  0.53352230891E+03  0.17141044299E+03 0.  0.
        -24    2    5    5    0    0  0.54747628650E+02 -0.51329144615E+01 -0.13167392592E+03  0.16357556880E+03  0.79970583892E+02 0.  0.
          5    1    3    3  501    0 -0.41697252308E+02  0.11833028355E+03 -0.37570583678E+03  0.39612836637E+03  0.47000000000E+01 0. -1.
        -11    1    4    4    0    0 -0.11718459287E+02 -0.70927293178E+01 -0.10493904670E+01  0.13737915329E+02  0.00000000000E+00 0.  1.
         12    1    4    4    0    0 -0.36484699595E+02 -0.39013069170E+01 -0.29536336493E+03  0.29763378646E+03  0.00000000000E+00 0. -1.
         -5    1    5    5    0  503  0.35152782540E+02 -0.10220333285E+03 -0.35377572154E+03  0.36994674011E+03  0.47000000000E+01 0.  1.
         13    1    6    6    0    0  0.74812129774E+02 -0.12151612352E+02 -0.10239993454E+03  0.12739804958E+03  0.00000000000E+00 0. -1.
        -14    1    6    6    0    0 -0.20064501124E+02  0.70186978905E+01 -0.29273991383E+02  0.36177519220E+02  0.00000000000E+00 0.  1.
</event>
<event>
12    1  0.9017558E-003  0.1899396E+03  0.7818608E-02  0.1158821E+00
         21   -1    0    0  503  502  0.00000000000E+00  0.00000000000E+00  0.36698618801E+03  0.36698618801E+03  0.00000000000E+00 0.  1.
         21   -1    0    0  501  503 -0.00000000000E+00 -0.00000000000E+00 -0.36674575842E+03  0.36674575842E+03  0.00000000000E+00 0.  1.
          6    2    1    2  501    0 -0.24736828129E+02 -0.75624249180E+02 -0.31415504986E+03  0.36641522311E+03  0.17098474389E+03 0.  0.
         24    2    3    3    0    0 -0.11648490865E+02  0.15148799748E+01 -0.69905918100E+02  0.10989723507E+03  0.83979656408E+02 0.  0.
         -6    2    1    2    0  502  0.24736828129E+02  0.75624249180E+02  0.31439547945E+03  0.36731672332E+03  0.17247063519E+03 0.  0.
        -24    2    5    5    0    0  0.54166102609E+02  0.22862505329E+02  0.15668435359E+03  0.19836473893E+03  0.10649846087E+03 0.  0.
          5    1    3    3  501    0 -0.13088337264E+02 -0.77139129155E+02 -0.24424913176E+03  0.25651798804E+03  0.47000000000E+01 0. -1.
        -13    1    4    4    0    0  0.30664398081E+01 -0.26148996984E+02 -0.73768546128E+02  0.78326058845E+02  0.00000000000E+00 0.  1.
         14    1    4    4    0    0 -0.14714930673E+02  0.27663876959E+02  0.38626280284E+01  0.31571176227E+02  0.00000000000E+00 0. -1.
         -5    1    5    5    0  502 -0.29429274480E+02  0.52761743851E+02  0.15771112586E+03  0.16895198440E+03  0.47000000000E+01 0.  1.
         11    1    6    6    0    0  0.66570692695E+02  0.10860117885E+02  0.36008141117E+02  0.76460352557E+02  0.00000000000E+00 0. -1.
        -12    1    6    6    0    0 -0.12404590086E+02  0.12002387444E+02  0.12067621247E+03  0.12190438637E+03  0.00000000000E+00 0.  1.
</event>
<event>
12    1  0.9017558E-003  0.2178278E+03  0.7818608E-02  0.1135733E+00
         21   -1    0    0  501  502  0.00000000000E+00  0.00000000000E+00  0.27194760169E+03  0.27194760169E+03  0.00000000000E+00 0. -1.
         21   -1    0    0  502  503 -0.00000000000E+00 -0.00000000000E+00 -0.32591746659E+03  0.32591746659E+03  0.00000000000E+00 0.  1.
          6    2    1    2  501    0  0.13222234455E+03  0.20141247022E+02  0.17744806744E+03  0.28005504029E+03  0.17045407217E+03 0.  0.
         24    2    3    3    0    0  0.87979048226E+02 -0.30936514692E+02  0.43411852766E+02  0.12987446945E+03  0.79280564995E+02 0.  0.
         -6    2    1    2    0  503 -0.13222234455E+03 -0.20141247022E+02 -0.23141793235E+03  0.31781002799E+03  0.17193177789E+03 0.  0.
        -24    2    5    5    0    0 -0.42507938017E+02  0.40852330456E+02 -0.15848109782E+03  0.18700191255E+03  0.79859997705E+02 0.  0.
          5    1    3    3  501    0  0.44243296328E+02  0.51077761715E+02  0.13403621468E+03  0.15018057084E+03  0.47000000000E+01 0. -1.
        -13    1    4    4    0    0  0.10031825659E+03 -0.26606546128E+02  0.24093838273E+02  0.10654658110E+03  0.00000000000E+00 0.  1.
         14    1    4    4    0    0 -0.12339208363E+02 -0.43299685640E+01  0.19318014493E+02  0.23327888347E+02  0.00000000000E+00 0. -1.
         -5    1    5    5    0  503 -0.89714406537E+02 -0.60993577479E+02 -0.72936834524E+02  0.13080811544E+03  0.47000000000E+01 0.  1.
         13    1    6    6    0    0  0.62419839014E+01 -0.18109933023E+02 -0.14745032866E+02  0.24173291694E+02  0.00000000000E+00 0. -1.
        -14    1    6    6    0    0 -0.48749921918E+02  0.58962263479E+02 -0.14373606496E+03  0.16282862086E+03  0.00000000000E+00 0.  1.
</event>
<event>
12    1  0.9017558E-003  0.1778500E+03  0.7818608E-02  0.1171163E+00
         21   -1    0    0  501  502  0.00000000000E+00  0.00000000000E+00  0.11191334326E+04  0.11191334326E+04  0.00000000000E+00 0.  1.
         21   -1    0    0  502  503 -0.00000000000E+00 -0.00000000000E+00 -0.28870907538E+02  0.28870907538E+02  0.00000000000E+00 0.  1.
          6    2    1    2  501    0  0.42202397160E+02 -0.11992438170E+02  0.41099224485E+03  0.44583716033E+03  0.16712656075E+03 0.  0.
         24    2    3    3    0    0  0.60297432440E+02  0.27335462994E+02  0.16105857200E+03  0.19213843165E+03  0.81205328676E+02 0.  0.
         -6    2    1    2    0  503 -0.42202397160E+02  0.11992438170E+02  0.67927028019E+03  0.70216717978E+03  0.17235363041E+03 0.  0.
        -24    2    5    5    0    0  0.15818818871E+02  0.38936605420E+02  0.56053169871E+03  0.56721018519E+03  0.75929669102E+02 0.  0.
          5    1    3    3  501    0 -0.18095035280E+02 -0.39327901164E+02  0.24993367285E+03  0.25369872869E+03  0.47000000000E+01 0. -1.
        -13    1    4    4    0    0  0.17293201892E+02 -0.18603469373E+02  0.10445801046E+03  0.10750172023E+03  0.00000000000E+00 0.  1.
         14    1    4    4    0    0  0.43004230548E+02  0.45938932367E+02  0.56600561542E+02  0.84636711414E+02  0.00000000000E+00 0. -1.
         -5    1    5    5    0  503 -0.58021216031E+02 -0.26944167250E+02  0.11873858148E+03  0.13495699460E+03  0.47000000000E+01 0.  1.
         13    1    6    6    0    0 -0.15689110835E+02  0.98915311161E+01  0.41713936420E+03  0.41755148156E+03  0.00000000000E+00 0. -1.
        -14    1    6    6    0    0  0.31507929707E+02  0.29045074304E+02  0.14339233451E+03  0.14965870363E+03  0.00000000000E+00 0.  1.
</event>
<event>
12    1  0.9017558E-003  0.1913247E+03  0.7818608E-02  0.1157807E+00
         21   -1    0    0  503  502  0.00000000000E+00  0.00000000000E+00  0.32064502920E+02  0.32064502920E+02  0.00000000000E+00 0.  1.
         21   -1    0    0  501  503 -0.00000000000E+00 -0.00000000000E+00 -0.11283519070E+04  0.11283519070E+04  0.00000000000E+00 0.  1.
          6    2    1    2  501    0  0.58265521198E+02 -0.51196363934E+02 -0.53521681879E+03  0.56838560600E+03  0.17489772825E+03 0.  0.
         24    2    3    3    0    0  0.54070039768E+02 -0.47200207991E+02 -0.54534170774E+03  0.55580885352E+03  0.79840306967E+02 0.  0.
         -6    2    1    2    0  502 -0.58265521198E+02  0.51196363934E+02 -0.56107058532E+03  0.59203080396E+03  0.17229141732E+03 0.  0.
        -24    2    5    5    0    0 -0.13637582241E+02  0.94448728836E+02 -0.31363774523E+03  0.33686905063E+03  0.77495651565E+02 0.  0.
          5    1    3    3  501    0  0.41954814304E+01 -0.39961559433E+01  0.10124888945E+02  0.12576752478E+02  0.47000000000E+01 0. -1.
        -13    1    4    4    0    0  0.61429355437E+02 -0.95008167055E+01 -0.23433386210E+03  0.24243801301E+03  0.00000000000E+00 0.  1.
         14    1    4    4    0    0 -0.73593156692E+01 -0.37699391286E+02 -0.31100784564E+03  0.31337084050E+03  0.00000000000E+00 0. -1.
         -5    1    5    5    0  502 -0.44627938957E+02 -0.43252364902E+02 -0.24743284009E+03  0.25516175332E+03  0.47000000000E+01 0.  1.
         11    1    6    6    0    0  0.13555582257E+02  0.51466486177E+02 -0.24897509200E+03  0.25459997927E+03  0.00000000000E+00 0. -1.
        -12    1    6    6    0    0 -0.27193164497E+02  0.42982242659E+02 -0.64662653239E+02  0.82269071365E+02  0.00000000000E+00 0.  1.
</event>
<event>
12    1  0.9017558E-003  0.2185946E+03  0.7818608E-02  0.1135362E+00
         21   -1    0    0  503  502  0.00000000000E+00  0.00000000000E+00  0.83688440031E+02  0.83688440031E+02  0.00000000000E+00 0.  1.
         21   -1    0    0  501  503 -0.00000000000E+00 -0.00000000000E+00 -0.70682578186E+03  0.70682578186E+03  0.00000000000E+00 0.  1.
          6    2    1    2  501    0 -0.12831797661E+03 -0.28194554303E+02 -0.48985942492E+03  0.53641948397E+03  0.17470881656E+03 0.  0.
         24    2    3    3    0    0 -0.91287026403E+02  0.17448946204E+02 -0.16377225292E+03  0.20504423722E+03  0.81141860211E+02 0.  0.
         -6    2    1    2    0  502  0.12831797661E+03  0.28194554303E+02 -0.13327791691E+03  0.25409473792E+03  0.17187407219E+03 0.  0.
        -24    2    5    5    0    0  0.14769645364E+03  0.22155415952E+02 -0.15151923054E+03  0.22640300473E+03  0.77428279422E+02 0.  0.
          5    1    3    3  501    0 -0.37030950207E+02 -0.45643500507E+02 -0.32608717200E+03  0.33137524674E+03  0.47000000000E+01 0. -1.
        -13    1    4    4    0    0 -0.52926783242E+02  0.47049314585E+02 -0.70434243951E+02  0.99879252641E+02  0.00000000000E+00 0.  1.
         14    1    4    4    0    0 -0.38360243161E+02 -0.29600368380E+02 -0.93338008970E+02  0.10516498458E+03  0.00000000000E+00 0. -1.
         -5    1    5    5    0  502 -0.19378477033E+02  0.60391383508E+01  0.18241313630E+02  0.27691733191E+02  0.47000000000E+01 0.  1.
         11    1    6    6    0    0  0.31650432816E+02 -0.22262396276E+02 -0.62651639876E+02  0.73638252047E+02  0.00000000000E+00 0. -1.
        -12    1    6    6    0    0  0.11604602083E+03  0.44417812228E+02 -0.88867590661E+02  0.15276475268E+03  0.00000000000E+00 0.  1.
</event>
<event>
12    1  0.9017558E-003  0.2450753E+03  0.7818608E-02  0.1116551E+00
         21   -1    0    0  503  502  0.00000000000E+00  0.00000000000E+00  0.14047112474E+04  0.14047112474E+04  0.00000000000E+00 0.  1.
         21   -1    0    0  501  503 -0.00000000000E+00 -0.00000000000E+00 -0.54513341940E+02  0.54513341940E+02  0.00000000000E+00 0. -1.
          6    2    1    2  501    0  0.23540058263E+02  0.17189023386E+03  0.33420439057E+03  0.41409074693E+03  0.17227357655E+03 0.  0.
         24    2    3    3    0    0  0.21318380830E+01  0.19130412290E+03  0.24900819224E+03  0.32400360474E+03  0.79821324899E+02 0.  0.
         -6    2    1    2    0  502 -0.23540058263E+02 -0.17189023386E+03  0.10159935149E+04  0.10451338424E+04  0.17309401900E+03 0.  0.
        -24    2    5    5    0    0  0.98392790862E+00 -0.18324551318E+02  0.48485972293E+03  0.49168191160E+03  0.79532345509E+02 0.  0.
          5    1    3    3  501    0  0.21408220180E+02 -0.19413889038E+02  0.85196198326E+02  0.90087142190E+02  0.47000000000E+01 0. -1.
        -11    1    4    4    0    0  0.60030160062E+01  0.66289457196E+02  0.15128191574E+03  0.16527718042E+03  0.00000000000E+00 0.  1.
         12    1    4    4    0    0 -0.38711779232E+01  0.12501466570E+03  0.97726276504E+02  0.15872642432E+03  0.00000000000E+00 0. -1.
         -5    1    5    5    0  502 -0.24523986172E+02 -0.15356568254E+03  0.53113379194E+03  0.55345193079E+03  0.47000000000E+01 0.  1.
         11    1    6    6    0    0 -0.29900255395E+02 -0.96451945100E+00  0.82341769270E+02  0.87607776692E+02  0.00000000000E+00 0. -1.
        -12    1    6    6    0    0  0.30884183304E+02 -0.17360031867E+02  0.40251795366E+03  0.40407413491E+03  0.00000000000E+00 0.  1.
</event>
<event>
12    1  0.9017558E-003  0.1811629E+03  0.7818608E-02  0.1167163E+00
         21   -1    0    0  503  502  0.00000000000E+00  0.00000000000E+00  0.21279979478E+03  0.21279979478E+03  0.00000000000E+00 0. -1.
         21   -1    0    0  501  503 -0.00000000000E+00 -0.00000000000E+00 -0.15399025692E+03  0.15399025692E+03  0.00000000000E+00 0. -1.
          6    2    1    2  501    0  0.51906685598E+02  0.19724980630E+02  0.11437976166E+02  0.17953607063E+03  0.17034962427E+03 0.  0.
         24    2    3    3    0    0  0.94465547269E+02 -0.10931501315E+02 -0.61991554274E+01  0.12400018131E+03  0.79337116759E+02 0.  0.
         -6    2    1    2    0  502 -0.51906685598E+02 -0.19724980630E+02  0.47371561694E+02  0.18725398107E+03  0.17244306220E+03 0.  0.
        -24    2    5    5    0    0  0.14527477385E+01 -0.60807698242E+02 -0.48250754795E+01  0.10192170263E+03  0.81639852227E+02 0.  0.
          5    1    3    3  501    0 -0.42558861671E+02  0.30656481946E+02  0.17637131593E+02  0.55535889323E+02  0.47000000000E+01 0. -1.
        -11    1    4    4    0    0  0.55144780548E+01  0.79058096913E+01  0.25853666092E+02  0.27592088458E+02  0.00000000000E+00 0.  1.
         12    1    4    4    0    0  0.88951069214E+02 -0.18837311007E+02 -0.32052821520E+02  0.96408092854E+02  0.00000000000E+00 0. -1.
         -5    1    5    5    0  502 -0.53359433337E+02  0.41082717612E+02  0.52196637173E+02  0.85332278445E+02  0.47000000000E+01 0.  1.
         11    1    6    6    0    0 -0.12720192190E+02 -0.26827248846E+02  0.36186817244E+02  0.46808015469E+02  0.00000000000E+00 0. -1.
        -12    1    6    6    0    0  0.14172939928E+02 -0.33980449397E+02 -0.41011892723E+02  0.55113687158E+02  0.00000000000E+00 0.  1.
</event>
<event>
12    1  0.9017558E-003  0.1760781E+03  0.7818608E-02  0.1171971E+00
         21   -1    0    0  503  502  0.00000000000E+00  0.00000000000E+00  0.52398933632E+03  0.52398933632E+03  0.00000000000E+00 0. -1.
         21   -1    0    0  501  503 -0.00000000000E+00 -0.00000000000E+00 -0.23352643405E+03  0.23352643405E+03  0.00000000000E+00 0. -1.
          6    2    1    2  501    0  0.32830994367E+02  0.63946620441E+01 -0.18231221262E+03  0.25345853603E+03  0.17287197785E+03 0.  0.
         24    2    3    3    0    0  0.69473099409E+01  0.63422265963E+02 -0.15274301264E+03  0.18404282949E+03  0.80440575829E+02 0.  0.
         -6    2    1    2    0  502 -0.32830994367E+02 -0.63946620441E+01  0.47277511489E+03  0.50405723433E+03  0.17157686421E+03 0.  0.
        -24    2    5    5    0    0 -0.74403756159E+02 -0.21313669538E+02  0.21839116931E+03  0.24582448452E+03  0.82126627338E+02 0.  0.
          5    1    3    3  501    0  0.25883684426E+02 -0.57027603919E+02 -0.29569199980E+02  0.69415706549E+02  0.47000000000E+01 0. -1.
        -13    1    4    4    0    0 -0.30188350033E+02  0.57036279043E+02 -0.87880561181E+02  0.10902965944E+03  0.00000000000E+00 0.  1.
         14    1    4    4    0    0  0.37135659974E+02  0.63859869192E+01 -0.64862451459E+02  0.75013170043E+02  0.00000000000E+00 0. -1.
         -5    1    5    5    0  502  0.41572761792E+02  0.14919007494E+02  0.25438394558E+03  0.25823274981E+03  0.47000000000E+01 0.  1.
         11    1    6    6    0    0 -0.71185930500E+01 -0.41525418658E+02  0.92863837811E+02  0.10197414935E+03  0.00000000000E+00 0. -1.
        -12    1    6    6    0    0 -0.67285163109E+02  0.20211749119E+02  0.12552733150E+03  0.14385033517E+03  0.00000000000E+00 0.  1.
</event>
<event>
12    1  0.9017558E-003  0.1759089E+03  0.7818608E-02  0.1172082E+00
         21   -1    0    0  503  502  0.00000000000E+00  0.00000000000E+00  0.52562393062E+03  0.52562393062E+03  0.00000000000E+00 0. -1.
         21   -1    0    0  501  503 -0.00000000000E+00 -0.00000000000E+00 -0.60311284836E+02  0.60311284836E+02  0.00000000000E+00 0. -1.
          6    2    1    2  501    0  0.34083117207E+02  0.61211896121E+01  0.18155396537E+03  0.25207458809E+03  0.17140778214E+03 0.  0.
         24    2    3    3    0    0  0.25868272928E+02  0.23597913672E+01  0.20797481128E+03  0.22375881719E+03  0.78356556725E+02 0.  0.
         -6    2    1    2    0  502 -0.34083117207E+02 -0.61211896121E+01  0.28375868041E+03  0.33386062737E+03  0.17246681407E+03 0.  0.
        -24    2    5    5    0    0 -0.37468903279E+02 -0.26486478929E+02  0.29574725928E+03  0.30952907215E+03  0.78970582217E+02 0.  0.
          5    1    3    3  501    0  0.82148442787E+01  0.37613982450E+01 -0.26420845908E+02  0.28315770902E+02  0.47000000000E+01 0. -1.
        -11    1    4    4    0    0  0.14602259523E+01 -0.67103532369E+01 -0.54402446732E+01  0.87611279240E+01  0.00000000000E+00 0.  1.
         12    1    4    4    0    0  0.24408046975E+02  0.90701446040E+01  0.21341505595E+03  0.21499768926E+03  0.00000000000E+00 0. -1.
         -5    1    5    5    0  502  0.33857860728E+01  0.20365289317E+02 -0.11988578864E+02  0.24331555221E+02  0.47000000000E+01 0.  1.
         11    1    6    6    0    0 -0.10576439124E+02 -0.28281872248E+02  0.30507926038E+02  0.42923873468E+02  0.00000000000E+00 0. -1.
        -12    1    6    6    0    0 -0.26892464155E+02  0.17953933191E+01  0.26523933324E+03  0.26660519868E+03  0.00000000000E+00 0.  1.
</event>
<event>
12    1  0.9017558E-003  0.1758867E+03  0.7818608E-02  0.1172023E+00
         21   -1    0    0  503  502  0.00000000000E+00  0.00000000000E+00  0.14108504553E+03  0.14108504553E+03  0.00000000000E+00 0.  1.
         21   -1    0    0  501  503 -0.00000000000E+00 -0.00000000000E+00 -0.50808072257E+03  0.50808072257E+03  0.00000000000E+00 0.  1.
          6    2    1    2  501    0  0.69188103047E+01 -0.32926872946E+02 -0.42875156926E+03  0.46342641073E+03  0.17263858528E+03 0.  0.
         24    2    3    3    0    0 -0.62462830454E+02 -0.18565603347E+02 -0.29394219182E+03  0.31105936579E+03  0.78164122838E+02 0.  0.
         -6    2    1    2    0  502 -0.69188103047E+01  0.32926872946E+02  0.61755892216E+02  0.18573935737E+03  0.17191064468E+03 0.  0.
        -24    2    5    5    0    0  0.62429430440E+02  0.32346631857E+02  0.40488303919E+02  0.11304881131E+03  0.78720979464E+02 0.  0.
          5    1    3    3  501    0  0.69381640759E+02 -0.14361269599E+02 -0.13480937744E+03  0.15236704494E+03  0.47000000000E+01 0. -1.
        -11    1    4    4    0    0 -0.48210811115E+02  0.24125586585E+02 -0.19585682313E+03  0.20314089053E+03  0.00000000000E+00 0.  1.
         12    1    4    4    0    0 -0.14252019340E+02 -0.42691189932E+02 -0.98085368682E+02  0.10791847526E+03  0.00000000000E+00 0. -1.
         -5    1    5    5    0  502 -0.69348240744E+02  0.58024108857E+00  0.21267588297E+02  0.72690546057E+02  0.47000000000E+01 0.  1.
         13    1    6    6    0    0  0.79852807841E+02  0.15873593673E+02  0.33826562034E+02  0.88162793713E+02  0.00000000000E+00 0. -1.
        -14    1    6    6    0    0 -0.17423377401E+02  0.16473038184E+02  0.66617418842E+01  0.24886017601E+02  0.00000000000E+00 0.  1.
</event>
<event>
12    1  0.9017558E-003  0.2534587E+03  0.7818608E-02  0.1111196E+00
         21   -1    0    0  503  502  0.00000000000E+00  0.00000000000E+00  0.81359206143E+02  0.81359206143E+02  0.00000000000E+00 0. -1.
         21   -1    0    0  501  503 -0.00000000000E+00 -0.00000000000E+00 -0.96376884341E+03  0.96376884341E+03  0.00000000000E+00 0.  1.
          6    2    1    2  501    0  0.16074089985E+03 -0.91812453429E+02 -0.66382150922E+03  0.71043104021E+03  0.17258650964E+03 0.  0.
         24    2    3    3    0    0  0.11660620987E+03 -0.89150301153E+02 -0.63668374809E+03  0.65833971662E+03  0.80623836582E+02 0.  0.
         -6    2    1    2    0  502 -0.16074089985E+03  0.91812453429E+02 -0.21858812805E+03  0.33469700934E+03  0.17313045616E+03 0.  0.
        -24    2    5    5    0    0 -0.19939750219E+02 -0.12621655444E+01 -0.92306175962E+02  0.12384855699E+03  0.80117714946E+02 0.  0.
          5    1    3    3  501    0  0.44134689979E+02 -0.26621522757E+01 -0.27137761126E+02  0.52091323588E+02  0.47000000000E+01 0. -1.
        -13    1    4    4    0    0  0.89575833617E+02 -0.45570448204E+02 -0.27020170952E+03  0.28828711304E+03  0.00000000000E+00 0.  1.
         14    1    4    4    0    0  0.27030376252E+02 -0.43579852949E+02 -0.36648203857E+03  0.37005260359E+03  0.00000000000E+00 0. -1.
         -5    1    5    5    0  502 -0.14080114963E+03  0.93074618973E+02 -0.12628195209E+03  0.21084845234E+03  0.47000000000E+01 0.  1.
         11    1    6    6    0    0 -0.35119348071E+02  0.10104174211E+02 -0.79652127845E+01  0.37401972677E+02  0.00000000000E+00 0. -1.
        -12    1    6    6    0    0  0.15179597852E+02 -0.11366339755E+02 -0.84340963178E+02  0.86446584317E+02  0.00000000000E+00 0.  1.
</event>
<event>
12    1  0.9017558E-003  0.1836610E+03  0.7818608E-02  0.1164389E+00
         21   -1    0    0  503  502  0.00000000000E+00  0.00000000000E+00  0.15374117883E+03  0.15374117883E+03  0.00000000000E+00 0. -1.
         21   -1    0    0  501  503 -0.00000000000E+00 -0.00000000000E+00 -0.26332182555E+03  0.26332182555E+03  0.00000000000E+00 0. -1.
          6    2    1    2  501    0 -0.52061207158E+02  0.36065992422E+02 -0.14031467263E+03  0.23084818862E+03  0.17202195713E+03 0.  0.
         24    2    3    3    0    0 -0.15528368091E+02 -0.24732802028E+02 -0.13791633227E+02  0.85723031476E+02  0.79406468670E+02 0.  0.
         -6    2    1    2    0  502  0.52061207158E+02 -0.36065992422E+02  0.30734025911E+02  0.18621481575E+03  0.17239562685E+03 0.  0.
        -24    2    5    5    0    0  0.66119082692E+02 -0.12179415809E+01  0.74918564715E+02  0.12802225625E+03  0.80023060920E+02 0.  0.
          5    1    3    3  501    0 -0.36532839067E+02  0.60798794450E+02 -0.12652303940E+03  0.14512515715E+03  0.47000000000E+01 0. -1.
        -13    1    4    4    0    0 -0.33440120151E+02 -0.45023619578E+02 -0.17801640468E+01  0.56111825310E+02  0.00000000000E+00 0.  1.
         14    1    4    4    0    0  0.17911752060E+02  0.20290817550E+02 -0.12011469180E+02  0.29611206166E+02  0.00000000000E+00 0. -1.
         -5    1    5    5    0  502 -0.14057875534E+02 -0.34848050841E+02 -0.44184538804E+02  0.58192559501E+02  0.47000000000E+01 0.  1.
         11    1    6    6    0    0  0.17158013779E+02  0.23760070936E+02  0.66164734094E+02  0.72365118983E+02  0.00000000000E+00 0. -1.
        -12    1    6    6    0    0  0.48961068913E+02 -0.24978012517E+02  0.87538306212E+01  0.55657137269E+02  0.00000000000E+00 0.  1.
</event>
<event>
12    1  0.9017558E-003  0.1812493E+03  0.7818608E-02  0.1166718E+00
         21   -1    0    0  501  502  0.00000000000E+00  0.00000000000E+00  0.27480471488E+03  0.27480471488E+03  0.00000000000E+00 0. -1.
         21   -1    0    0  502  503 -0.00000000000E+00 -0.00000000000E+00 -0.13490394419E+03  0.13490394419E+03  0.00000000000E+00 0. -1.
          6    2    1    2  501    0  0.45963434257E+02  0.35905416151E+02  0.18325584046E+00  0.18124939402E+03  0.17160848770E+03 0.  0.
         24    2    3    3    0    0  0.62135245766E+02  0.65900644854E+02  0.42091614499E+02  0.12703093076E+03  0.78495029143E+02 0.  0.
         -6    2    1    2    0  503 -0.45963434257E+02 -0.35905416151E+02  0.13971751485E+03  0.22845926505E+03  0.17108715800E+03 0.  0.
        -24    2    5    5    0    0 -0.44005884573E+02 -0.82581551291E+02  0.10654278430E+03  0.17096886290E+03  0.95513123196E+02 0.  0.
          5    1    3    3  501    0 -0.16171811509E+02 -0.29995228703E+02 -0.41908358659E+02  0.54218463257E+02  0.47000000000E+01 0. -1.
        -11    1    4    4    0    0  0.99616551993E+01 -0.13598327949E+02  0.25403288197E+02  0.30487311271E+02  0.00000000000E+00 0.  1.
         12    1    4    4    0    0  0.52173590567E+02  0.79498972803E+02  0.16688326302E+02  0.96543619490E+02  0.00000000000E+00 0. -1.
         -5    1    5    5    0  503 -0.19575496843E+01  0.46676135140E+02  0.33174730544E+02  0.57490402148E+02  0.47000000000E+01 0.  1.
         11    1    6    6    0    0 -0.25553057373E+02 -0.34080343383E+02  0.11099251947E+03  0.11888552446E+03  0.00000000000E+00 0. -1.
        -12    1    6    6    0    0 -0.18452827200E+02 -0.48501207908E+02 -0.44497351688E+01  0.52083338442E+02  0.00000000000E+00 0.  1.
</event>
<event>
12    1  0.9017558E-003  0.2352938E+03  0.7818608E-02  0.1123031E+00
         21   -1    0    0  503  502  0.00000000000E+00  0.00000000000E+00  0.23492247465E+03  0.23492247465E+03  0.00000000000E+00 0. -1.
         21   -1    0    0  501  503 -0.00000000000E+00 -0.00000000000E+00 -0.24587810787E+03  0.24587810787E+03  0.00000000000E+00 0. -1.
          6    2    1    2  501    0 -0.81295279673E+02  0.13731025383E+03  0.44392093037E+02  0.23908476871E+03  0.17241763367E+03 0.  0.
         24    2    3    3    0    0 -0.56571418156E+02  0.84699359687E+02 -0.40001752605E+02  0.13650023433E+03  0.81595752820E+02 0.  0.
         -6    2    1    2    0  502  0.81295279673E+02 -0.13731025383E+03 -0.55347726258E+02  0.24171581381E+03  0.17291655659E+03 0.  0.
        -24    2    5    5    0    0  0.78567397016E+02 -0.58605992376E+02  0.25114868188E+02  0.12902987317E+03  0.80065306778E+02 0.  0.
          5    1    3    3  501    0 -0.24723861517E+02  0.52610894140E+02  0.84393845642E+02  0.10258453437E+03  0.47000000000E+01 0. -1.
        -11    1    4    4    0    0  0.19663214689E+01  0.35539965838E+02 -0.47871866482E+02  0.59654599088E+02  0.00000000000E+00 0.  1.
         12    1    4    4    0    0 -0.58537739625E+02  0.49159393849E+02  0.78701138770E+01  0.76845635247E+02  0.00000000000E+00 0. -1.
         -5    1    5    5    0  502  0.27278826569E+01 -0.78704261451E+02 -0.80462594446E+02  0.11268594065E+03  0.47000000000E+01 0.  1.
         13    1    6    6    0    0  0.51082696933E+02  0.27478847737E+01 -0.11562550514E+02  0.52446976758E+02  0.00000000000E+00 0. -1.
        -14    1    6    6    0    0  0.27484700084E+02 -0.61353877149E+02  0.36677418702E+02  0.76582896410E+02  0.00000000000E+00 0.  1.
</event>
<event>
12    1  0.9017558E-003  0.1956483E+03  0.7818608E-02  0.1153570E+00
         21   -1    0    0  503  502  0.00000000000E+00  0.00000000000E+00  0.10391918699E+03  0.10391918699E+03  0.00000000000E+00 0. -1.
         21   -1    0    0  501  503 -0.00000000000E+00 -0.00000000000E+00 -0.66572923050E+03  0.66572923050E+03  0.00000000000E+00 0. -1.
          6    2    1    2  501    0  0.36245238459E+02  0.84188078290E+02 -0.53869926174E+03  0.57312752577E+03  0.17284940370E+03 0.  0.
         24    2    3    3    0    0  0.29324929072E+02 -0.21364117697E+02 -0.27050276917E+03  0.28478639900E+03  0.81333682680E+02 0.  0.
         -6    2    1    2    0  502 -0.36245238459E+02 -0.84188078290E+02 -0.23110781765E+02  0.19652089172E+03  0.17229336264E+03 0.  0.
        -24    2    5    5    0    0  0.42706115143E+02 -0.36739203932E+02  0.14487223271E+02  0.96919627184E+02  0.77523887411E+02 0.  0.
          5    1    3    3  501    0  0.69203093873E+01  0.10555219599E+03 -0.26819649257E+03  0.28834112677E+03  0.47000000000E+01 0. -1.
        -11    1    4    4    0    0 -0.18933736802E+02 -0.11510562769E+02 -0.21205546373E+02  0.30670093601E+02  0.00000000000E+00 0.  1.
         12    1    4    4    0    0  0.48258665874E+02 -0.98535549276E+01 -0.24929722279E+03  0.25411630540E+03  0.00000000000E+00 0. -1.
         -5    1    5    5    0  502 -0.78951353602E+02 -0.47448874358E+02 -0.37598005036E+02  0.99601264531E+02  0.47000000000E+01 0.  1.
         13    1    6    6    0    0  0.37410406487E+02 -0.44880520762E+01  0.40375600282E+02  0.55225630129E+02  0.00000000000E+00 0. -1.
        -14    1    6    6    0    0  0.52957086560E+01 -0.32251151856E+02 -0.25888377012E+02  0.41693997056E+02  0.00000000000E+00 0.  1.
</event>
<event>
12    1  0.9017558E-003  0.2236901E+03  0.7818608E-02  0.1131935E+00
         21   -1    0    0  501  502  0.00000000000E+00  0.00000000000E+00  0.34270062426E+03  0.34270062426E+03  0.00000000000E+00 0. -1.
         21   -1    0    0  502  503 -0.00000000000E+00 -0.00000000000E+00 -0.14894088206E+03  0.14894088206E+03  0.00000000000E+00 0.  1.
          6    2    1    2  501    0 -0.12389608892E+03 -0.70253268580E+02  0.14567306500E+03  0.26694177743E+03  0.17248625474E+03 0.  0.
         24    2    3    3    0    0 -0.99436470733E+02 -0.54317055368E+02  0.22310795556E+02  0.14008526267E+03  0.79297887764E+02 0.  0.
         -6    2    1    2    0  503  0.12389608892E+03  0.70253268580E+02  0.48086677187E+02  0.22469972889E+03  0.16700861369E+03 0.  0.
        -24    2    5    5    0    0  0.16354334143E+02 -0.13899261538E+02  0.26676151785E+02  0.86397964826E+02  0.79324255657E+02 0.  0.
          5    1    3    3  501    0 -0.24459618184E+02 -0.15936213211E+02  0.12336226945E+03  0.12685651476E+03  0.47000000000E+01 0. -1.
        -11    1    4    4    0    0 -0.78402264755E+02 -0.75130054591E+01 -0.10080209914E+02  0.79403847524E+02  0.00000000000E+00 0.  1.
         12    1    4    4    0    0 -0.21034205978E+02 -0.46804049909E+02  0.32391005470E+02  0.60681415148E+02  0.00000000000E+00 0. -1.
         -5    1    5    5    0  503  0.10754175477E+03  0.84152530117E+02  0.21410525401E+02  0.13830176406E+03  0.47000000000E+01 0.  1.
         11    1    6    6    0    0  0.33294835845E+02 -0.13887316813E+02  0.47441234622E+02  0.59599281914E+02  0.00000000000E+00 0. -1.
        -12    1    6    6    0    0 -0.16940501703E+02 -0.11944724297E-01 -0.20765082836E+02  0.26798682912E+02  0.00000000000E+00 0.  1.
</event>
<event>
12    1  0.9017558E-003  0.2142739E+03  0.7818608E-02  0.1138403E+00
         21   -1    0    0  501  502  0.00000000000E+00  0.00000000000E+00  0.12357267688E+03  0.12357267688E+03  0.00000000000E+00 0.  1.
         21   -1    0    0  502  503 -0.00000000000E+00 -0.00000000000E+00 -0.39473072228E+03  0.39473072228E+03  0.00000000000E+00 0. -1.
          6    2    1    2  501    0  0.36101321072E+02  0.12143032035E+03 -0.70391908085E+02  0.22467035983E+03  0.17167737701E+03 0.  0.
         24    2    3    3    0    0 -0.93235628591E+01  0.12012974114E+02 -0.62802930864E+02  0.10586270724E+03  0.83853826916E+02 0.  0.
         -6    2    1    2    0  503 -0.36101321072E+02 -0.12143032035E+03 -0.20076613731E+03  0.29363303932E+03  0.17281403822E+03 0.  0.
        -24    2    5    5    0    0  0.46103673931E+02 -0.51284619248E+02 -0.90966767350E+02  0.13950298959E+03  0.80190213994E+02 0.  0.
          5    1    3    3  501    0  0.45424883931E+02  0.10941734624E+03 -0.75889772208E+01  0.11880765259E+03  0.47000000000E+01 0. -1.
        -13    1    4    4    0    0  0.30065853080E+02  0.27347736188E+02 -0.18582041890E+02  0.44689444804E+02  0.00000000000E+00 0.  1.
         14    1    4    4    0    0 -0.39389415939E+02 -0.15334762074E+02 -0.44220888974E+02  0.61173262440E+02  0.00000000000E+00 0. -1.
         -5    1    5    5    0  503 -0.82204995002E+02 -0.70145701105E+02 -0.10979936997E+03  0.15413004974E+03  0.47000000000E+01 0.  1.
         11    1    6    6    0    0 -0.21456251831E+01  0.19315506027E+02 -0.24046256579E+02  0.30917874053E+02  0.00000000000E+00 0. -1.
        -12    1    6    6    0    0  0.48249299114E+02 -0.70600125275E+02 -0.66920510771E+02  0.10858511553E+03  0.00000000000E+00 0.  1.
</event>
<event>
12    1  0.9017558E-003  0.1801540E+03  0.7818608E-02  0.1168122E+00
         21   -1    0    0  501  502  0.00000000000E+00  0.00000000000E+00  0.10697559856E+03  0.10697559856E+03  0.00000000000E+00 0.  1.
         21   -1    0    0  502  503 -0.00000000000E+00 -0.00000000000E+00 -0.34583520632E+03  0.34583520632E+03  0.00000000000E+00 0.  1.
          6    2    1    2  501    0 -0.29970718647E+02  0.45257473679E+02 -0.20115166329E+03  0.26875283225E+03  0.16976339506E+03 0.  0.
         24    2    3    3    0    0 -0.68223543600E+02  0.42816390049E+02 -0.71758724708E+02  0.13372002120E+03  0.79019202352E+02 0.  0.
         -6    2    1    2    0  503  0.29970718647E+02 -0.45257473679E+02 -0.37707944482E+02  0.18405797263E+03  0.17178173742E+03 0.  0.
        -24    2    5    5    0    0  0.26964344872E+02 -0.72213264567E+01  0.42820374682E+02  0.94824083518E+02  0.79867383060E+02 0.  0.
          5    1    3    3  501    0  0.38252824953E+02  0.24410836291E+01 -0.12939293858E+03  0.13503281105E+03  0.47000000000E+01 0. -1.
        -13    1    4    4    0    0 -0.37698556934E+02  0.56605408757E+02 -0.17951591700E+02  0.70339271677E+02  0.00000000000E+00 0.  1.
         14    1    4    4    0    0 -0.30524986666E+02 -0.13789018708E+02 -0.53807133008E+02  0.63380749525E+02  0.00000000000E+00 0. -1.
         -5    1    5    5    0  503  0.30063737742E+01 -0.38036147222E+02 -0.80528319164E+02  0.89233889112E+02  0.47000000000E+01 0.  1.
         11    1    6    6    0    0 -0.26324433987E+02 -0.12083696229E+02  0.52391396630E+01  0.29435354996E+02  0.00000000000E+00 0. -1.
        -12    1    6    6    0    0  0.53288778860E+02  0.48623697728E+01  0.37581235019E+02  0.65388728522E+02  0.00000000000E+00 0.  1.
</event>
<event>
12    1  0.9017558E-003  0.2381769E+03  0.7818608E-02  0.1121152E+00
         21   -1    0    0  503  502  0.00000000000E+00  0.00000000000E+00  0.24751507254E+04  0.24751507254E+04  0.00000000000E+00 0. -1.
         21   -1    0    0  501  503 -0.00000000000E+00 -0.00000000000E+00 -0.23403345481E+02  0.23403345481E+02  0.00000000000E+00 0. -1.
          6    2    1    2  501    0 -0.14051010974E+03  0.85512303363E+02  0.14176657407E+04  0.14373975904E+04  0.17111468584E+03 0.  0.
         24    2    3    3    0    0 -0.12803846169E+03  0.83190968718E+01  0.10923270536E+04  0.11027609450E+04  0.80251198207E+02 0.  0.
         -6    2    1    2    0  502  0.14051010974E+03 -0.85512303363E+02  0.10340816392E+04  0.10611564804E+04  0.17225792992E+03 0.  0.
        -24    2    5    5    0    0  0.16535634029E+03 -0.38397921216E+02  0.81331465892E+03  0.83400620029E+03  0.72584351471E+02 0.  0.
          5    1    3    3  501    0 -0.12471648055E+02  0.77193206491E+02  0.32533868710E+03  0.33463664542E+03  0.47000000000E+01 0. -1.
        -11    1    4    4    0    0 -0.10648446290E+03 -0.13310399703E+02  0.60244677846E+03  0.61192992120E+03  0.00000000000E+00 0.  1.
         12    1    4    4    0    0 -0.21553998785E+02  0.21629496575E+02  0.48988027513E+03  0.49083102382E+03  0.00000000000E+00 0. -1.
         -5    1    5    5    0  502 -0.24846230549E+02 -0.47114382147E+02  0.22076698028E+03  0.22715028012E+03  0.47000000000E+01 0.  1.
         11    1    6    6    0    0  0.16610397640E+03 -0.21875689578E+02  0.71984077642E+03  0.73908038816E+03  0.00000000000E+00 0. -1.
        -12    1    6    6    0    0 -0.74763611123E+00 -0.16522231638E+02  0.93473882497E+02  0.94925812122E+02  0.00000000000E+00 0.  1.
</event>
<event>
12    1  0.9017558E-003  0.2872264E+03  0.7818608E-02  0.1091820E+00
         21   -1    0    0  503  502  0.00000000000E+00  0.00000000000E+00  0.12800086546E+04  0.12800086546E+04  0.00000000000E+00 0.  1.
         21   -1    0    0  501  503 -0.00000000000E+00 -0.00000000000E+00 -0.66216648357E+02  0.66216648357E+02  0.00000000000E+00 0.  1.
          6    2    1    2  501    0 -0.22850527971E+03  0.24748946968E+02  0.49617781074E+03  0.57326401133E+03  0.17208147371E+03 0.  0.
         24    2    3    3    0    0 -0.12863370842E+03  0.49827955929E+02  0.40550229242E+03  0.43597807956E+03  0.81334620945E+02 0.  0.
         -6    2    1    2    0  502  0.22850527971E+03 -0.24748946968E+02  0.71761419549E+03  0.77296129161E+03  0.17225519301E+03 0.  0.
        -24    2    5    5    0    0  0.81928736047E+02 -0.60740254512E+02  0.41766209479E+03  0.43714376663E+03  0.79065485287E+02 0.  0.
          5    1    3    3  501    0 -0.99871571284E+02 -0.25079008961E+02  0.90675518314E+02  0.13728593177E+03  0.47000000000E+01 0. -1.
        -13    1    4    4    0    0 -0.39114480930E+01 -0.15318972286E+02  0.19352885617E+02  0.24990088431E+02  0.00000000000E+00 0.  1.
         14    1    4    4    0    0 -0.12472226033E+03  0.65146928215E+02  0.38614940680E+03  0.41098799113E+03  0.00000000000E+00 0. -1.
         -5    1    5    5    0  502  0.14657654366E+03  0.35991307544E+02  0.29995210070E+03  0.33581752498E+03  0.47000000000E+01 0.  1.
         13    1    6    6    0    0 -0.96091057259E+01  0.58166668705E+01  0.14183838127E+02  0.18092810460E+02  0.00000000000E+00 0. -1.
        -14    1    6    6    0    0  0.91537841773E+02 -0.66556921383E+02  0.40347825667E+03  0.41905095617E+03  0.00000000000E+00 0.  1.
</event>
<event>
12    1  0.9017558E-003  0.2250174E+03  0.7818608E-02  0.1131632E+00
         21   -1    0    0  503  502  0.00000000000E+00  0.00000000000E+00  0.55750128517E+02  0.55750128517E+02  0.00000000000E+00 0. -1.
         21   -1    0    0  501  503 -0.00000000000E+00 -0.00000000000E+00 -0.99229639199E+03  0.99229639199E+03  0.00000000000E+00 0. -1.
          6    2    1    2  501    0 -0.95413795356E+02  0.94374367416E+02 -0.63953306041E+03  0.67542111165E+03  0.17082397120E+03 0.  0.
         24    2    3    3    0    0 -0.64819737239E+02  0.10357422454E+03 -0.29067231092E+03  0.32506907969E+03  0.79058812987E+02 0.  0.
         -6    2    1    2    0  502  0.95413795356E+02 -0.94374367416E+02 -0.29701320307E+03  0.37262540886E+03  0.18061710595E+03 0.  0.
        -24    2    5    5    0    0 -0.18394623399E+02 -0.57978175482E+02 -0.17930370238E+03  0.20483191817E+03  0.78143880188E+02 0.  0.
          5    1    3    3  501    0 -0.30594058117E+02 -0.91998571232E+01 -0.34886074949E+03  0.35035203196E+03  0.47000000000E+01 0. -1.
        -13    1    4    4    0    0 -0.38301183225E+01  0.79783024790E+02 -0.16799603374E+03  0.18601792442E+03  0.00000000000E+00 0.  1.
         14    1    4    4    0    0 -0.60989618916E+02  0.23791199750E+02 -0.12267627717E+03  0.13905115527E+03  0.00000000000E+00 0. -1.
         -5    1    5    5    0  502  0.11380841875E+03 -0.36396191935E+02 -0.11770950069E+03  0.16779349069E+03  0.47000000000E+01 0.  1.
         11    1    6    6    0    0 -0.16611142088E+02 -0.51648580856E+02 -0.18699852235E+03  0.19470992093E+03  0.00000000000E+00 0. -1.
        -12    1    6    6    0    0 -0.17834813110E+01 -0.63295946259E+01  0.76948199722E+01  0.10121997240E+02  0.00000000000E+00 0.  1.
</event>
<event>
12    1  0.9017558E-003  0.1821094E+03  0.7818608E-02  0.1166083E+00
         21   -1    0    0  501  502  0.00000000000E+00  0.00000000000E+00  0.73748837606E+03  0.73748837606E+03  0.00000000000E+00 0.  1.
         21   -1    0    0  502  503 -0.00000000000E+00 -0.00000000000E+00 -0.46947370880E+02  0.46947370880E+02  0.00000000000E+00 0.  1.
          6    2    1    2  501    0  0.57826496641E+02  0.68357033733E+01  0.43081875308E+03  0.46722999436E+03  0.17119707667E+03 0.  0.
         24    2    3    3    0    0  0.41578959195E+02 -0.31491794381E+02  0.17389591076E+03  0.20691400087E+03  0.99262646628E+02 0.  0.
         -6    2    1    2    0  503 -0.57826496641E+02 -0.68357033733E+01  0.25972225210E+03  0.31720575258E+03  0.17254915440E+03 0.  0.
        -24    2    5    5    0    0 -0.29140185416E+01  0.51024077611E+02  0.18314833467E+03  0.20653150384E+03  0.80622587299E+02 0.  0.
          5    1    3    3  501    0  0.16247537446E+02  0.38327497754E+02  0.25692284232E+03  0.26031599348E+03  0.47000000000E+01 0. -1.
        -13    1    4    4    0    0 -0.38992204264E+01  0.32340950141E+02  0.65473323633E+02  0.73129317537E+02  0.00000000000E+00 0.  1.
         14    1    4    4    0    0  0.45478179621E+02 -0.63832744522E+02  0.10842258713E+03  0.13378468334E+03  0.00000000000E+00 0. -1.
         -5    1    5    5    0  503 -0.54912478099E+02 -0.57859780985E+02  0.76573917422E+02  0.11067424875E+03  0.47000000000E+01 0.  1.
         11    1    6    6    0    0 -0.18412086320E+02  0.29698468025E+02  0.18026860007E+02  0.39318845448E+02  0.00000000000E+00 0. -1.
        -12    1    6    6    0    0  0.15498067778E+02  0.21325609587E+02  0.16512147467E+03  0.16721265839E+03  0.00000000000E+00 0.  1.
</event>
<event>
12    1  0.9017558E-003  0.1927502E+03  0.7818608E-02  0.1156408E+00
         21   -1    0    0  503  502  0.00000000000E+00  0.00000000000E+00  0.58934447067E+02  0.58934447067E+02  0.00000000000E+00 0. -1.
         21   -1    0    0  501  503 -0.00000000000E+00 -0.00000000000E+00 -0.71248175910E+03  0.71248175910E+03  0.00000000000E+00 0. -1.
          6    2    1    2  501    0  0.33948842004E+02  0.79230265645E+02 -0.46369108063E+03  0.50215739681E+03  0.17240265092E+03 0.  0.
         24    2    3    3    0    0 -0.48503183901E+02  0.38992090550E+02 -0.25021156499E+03  0.26975033816E+03  0.79287298539E+02 0.  0.
         -6    2    1    2    0  502 -0.33948842004E+02 -0.79230265645E+02 -0.18985623140E+03  0.26925880936E+03  0.17036712989E+03 0.  0.
        -24    2    5    5    0    0  0.42781435217E+02 -0.61173002038E+02 -0.86191885200E+02  0.13894385671E+03  0.79397524296E+02 0.  0.
          5    1    3    3  501    0  0.82452025905E+02  0.40238175095E+02 -0.21347951565E+03  0.23240705865E+03  0.47000000000E+01 0. -1.
        -13    1    4    4    0    0 -0.44997494685E+02 -0.13300632107E+02 -0.14124578027E+03  0.14883565362E+03  0.00000000000E+00 0.  1.
         14    1    4    4    0    0 -0.35056892161E+01  0.52292722657E+02 -0.10896578471E+03  0.12091468454E+03  0.00000000000E+00 0. -1.
         -5    1    5    5    0  502 -0.76730277221E+02 -0.18057263607E+02 -0.10366434620E+03  0.13031495265E+03  0.47000000000E+01 0.  1.
         13    1    6    6    0    0  0.27589762900E+02 -0.30402020704E+02  0.51424753301E+01  0.41375390419E+02  0.00000000000E+00 0. -1.
        -14    1    6    6    0    0  0.15191672317E+02 -0.30770981333E+02 -0.91334360531E+02  0.97568466287E+02  0.00000000000E+00 0.  1.
</event>
<event>
12    1  0.9017558E-003  0.1846400E+03  0.7818608E-02  0.1164263E+00
         21   -1    0    0  501  502  0.00000000000E+00  0.00000000000E+00  0.19154324722E+02  0.19154324722E+02  0.00000000000E+00 0. -1.
         21   -1    0    0  502  503 -0.00000000000E+00 -0.00000000000E+00 -0.22586294764E+04  0.22586294764E+04  0.00000000000E+00 0. -1.
          6    2    1    2  501    0 -0.65069626126E+02 -0.10846847525E+02 -0.56753651878E+03  0.59568074000E+03  0.16848184921E+03 0.  0.
         24    2    3    3    0    0  0.17727734529E+02  0.31190421639E+02 -0.30015242845E+03  0.31259263235E+03  0.79596221790E+02 0.  0.
         -6    2    1    2    0  503  0.65069626126E+02  0.10846847525E+02 -0.16719386329E+04  0.16821030611E+04  0.17245348854E+03 0.  0.
        -24    2    5    5    0    0  0.37433180875E+02  0.57928643508E+02 -0.14311418423E+04  0.14351503269E+04  0.82051916493E+02 0.  0.
          5    1    3    3  501    0 -0.82797360655E+02 -0.42037269164E+02 -0.26738409033E+03  0.28308810765E+03  0.47000000000E+01 0. -1.
        -13    1    4    4    0    0 -0.20349581503E+02  0.17423282654E+02 -0.23030613022E+03  0.23185898702E+03  0.00000000000E+00 0.  1.
         14    1    4    4    0    0  0.38077316032E+02  0.13767138986E+02 -0.69846298230E+02  0.80733645332E+02  0.00000000000E+00 0. -1.
         -5    1    5    5    0  503  0.27636445251E+02 -0.47081795983E+02 -0.24079679054E+03  0.24695273425E+03  0.47000000000E+01 0.  1.
         13    1    6    6    0    0  0.60619230072E+02  0.22839829053E+02 -0.80993442206E+03  0.81252084089E+03  0.00000000000E+00 0. -1.
        -14    1    6    6    0    0 -0.23186049197E+02  0.35088814456E+02 -0.62120742028E+03  0.62262948596E+03  0.00000000000E+00 0.  1.
</event>
<event>
12    1  0.9017558E-003  0.2345308E+03  0.7818608E-02  0.1123887E+00
         21   -1    0    0  503  502  0.00000000000E+00  0.00000000000E+00  0.27063127182E+03  0.27063127182E+03  0.00000000000E+00 0.  1.
         21   -1    0    0  501  503 -0.00000000000E+00 -0.00000000000E+00 -0.20190716936E+03  0.20190716936E+03  0.00000000000E+00 0. -1.
          6    2    1    2  501    0 -0.15790288191E+03  0.23440224785E+02  0.20808167978E+02  0.23316297712E+03  0.16866899476E+03 0.  0.
         24    2    3    3    0    0 -0.94470994726E+02 -0.17387020363E+02  0.69493338532E+02  0.14325856071E+03  0.80415258476E+02 0.  0.
         -6    2    1    2    0  502  0.15790288191E+03 -0.23440224785E+02  0.47915934477E+02  0.23937546406E+03  0.17181941615E+03 0.  0.
        -24    2    5    5    0    0  0.88015635711E+02 -0.51294941593E+02 -0.27570000329E+02  0.13269684023E+03  0.80438941601E+02 0.  0.
          5    1    3    3  501    0 -0.63431887182E+02  0.40827245148E+02 -0.48685170554E+02  0.89904416408E+02  0.47000000000E+01 0. -1.
        -11    1    4    4    0    0 -0.72127129494E+02 -0.25946156510E+02  0.77519606207E+01  0.77042966844E+02  0.00000000000E+00 0.  1.
         12    1    4    4    0    0 -0.22343865232E+02  0.85591361476E+01  0.61741377911E+02  0.66215593870E+02  0.00000000000E+00 0. -1.
         -5    1    5    5    0  502  0.69887246197E+02  0.27854716808E+02  0.75485934805E+02  0.10667862383E+03  0.47000000000E+01 0.  1.
         11    1    6    6    0    0 -0.53206728241E+01  0.78587464099E+01 -0.19757183315E+02  0.21918388330E+02  0.00000000000E+00 0. -1.
        -12    1    6    6    0    0  0.93336308535E+02 -0.59153688003E+02 -0.78128170132E+01  0.11077845190E+03  0.00000000000E+00 0.  1.
</event>
<event>
12    1  0.9017558E-003  0.1850600E+03  0.7818608E-02  0.1163439E+00
         21   -1    0    0  503  502  0.00000000000E+00  0.00000000000E+00  0.14953887847E+03  0.14953887847E+03  0.00000000000E+00 0. -1.
         21   -1    0    0  501  503 -0.00000000000E+00 -0.00000000000E+00 -0.23049298947E+03  0.23049298947E+03  0.00000000000E+00 0. -1.
          6    2    1    2  501    0  0.21304069792E+02 -0.61354874033E+02 -0.16227027183E+02  0.18577008225E+03  0.17328855441E+03 0.  0.
         24    2    3    3    0    0 -0.47886446529E+02 -0.12388881813E+02 -0.12671201770E+02  0.10080108886E+03  0.86912047538E+02 0.  0.
         -6    2    1    2    0  502 -0.21304069792E+02  0.61354874033E+02 -0.64727083819E+02  0.19426178570E+03  0.17125934149E+03 0.  0.
        -24    2    5    5    0    0  0.24568584372E+02 -0.30355070094E+01  0.12985729759E+02  0.83303266580E+02  0.78472768555E+02 0.  0.
          5    1    3    3  501    0  0.69190516321E+02 -0.48965992221E+02 -0.35558254131E+01  0.84968993388E+02  0.47000000000E+01 0. -1.
        -13    1    4    4    0    0 -0.32570986837E+01  0.15800510516E+02 -0.38713220067E+02  0.41940174444E+02  0.00000000000E+00 0.  1.
         14    1    4    4    0    0 -0.44629347846E+02 -0.28189392328E+02  0.26042018297E+02  0.58860914416E+02  0.00000000000E+00 0. -1.
         -5    1    5    5    0  502 -0.45872654163E+02  0.64390381043E+02 -0.77712813578E+02  0.11095851912E+03  0.47000000000E+01 0.  1.
         11    1    6    6    0    0  0.28503239629E+02  0.34367248085E+02  0.59919681931E+01  0.45049373948E+02  0.00000000000E+00 0. -1.
        -12    1    6    6    0    0 -0.39346552578E+01 -0.37402755094E+02  0.69937615660E+01  0.38253892632E+02  0.00000000000E+00 0.  1.
</event>
<event>
12    1  0.9017558E-003  0.2345834E+03  0.7818608E-02  0.1123687E+00
         21   -1    0    0  503  502  0.00000000000E+00  0.00000000000E+00  0.84910416980E+03  0.84910416980E+03  0.00000000000E+00 0.  1.
         21   -1    0    0  501  503 -0.00000000000E+00 -0.00000000000E+00 -0.64444970288E+02  0.64444970288E+02  0.00000000000E+00 0. -1.
          6    2    1    2  501    0  0.46766181519E+02 -0.15023904138E+03  0.39657683192E+03  0.46007663024E+03  0.17215828992E+03 0.  0.
         24    2    3    3    0    0  0.98171925704E+02 -0.11309613292E+03  0.29298672439E+03  0.33852356955E+03  0.79552021951E+02 0.  0.
         -6    2    1    2    0  502 -0.46766181519E+02  0.15023904138E+03  0.38808236759E+03  0.45347250984E+03  0.17398433223E+03 0.  0.
        -24    2    5    5    0    0 -0.24246576621E+02  0.85952917949E+02  0.36014478824E+03  0.37969963806E+03  0.80571372512E+02 0.  0.
          5    1    3    3  501    0 -0.51405744185E+02 -0.37142908467E+02  0.10359010753E+03  0.12155306069E+03  0.47000000000E+01 0. -1.
        -11    1    4    4    0    0  0.58851918203E+02 -0.14209062473E+02  0.78951641588E+02  0.99492750701E+02  0.00000000000E+00 0.  1.
         12    1    4    4    0    0  0.39320007501E+02 -0.98887070443E+02  0.21403508280E+03  0.23903081885E+03  0.00000000000E+00 0. -1.
         -5    1    5    5    0  502 -0.22519604898E+02  0.64286123434E+02  0.27937579352E+02  0.73772871783E+02  0.47000000000E+01 0.  1.
         11    1    6    6    0    0 -0.14506807071E+02 -0.98422862439E+01  0.22099599948E+02  0.28208338621E+02  0.00000000000E+00 0. -1.
        -12    1    6    6    0    0 -0.97397695496E+01  0.95795204193E+02  0.33804518829E+03  0.35149129944E+03  0.00000000000E+00 0.  1.
</event>
<event>
12    1  0.9017558E-003  0.3050666E+03  0.7818608E-02  0.1082819E+00
         21   -1    0    0  503  502  0.00000000000E+00  0.00000000000E+00  0.12136733198E+03  0.12136733198E+03  0.00000000000E+00 0. -1.
         21   -1    0    0  501  503 -0.00000000000E+00 -0.00000000000E+00 -0.81712208987E+03  0.81712208987E+03  0.00000000000E+00 0.  1.
          6    2    1    2  501    0  0.98909999837E+02 -0.23098463145E+03 -0.46592586450E+03  0.55653789336E+03  0.17178599334E+03 0.  0.
         24    2    3    3    0    0  0.25151819327E+02 -0.52171702181E+02 -0.23373233509E+03  0.25429584142E+03  0.81737812370E+02 0.  0.
         -6    2    1    2    0  502 -0.98909999837E+02  0.23098463145E+03 -0.22982889339E+03  0.38195152848E+03  0.17299873362E+03 0.  0.
        -24    2    5    5    0    0  0.15988996008E+02  0.12215660119E+03 -0.95281369661E+02  0.17417654067E+03  0.77981053512E+02 0.  0.
          5    1    3    3  501    0  0.73758180510E+02 -0.17881292927E+03 -0.23219352941E+03  0.30224205195E+03  0.47000000000E+01 0. -1.
        -13    1    4    4    0    0  0.18734682231E+02 -0.67117397906E+02 -0.22558879670E+03  0.23610599021E+03  0.00000000000E+00 0.  1.
         14    1    4    4    0    0  0.64171370959E+01  0.14945695725E+02 -0.81435383945E+01  0.18189851203E+02  0.00000000000E+00 0. -1.
         -5    1    5    5    0  502 -0.11489899585E+03  0.10882803026E+03 -0.13454752373E+03  0.20777498781E+03  0.47000000000E+01 0.  1.
         13    1    6    6    0    0  0.21387715602E+02  0.13221511110E+03 -0.83821512311E+02  0.15800099971E+03  0.00000000000E+00 0. -1.
        -14    1    6    6    0    0 -0.53987195943E+01 -0.10058509911E+02 -0.11459857350E+02  0.16175540961E+02  0.00000000000E+00 0.  1.
</event>
<event>
12    1  0.9017558E-003  0.2220036E+03  0.7818608E-02  0.1132466E+00
         21   -1    0    0  503  502  0.00000000000E+00  0.00000000000E+00  0.83136873346E+03  0.83136873346E+03  0.00000000000E+00 0.  1.
         21   -1    0    0  501  503 -0.00000000000E+00 -0.00000000000E+00 -0.59602196936E+02  0.59602196936E+02  0.00000000000E+00 0.  1.
          6    2    1    2  501    0  0.13990528033E+03  0.19341583198E+02  0.42350351292E+03  0.47816401157E+03  0.17128342650E+03 0.  0.
         24    2    3    3    0    0  0.99788642457E+02  0.80613330092E+02  0.27349710228E+03  0.31116824864E+03  0.74623936191E+02 0.  0.
         -6    2    1    2    0  502 -0.13990528033E+03 -0.19341583198E+02  0.34826302360E+03  0.41280691883E+03  0.17080642353E+03 0.  0.
        -24    2    5    5    0    0 -0.13895243302E+02 -0.27734223994E+02  0.20584764062E+03  0.22240419521E+03  0.78282245315E+02 0.  0.
          5    1    3    3  501    0  0.40116637878E+02 -0.61271746894E+02  0.15000641064E+03  0.16699576293E+03  0.47000000000E+01 0. -1.
        -11    1    4    4    0    0  0.52639528316E+02  0.12589726939E+02  0.17137091010E+03  0.17971480182E+03  0.00000000000E+00 0.  1.
         12    1    4    4    0    0  0.47149114141E+02  0.68023603154E+02  0.10212619218E+03  0.13145344682E+03  0.00000000000E+00 0. -1.
         -5    1    5    5    0  502 -0.12601003703E+03  0.83926407960E+01  0.14241538299E+03  0.19040272362E+03  0.47000000000E+01 0.  1.
         13    1    6    6    0    0 -0.26634010122E+02  0.10820273557E+02  0.15342647966E+03  0.15609655178E+03  0.00000000000E+00 0. -1.
        -14    1    6    6    0    0  0.12738766819E+02 -0.38554497552E+02  0.52421160954E+02  0.66307643430E+02  0.00000000000E+00 0.  1.
</event>
<event>
12    1  0.9017558E-003  0.3685909E+03  0.7818608E-02  0.1055262E+00
         21   -1    0    0  501  502  0.00000000000E+00  0.00000000000E+00  0.80630962037E+03  0.80630962037E+03  0.00000000000E+00 0.  1.
         21   -1    0    0  502  503 -0.00000000000E+00 -0.00000000000E+00 -0.19395691064E+03  0.19395691064E+03  0.00000000000E+00 0.  1.
          6    2    1    2  501    0  0.30734767172E+03 -0.10813966851E+03  0.48776428815E+03  0.61118870118E+03  0.17169987898E+03 0.  0.
         24    2    3    3    0    0  0.27304194591E+03 -0.12149310994E+03  0.48210061778E+03  0.57364719904E+03  0.85659928286E+02 0.  0.
         -6    2    1    2    0  503 -0.30734767172E+03  0.10813966851E+03  0.12458842159E+03  0.38907782983E+03  0.17234414309E+03 0.  0.
        -24    2    5    5    0    0 -0.29833338676E+03  0.87702944046E+02  0.15089744251E+03  0.35424721654E+03  0.77630124463E+02 0.  0.
          5    1    3    3  501    0  0.34305725807E+02  0.13353441426E+02  0.56636703713E+01  0.37541502143E+02  0.47000000000E+01 0. -1.
        -11    1    4    4    0    0  0.27880993278E+03 -0.11589880131E+03  0.46111267611E+03  0.55117366667E+03  0.00000000000E+00 0.  1.
         12    1    4    4    0    0 -0.57679868719E+01 -0.55943086230E+01  0.20987941671E+02  0.22473532369E+02  0.00000000000E+00 0. -1.
         -5    1    5    5    0  503 -0.90142849596E+01  0.20436724466E+02 -0.26309020923E+02  0.34830613290E+02  0.47000000000E+01 0.  1.
         11    1    6    6    0    0 -0.11609101103E+03  0.32457776759E+02  0.10131723140E+03  0.15746685839E+03  0.00000000000E+00 0. -1.
        -12    1    6    6    0    0 -0.18224237573E+03  0.55245167287E+02  0.49580211110E+02  0.19678035815E+03  0.00000000000E+00 0.  1.
</event>
<event>
12    1  0.9017558E-003  0.1837674E+03  0.7818608E-02  0.1164232E+00
         21   -1    0    0  503  502  0.00000000000E+00  0.00000000000E+00  0.43112527504E+03  0.43112527504E+03  0.00000000000E+00 0. -1.
         21   -1    0    0  501  503 -0.00000000000E+00 -0.00000000000E+00 -0.84632218454E+02  0.84632218454E+02  0.00000000000E+00 0. -1.
          6    2    1    2  501    0  0.42929973308E+02 -0.48109429394E+02  0.24382454806E+03  0.30525506250E+03  0.17196727347E+03 0.  0.
         24    2    3    3    0    0 -0.27309251510E+02 -0.60826983963E+02  0.18104491459E+03  0.21007808380E+03  0.83125345096E+02 0.  0.
         -6    2    1    2    0  502 -0.42929973308E+02  0.48109429394E+02  0.10266850853E+03  0.21050243099E+03  0.17208413931E+03 0.  0.
        -24    2    5    5    0    0 -0.66053454976E+02 -0.25475669954E+02  0.48281267205E+02  0.11600627091E+03  0.78194024413E+02 0.  0.
          5    1    3    3  501    0  0.70239224818E+02  0.12717554569E+02  0.62779633463E+02  0.95176978702E+02  0.47000000000E+01 0. -1.
        -11    1    4    4    0    0 -0.29244344822E+02  0.56780207704E+01  0.10448012456E+03  0.10864422696E+03  0.00000000000E+00 0.  1.
         12    1    4    4    0    0  0.19350933122E+01 -0.66505004733E+02  0.76564790038E+02  0.10143385684E+03  0.00000000000E+00 0. -1.
         -5    1    5    5    0  502  0.23123481669E+02  0.73585099348E+02  0.54387241323E+02  0.94496160076E+02  0.47000000000E+01 0.  1.
         13    1    6    6    0    0 -0.18757092211E+02  0.21303880004E+02  0.39887525201E+02  0.48956087243E+02  0.00000000000E+00 0. -1.
        -14    1    6    6    0    0 -0.47296362765E+02 -0.46779549959E+02  0.83937420039E+01  0.67050183669E+02  0.00000000000E+00 0.  1.
</event>
<event>
12    1  0.9017558E-003  0.2054491E+03  0.7818608E-02  0.1145466E+00
         21   -1    0    0  501  502  0.00000000000E+00  0.00000000000E+00  0.48062101866E+03  0.48062101866E+03  0.00000000000E+00 0. -1.
         21   -1    0    0  502  503 -0.00000000000E+00 -0.00000000000E+00 -0.88582283630E+02  0.88582283630E+02  0.00000000000E+00 0. -1.
          6    2    1    2  501    0  0.40291956016E+02 -0.10590036779E+03  0.23067735806E+03  0.30890352545E+03  0.17137973886E+03 0.  0.
         24    2    3    3    0    0 -0.28737995183E+02 -0.10520975613E+02  0.85910367150E+02  0.12224358258E+03  0.81402327991E+02 0.  0.
         -6    2    1    2    0  503 -0.40291956016E+02  0.10590036779E+03  0.16136137697E+03  0.26029977685E+03  0.16994160830E+03 0.  0.
        -24    2    5    5    0    0 -0.23472995813E+02  0.14100053001E+03  0.12219838792E+03  0.20488562232E+03  0.81323681836E+02 0.  0.
          5    1    3    3  501    0  0.69029951199E+02 -0.95379392177E+02  0.14476699091E+03  0.18665994287E+03  0.47000000000E+01 0. -1.
        -11    1    4    4    0    0 -0.72042865098E+01  0.42723576480E+00 -0.15977123447E+02  0.17531478779E+02  0.00000000000E+00 0.  1.
         12    1    4    4    0    0 -0.21533708673E+02 -0.10948211378E+02  0.10188749060E+03  0.10471210380E+03  0.00000000000E+00 0. -1.
         -5    1    5    5    0  503 -0.16818960202E+02 -0.35100162222E+02  0.39162989050E+02  0.55414154524E+02  0.47000000000E+01 0.  1.
         13    1    6    6    0    0 -0.47022208877E+02  0.11496267703E+03  0.11452754883E+03  0.16894988807E+03  0.00000000000E+00 0. -1.
        -14    1    6    6    0    0  0.23549213064E+02  0.26037852987E+02  0.76708390915E+01  0.35935734256E+02  0.00000000000E+00 0.  1.
</event>
<event>
12    1  0.9017558E-003  0.2092050E+03  0.7818608E-02  0.1142445E+00
         21   -1    0    0  503  502  0.00000000000E+00  0.00000000000E+00  0.23453721171E+03  0.23453721171E+03  0.00000000000E+00 0.  1.
         21   -1    0    0  501  503 -0.00000000000E+00 -0.00000000000E+00 -0.20042512907E+03  0.20042512907E+03  0.00000000000E+00 0. -1.
          6    2    1    2  501    0 -0.53574075329E+02 -0.10397806324E+03 -0.42243471286E+02  0.21342735079E+03  0.17345058090E+03 0.  0.
         24    2    3    3    0    0 -0.80486209382E+02 -0.35576009208E+02 -0.65035218842E+02  0.13632574437E+03  0.81310802212E+02 0.  0.
         -6    2    1    2    0  502  0.53574075329E+02  0.10397806324E+03  0.76355553926E+02  0.22153498999E+03  0.17194755593E+03 0.  0.
        -24    2    5    5    0    0  0.93425907337E+02  0.11121070496E+03  0.49788068019E+02  0.17286877041E+03  0.79426311795E+02 0.  0.
          5    1    3    3  501    0  0.26912134052E+02 -0.68402054037E+02  0.22791747556E+02  0.77101606419E+02  0.47000000000E+01 0. -1.
        -13    1    4    4    0    0 -0.16273823746E+02  0.22311570155E+02  0.84928282749E+00  0.27629056868E+02  0.00000000000E+00 0.  1.
         14    1    4    4    0    0 -0.64212385636E+02 -0.57887579363E+02 -0.65884501670E+02  0.10869668750E+03  0.00000000000E+00 0. -1.
         -5    1    5    5    0  502 -0.39851832008E+02 -0.72326417198E+01  0.26567485907E+02  0.48666219579E+02  0.47000000000E+01 0.  1.
         13    1    6    6    0    0  0.47839132458E+01  0.37015711681E+02 -0.15150973946E+02  0.40281518699E+02  0.00000000000E+00 0. -1.
        -14    1    6    6    0    0  0.88641994091E+02  0.74194993284E+02  0.64939041965E+02  0.13258725171E+03  0.00000000000E+00 0.  1.
</event>
<event>
12    1  0.9017558E-003  0.1829474E+03  0.7818608E-02  0.1165329E+00
         21   -1    0    0  501  502  0.00000000000E+00  0.00000000000E+00  0.16173231410E+03  0.16173231410E+03  0.00000000000E+00 0. -1.
         21   -1    0    0  502  503 -0.00000000000E+00 -0.00000000000E+00 -0.20624335466E+03  0.20624335466E+03  0.00000000000E+00 0. -1.
          6    2    1    2  501    0  0.50247291700E+00  0.61906979531E+02 -0.96676027825E+01  0.18173979843E+03  0.17059649819E+03 0.  0.
         24    2    3    3    0    0  0.54510403550E+02  0.26226195341E+02 -0.37775593189E+02  0.11101410256E+03  0.85076072478E+02 0.  0.
         -6    2    1    2    0  503 -0.50247291700E+00 -0.61906979531E+02 -0.34843437771E+02  0.18623587033E+03  0.17215402304E+03 0.  0.
        -24    2    5    5    0    0  0.88772095620E+01 -0.10223260497E+03  0.24327722755E+01  0.13032754943E+03  0.80305923768E+02 0.  0.
          5    1    3    3  501    0 -0.54007930633E+02  0.35680784190E+02  0.28107990406E+02  0.70725695871E+02  0.47000000000E+01 0. -1.
        -11    1    4    4    0    0  0.78690667379E+01 -0.10305591435E+02  0.22833891446E+02  0.26258599062E+02  0.00000000000E+00 0.  1.
         12    1    4    4    0    0  0.46641336813E+02  0.36531786776E+02 -0.60609484635E+02  0.84755503493E+02  0.00000000000E+00 0. -1.
         -5    1    5    5    0  503 -0.93796824790E+01  0.40325625437E+02 -0.37276210046E+02  0.55908320898E+02  0.47000000000E+01 0.  1.
         11    1    6    6    0    0 -0.85816561395E+01 -0.36462529983E+02  0.38158311179E+02  0.53471652554E+02  0.00000000000E+00 0. -1.
        -12    1    6    6    0    0  0.17458865701E+02 -0.65770074984E+02 -0.35725538904E+02  0.76855896878E+02  0.00000000000E+00 0.  1.
</event>
<event>
12    1  0.9017558E-003  0.4612170E+03  0.7818608E-02  0.1024438E+00
         21   -1    0    0  503  502  0.00000000000E+00  0.00000000000E+00  0.76882004368E+03  0.76882004368E+03  0.00000000000E+00 0.  1.
         21   -1    0    0  501  503 -0.00000000000E+00 -0.00000000000E+00 -0.40794436892E+03  0.40794436892E+03  0.00000000000E+00 0. -1.
          6    2    1    2  501    0  0.34694858561E+03 -0.25060159715E+03 -0.15339403212E+03  0.48605644815E+03  0.17189141965E+03 0.  0.
         24    2    3    3    0    0  0.15483493758E+03 -0.79814100756E+02 -0.11636017483E+02  0.19246924237E+03  0.81023846986E+02 0.  0.
         -6    2    1    2    0  502 -0.34694858561E+03  0.25060159715E+03  0.51426970689E+03  0.69070796445E+03  0.17155080641E+03 0.  0.
        -24    2    5    5    0    0 -0.60056447496E+02  0.54586721740E+02  0.13885698179E+03  0.17915568515E+03  0.78924084109E+02 0.  0.
          5    1    3    3  501    0  0.19211364803E+03 -0.17078749639E+03 -0.14175801464E+03  0.29358720578E+03  0.47000000000E+01 0. -1.
        -11    1    4    4    0    0  0.73922061319E+02 -0.28300769191E+02  0.34120474085E+02  0.86195193824E+02  0.00000000000E+00 0.  1.
         12    1    4    4    0    0  0.80912876266E+02 -0.51513331564E+02 -0.45756491568E+02  0.10627404855E+03  0.00000000000E+00 0. -1.
         -5    1    5    5    0  502 -0.28689213812E+03  0.19601487541E+03  0.37541272510E+03  0.51155227930E+03  0.47000000000E+01 0.  1.
         11    1    6    6    0    0 -0.60296564179E+00  0.51677949269E+02  0.81424623329E+02  0.96441398229E+02  0.00000000000E+00 0. -1.
        -12    1    6    6    0    0 -0.59453481854E+02  0.29087724714E+01  0.57432358463E+02  0.82714286919E+02  0.00000000000E+00 0.  1.
</event>
<event>
12    1  0.9017558E-003  0.2748720E+03  0.7818608E-02  0.1098716E+00
         21   -1    0    0  503  502  0.00000000000E+00  0.00000000000E+00  0.30333956041E+03  0.30333956041E+03  0.00000000000E+00 0. -1.
         21   -1    0    0  501  503 -0.00000000000E+00 -0.00000000000E+00 -0.26916750804E+03  0.26916750804E+03  0.00000000000E+00 0. -1.
          6    2    1    2  501    0 -0.20198862003E+03 -0.68159294936E+02 -0.63463322600E+02  0.28210314257E+03  0.17352088528E+03 0.  0.
         24    2    3    3    0    0 -0.29917103812E+02 -0.58253131977E+02 -0.28661129915E+02  0.10620538428E+03  0.78547201072E+02 0.  0.
         -6    2    1    2    0  502  0.20198862003E+03  0.68159294936E+02  0.97635374968E+02  0.29040392588E+03  0.17133791646E+03 0.  0.
        -24    2    5    5    0    0  0.22408337139E+03  0.59819486813E+02  0.71383793225E+02  0.25478137711E+03  0.77628447417E+02 0.  0.
          5    1    3    3  501    0 -0.17207151622E+03 -0.99061629597E+01 -0.34802192684E+02  0.17589775829E+03  0.47000000000E+01 0. -1.
        -13    1    4    4    0    0 -0.12262549026E+02 -0.25528536469E+02 -0.54160901980E+02  0.61118569897E+02  0.00000000000E+00 0.  1.
         14    1    4    4    0    0 -0.17654554786E+02 -0.32724595507E+02  0.25499772065E+02  0.45086814383E+02  0.00000000000E+00 0. -1.
         -5    1    5    5    0  502 -0.22094751364E+02  0.83398081238E+01  0.26251581743E+02  0.35622548778E+02  0.47000000000E+01 0.  1.
         13    1    6    6    0    0  0.16442549485E+03  0.52689650478E+02  0.16574340800E+02  0.17345504143E+03  0.00000000000E+00 0. -1.
        -14    1    6    6    0    0  0.59657876541E+02  0.71298363347E+01  0.54809452425E+02  0.81326335677E+02  0.00000000000E+00 0.  1.
</event>
<event>
12    1  0.9017558E-003  0.1796840E+03  0.7818608E-02  0.1168683E+00
         21   -1    0    0  503  502  0.00000000000E+00  0.00000000000E+00  0.36531062162E+03  0.36531062162E+03  0.00000000000E+00 0. -1.
         21   -1    0    0  501  503 -0.00000000000E+00 -0.00000000000E+00 -0.10148210679E+03  0.10148210679E+03  0.00000000000E+00 0. -1.
          6    2    1    2  501    0 -0.40760044845E+02  0.28649049607E+02  0.43698583839E+02  0.18263865078E+03  0.17019154276E+03 0.  0.
         24    2    3    3    0    0  0.33496913100E+02  0.45228627411E+02  0.13403316296E+02  0.10060895226E+03  0.82309419036E+02 0.  0.
         -6    2    1    2    0  502  0.40760044845E+02 -0.28649049607E+02  0.22012993099E+03  0.28415407764E+03  0.17263894121E+03 0.  0.
        -24    2    5    5    0    0 -0.81730528965E+01 -0.69760776847E+02  0.17828023543E+03  0.20761579187E+03  0.79919396304E+02 0.  0.
          5    1    3    3  501    0 -0.74256957945E+02 -0.16579577804E+02  0.30295267543E+02  0.82029698517E+02  0.47000000000E+01 0. -1.
        -11    1    4    4    0    0 -0.69703708054E+01  0.24721603991E+02  0.40358264243E+02  0.47838616888E+02  0.00000000000E+00 0.  1.
         12    1    4    4    0    0  0.40467283906E+02  0.20507023420E+02 -0.26954947947E+02  0.52770335370E+02  0.00000000000E+00 0. -1.
         -5    1    5    5    0  502  0.48933097741E+02  0.41111727240E+02  0.41849695551E+02  0.76538285772E+02  0.47000000000E+01 0.  1.
         11    1    6    6    0    0 -0.15366747320E+02 -0.18425352374E+02  0.14279461170E+03  0.14479617282E+03  0.00000000000E+00 0. -1.
        -12    1    6    6    0    0  0.71936944231E+01 -0.51335424473E+02  0.35485623739E+02  0.62819619048E+02  0.00000000000E+00 0.  1.
</event>
<event>
12    1  0.9017558E-003  0.1972174E+03  0.7818608E-02  0.1152494E+00
         21   -1    0    0  501  502  0.00000000000E+00  0.00000000000E+00  0.44242107993E+03  0.44242107993E+03  0.00000000000E+00 0.  1.
         21   -1    0    0  502  503 -0.00000000000E+00 -0.00000000000E+00 -0.92055417961E+02  0.92055417961E+02  0.00000000000E+00 0. -1.
          6    2    1    2  501    0 -0.96061321685E+02  0.61037673614E+00  0.11254520819E+03  0.22552138739E+03  0.17019201568E+03 0.  0.
         24    2    3    3    0    0 -0.10068887239E+03 -0.35518956444E+02  0.12898222898E+03  0.18528448152E+03  0.79335228053E+02 0.  0.
         -6    2    1    2    0  503  0.96061321685E+02 -0.61037673614E+00  0.23782045378E+03  0.30895511050E+03  0.17223978050E+03 0.  0.
        -24    2    5    5    0    0  0.54430826976E+02 -0.32849988392E+02  0.52289190356E+02  0.11603950627E+03  0.81787351858E+02 0.  0.
          5    1    3    3  501    0  0.46275507013E+01  0.36129333180E+02 -0.16437020790E+02  0.40236905870E+02  0.47000000000E+01 0. -1.
        -11    1    4    4    0    0 -0.13496862601E+02  0.19982412604E+02  0.48937061060E+02  0.54555458560E+02  0.00000000000E+00 0.  1.
         12    1    4    4    0    0 -0.87192009785E+02 -0.55501369048E+02  0.80045167917E+02  0.13072902296E+03  0.00000000000E+00 0. -1.
         -5    1    5    5    0  503  0.41630494709E+02  0.32239611656E+02  0.18553126343E+03  0.19291560424E+03  0.47000000000E+01 0.  1.
         11    1    6    6    0    0 -0.15021289090E+02  0.16578379780E+01  0.32742140327E+02  0.36061548856E+02  0.00000000000E+00 0. -1.
        -12    1    6    6    0    0  0.69452116066E+02 -0.34507826370E+02  0.19547050029E+02  0.79977957411E+02  0.00000000000E+00 0.  1.
</event>
<event>
12    1  0.9017558E-003  0.1812788E+03  0.7818608E-02  0.1166761E+00
         21   -1    0    0  503  502  0.00000000000E+00  0.00000000000E+00  0.12618375854E+03  0.12618375854E+03  0.00000000000E+00 0.  1.
         21   -1    0    0  501  503 -0.00000000000E+00 -0.00000000000E+00 -0.26076291192E+03  0.26076291192E+03  0.00000000000E+00 0. -1.
          6    2    1    2  501    0 -0.50636654923E+02  0.20314966628E+02 -0.52643011160E+02  0.18801064333E+03  0.17204635042E+03 0.  0.
         24    2    3    3    0    0 -0.85502624920E+01 -0.52083908251E+02 -0.23514413881E+02  0.99221980257E+02  0.80661225000E+02 0.  0.
         -6    2    1    2    0  502  0.50636654923E+02 -0.20314966628E+02 -0.81936142216E+02  0.19893602712E+03  0.17287348783E+03 0.  0.
        -24    2    5    5    0    0  0.21431555280E+02 -0.71107947752E+02 -0.86381626662E+02  0.13998929601E+03  0.81360713971E+02 0.  0.
          5    1    3    3  501    0 -0.42086392431E+02  0.72398874879E+02 -0.29128597280E+02  0.88788663077E+02  0.47000000000E+01 0. -1.
        -13    1    4    4    0    0 -0.17822508937E+02  0.17423830634E+02  0.97953646448E+00  0.24943760552E+02  0.00000000000E+00 0.  1.
         14    1    4    4    0    0  0.92722464453E+01 -0.69507738885E+02 -0.24493950345E+02  0.74278219705E+02  0.00000000000E+00 0. -1.
         -5    1    5    5    0  502  0.29205099643E+02  0.50792981125E+02  0.44454844465E+01  0.58946731111E+02  0.47000000000E+01 0.  1.
         13    1    6    6    0    0  0.23426189398E+02 -0.74586478344E+02 -0.30427017790E+02  0.83891194490E+02  0.00000000000E+00 0. -1.
        -14    1    6    6    0    0 -0.19946341180E+01  0.34785305912E+01 -0.55954608872E+02  0.56098101522E+02  0.00000000000E+00 0.  1.
</event>
<event>
12    1  0.9017558E-003  0.1781927E+03  0.7818608E-02  0.1169742E+00
         21   -1    0    0  503  502  0.00000000000E+00  0.00000000000E+00  0.45291386622E+02  0.45291386622E+02  0.00000000000E+00 0. -1.
         21   -1    0    0  501  503 -0.00000000000E+00 -0.00000000000E+00 -0.73105630351E+03  0.73105630351E+03  0.00000000000E+00 0. -1.
          6    2    1    2  501    0  0.30291647261E+01 -0.42963009364E+02 -0.26127945713E+03  0.31625871866E+03  0.17290930106E+03 0.  0.
         24    2    3    3    0    0 -0.55881712038E+02 -0.29631463899E+02 -0.22180778674E+03  0.24395156639E+03  0.79453653728E+02 0.  0.
         -6    2    1    2    0  502 -0.30291647261E+01  0.42963009364E+02 -0.42448545976E+03  0.46008897148E+03  0.17215969365E+03 0.  0.
        -24    2    5    5    0    0  0.92928748992E+01 -0.31931545221E+02 -0.13771790943E+03  0.16340943917E+03  0.81427520713E+02 0.  0.
          5    1    3    3  501    0  0.58910876764E+02 -0.13331545465E+02 -0.39471670389E+02  0.72307152267E+02  0.47000000000E+01 0. -1.
        -13    1    4    4    0    0  0.56913822531E+00  0.19459784277E+02 -0.16780179913E+02  0.25701781268E+02  0.00000000000E+00 0.  1.
         14    1    4    4    0    0 -0.56450850263E+02 -0.49091248176E+02 -0.20502760683E+03  0.21824978512E+03  0.00000000000E+00 0. -1.
         -5    1    5    5    0  502 -0.12322039625E+02  0.74894554585E+02 -0.28676755033E+03  0.29667953231E+03  0.47000000000E+01 0.  1.
         13    1    6    6    0    0  0.18383398832E+02 -0.17170970827E+02 -0.56124627726E+00  0.25161609431E+02  0.00000000000E+00 0. -1.
        -14    1    6    6    0    0 -0.90905239325E+01 -0.14760574394E+02 -0.13715666315E+03  0.13824782974E+03  0.00000000000E+00 0.  1.
</event>
<event>
12    1  0.9017558E-003  0.2069885E+03  0.7818608E-02  0.1144108E+00
         21   -1    0    0  501  502  0.00000000000E+00  0.00000000000E+00  0.40164680284E+02  0.40164680284E+02  0.00000000000E+00 0.  1.
         21   -1    0    0  502  503 -0.00000000000E+00 -0.00000000000E+00 -0.11435805530E+04  0.11435805530E+04  0.00000000000E+00 0.  1.
          6    2    1    2  501    0 -0.52866433026E+02  0.10110079760E+03 -0.70771240125E+03  0.73717445001E+03  0.17191013886E+03 0.  0.
         24    2    3    3    0    0  0.13242826745E+02  0.99953618569E+01 -0.16971391883E+03  0.18750628490E+03  0.77977643667E+02 0.  0.
         -6    2    1    2    0  503  0.52866433026E+02 -0.10110079760E+03 -0.39570347150E+03  0.44657078331E+03  0.17270783461E+03 0.  0.
        -24    2    5    5    0    0 -0.22819598822E+02 -0.14369645148E+02 -0.11065098301E+03  0.13911724306E+03  0.79892092739E+02 0.  0.
          5    1    3    3  501    0 -0.66109259771E+02  0.91105435740E+02 -0.53799848242E+03  0.54966816511E+03  0.47000000000E+01 0. -1.
        -11    1    4    4    0    0 -0.18311009766E+02  0.27089324025E+01 -0.43677713824E+01  0.19018644018E+02  0.00000000000E+00 0.  1.
         12    1    4    4    0    0  0.31553836511E+02  0.72864294544E+01 -0.16534614745E+03  0.16848764088E+03  0.00000000000E+00 0. -1.
         -5    1    5    5    0  503  0.75686031848E+02 -0.86731152449E+02 -0.28505248849E+03  0.30745354025E+03  0.47000000000E+01 0.  1.
         11    1    6    6    0    0 -0.97333021752E+01  0.31399133255E+02 -0.25656410898E+02  0.41700049886E+02  0.00000000000E+00 0. -1.
        -12    1    6    6    0    0 -0.13086296647E+02 -0.45768778403E+02 -0.84994572116E+02  0.97417193173E+02  0.00000000000E+00 0.  1.
</event>
<event>
12    1  0.9017558E-003  0.1800071E+03  0.7818608E-02  0.1167993E+00
         21   -1    0    0  503  502  0.00000000000E+00  0.00000000000E+00  0.25318989862E+03  0.25318989862E+03  0.00000000000E+00 0. -1.
         21   -1    0    0  501  503 -0.00000000000E+00 -0.00000000000E+00 -0.14686542341E+03  0.14686542341E+03  0.00000000000E+00 0. -1.
          6    2    1    2  501    0 -0.43869141448E+02  0.18911055389E+02 -0.19553906070E+02  0.18106607760E+03  0.17355241176E+03 0.  0.
         24    2    3    3    0    0  0.97518479947E+00 -0.50069055886E+02 -0.21450488090E+02  0.98634552248E+02  0.82224023954E+02 0.  0.
         -6    2    1    2    0  502  0.43869141448E+02 -0.18911055389E+02  0.12587838128E+03  0.21898924444E+03  0.17271014075E+03 0.  0.
        -24    2    5    5    0    0  0.23254948701E+02  0.54796850747E+02  0.93144884801E+02  0.13561435516E+03  0.78560780741E+02 0.  0.
          5    1    3    3  501    0 -0.44844326248E+02  0.68980111275E+02  0.18965820199E+01  0.82431525350E+02  0.47000000000E+01 0. -1.
        -11    1    4    4    0    0  0.31320706217E+01  0.73380516667E+01  0.24057523593E+02  0.25346031446E+02  0.00000000000E+00 0.  1.
         12    1    4    4    0    0 -0.21568858222E+01 -0.57407107552E+02 -0.45508011683E+02  0.73288520802E+02  0.00000000000E+00 0. -1.
         -5    1    5    5    0  502  0.20614192747E+02 -0.73707906136E+02  0.32733496480E+02  0.83374889274E+02  0.47000000000E+01 0.  1.
         13    1    6    6    0    0 -0.19714771800E+02  0.48629039072E+02  0.66383741685E+02  0.84618300788E+02  0.00000000000E+00 0. -1.
        -14    1    6    6    0    0  0.42969720502E+02  0.61678116750E+01  0.26761143117E+02  0.50996054374E+02  0.00000000000E+00 0.  1.
</event>
<event>
12    1  0.9017558E-003  0.2430556E+03  0.7818608E-02  0.1120259E+00
         21   -1    0    0  501  502  0.00000000000E+00  0.00000000000E+00  0.11738544481E+03  0.11738544481E+03  0.00000000000E+00 0. -1.
         21   -1    0    0  502  503 -0.00000000000E+00 -0.00000000000E+00 -0.56951004327E+03  0.56951004327E+03  0.00000000000E+00 0. -1.
          6    2    1    2  501    0 -0.20232119440E+02 -0.14909989653E+03 -0.90837437385E+02  0.25947537917E+03  0.19088193881E+03 0.  0.
         24    2    3    3    0    0 -0.59332072109E+02 -0.10547236153E+02 -0.40556055691E+02  0.10691079173E+03  0.78444787994E+02 0.  0.
         -6    2    1    2    0  503  0.20232119440E+02  0.14909989653E+03 -0.36128716108E+03  0.42742010891E+03  0.17181216178E+03 0.  0.
        -24    2    5    5    0    0 -0.11374209803E+02  0.36991081358E+02 -0.67575088868E+02  0.11141976421E+03  0.79688509033E+02 0.  0.
          5    1    3    3  501    0  0.39099952669E+02 -0.13855266038E+03 -0.50281381693E+02  0.15256458744E+03  0.47000000000E+01 0. -1.
        -11    1    4    4    0    0 -0.12989188512E+02 -0.33555934632E+02 -0.41801961105E+02  0.55155450496E+02  0.00000000000E+00 0.  1.
         12    1    4    4    0    0 -0.46342883596E+02  0.23008698479E+02  0.12459054136E+01  0.51755341231E+02  0.00000000000E+00 0. -1.
         -5    1    5    5    0  503  0.31606329242E+02  0.11210881517E+03 -0.29371207221E+03  0.31600034470E+03  0.47000000000E+01 0.  1.
         11    1    6    6    0    0  0.33486737878E+02  0.25241819155E+02 -0.36521161647E+02  0.55608509205E+02  0.00000000000E+00 0. -1.
        -12    1    6    6    0    0 -0.44860947680E+02  0.11749262203E+02 -0.31053927221E+02  0.55811255003E+02  0.00000000000E+00 0.  1.
</event>
<event>
12    1  0.9017558E-003  0.1882198E+03  0.7818608E-02  0.1160134E+00
         21   -1    0    0  503  502  0.00000000000E+00  0.00000000000E+00  0.80506418003E+02  0.80506418003E+02  0.00000000000E+00 0.  1.
         21   -1    0    0  501  503 -0.00000000000E+00 -0.00000000000E+00 -0.46365926871E+03  0.46365926871E+03  0.00000000000E+00 0.  1.
          6    2    1    2  501    0 -0.72690762398E+02 -0.27753128036E+02 -0.12930719909E+03  0.22815253519E+03  0.17111120514E+03 0.  0.
         24    2    3    3    0    0  0.48801617311E+01 -0.91845575849E+01 -0.76268294454E+01  0.82583848875E+02  0.81570530776E+02 0.  0.
         -6    2    1    2    0  502  0.72690762398E+02  0.27753128036E+02 -0.25384565162E+03  0.31601315153E+03  0.17138411256E+03 0.  0.
        -24    2    5    5    0    0 -0.22658663228E+02 -0.14156349435E+02 -0.12752016591E+03  0.15222018583E+03  0.78713245481E+02 0.  0.
          5    1    3    3  501    0 -0.77570924129E+02 -0.18568570451E+02 -0.12168036964E+03  0.14556868631E+03  0.47000000000E+01 0. -1.
        -13    1    4    4    0    0  0.24993931847E+02 -0.38924068376E+02 -0.59889113200E+01  0.46643829034E+02  0.00000000000E+00 0.  1.
         14    1    4    4    0    0 -0.20113770116E+02  0.29739510792E+02 -0.16379181254E+01  0.35940019841E+02  0.00000000000E+00 0. -1.
         -5    1    5    5    0  502  0.95349425626E+02  0.41909477471E+02 -0.12632548572E+03  0.16379296569E+03  0.47000000000E+01 0.  1.
         13    1    6    6    0    0 -0.38299859611E+02 -0.37948253284E+02 -0.73489526486E+02  0.91146364034E+02  0.00000000000E+00 0. -1.
        -14    1    6    6    0    0  0.15641196383E+02  0.23791903850E+02 -0.54030639421E+02  0.61073821801E+02  0.00000000000E+00 0.  1.
</event>
<event>
12    1  0.9017558E-003  0.1737596E+03  0.7818608E-02  0.1174058E+00
         21   -1    0    0  503  502  0.00000000000E+00  0.00000000000E+00  0.16469961906E+04  0.16469961906E+04  0.00000000000E+00 0.  1.
         21   -1    0    0  501  503 -0.00000000000E+00 -0.00000000000E+00 -0.20252226809E+02  0.20252226809E+02  0.00000000000E+00 0.  1.
          6    2    1    2  501    0  0.11161524026E+02 -0.15366493074E+02  0.55520767123E+03  0.58176279070E+03  0.17271849269E+03 0.  0.
         24    2    3    3    0    0 -0.29711270741E+02 -0.23326718415E+02  0.52021169988E+03  0.52716646710E+03  0.76533495540E+02 0.  0.
         -6    2    1    2    0  502 -0.11161524026E+02  0.15366493074E+02  0.10715362926E+04  0.10854856267E+04  0.17241899779E+03 0.  0.
        -24    2    5    5    0    0  0.54945694142E+02  0.18191808814E+02  0.79356176431E+03  0.79970586000E+03  0.80244735295E+02 0.  0.
          5    1    3    3  501    0  0.40872794767E+02  0.79602253408E+01  0.34995971351E+02  0.54596323597E+02  0.47000000000E+01 0. -1.
        -13    1    4    4    0    0  0.24981724315E+02  0.17440923344E+01  0.13948437286E+03  0.14171456763E+03  0.00000000000E+00 0.  1.
         14    1    4    4    0    0 -0.54692995056E+02 -0.25070810749E+02  0.38072732703E+03  0.38545189947E+03  0.00000000000E+00 0. -1.
         -5    1    5    5    0  502 -0.66107218168E+02 -0.28253157404E+01  0.27797452827E+03  0.28577976672E+03  0.47000000000E+01 0.  1.
         11    1    6    6    0    0  0.22845652683E+02  0.34877069571E+02  0.66047276998E+03  0.66178743847E+03  0.00000000000E+00 0. -1.
        -12    1    6    6    0    0  0.32100041459E+02 -0.16685260756E+02  0.13308899432E+03  0.13791842153E+03  0.00000000000E+00 0.  1.
</event>
<event>
12    1  0.9017558E-003  0.1817878E+03  0.7818608E-02  0.1166220E+00
         21   -1    0    0  501  502  0.00000000000E+00  0.00000000000E+00  0.99002065423E+03  0.99002065423E+03  0.00000000000E+00 0. -1.
         21   -1    0    0  502  503 -0.00000000000E+00 -0.00000000000E+00 -0.40642133191E+02  0.40642133191E+02  0.00000000000E+00 0. -1.
          6    2    1    2  501    0  0.98132714630E-01  0.57585532846E+02  0.69347482306E+03  0.71676232580E+03  0.17182781570E+03 0.  0.
         24    2    3    3    0    0 -0.29644142582E+02  0.18910133842E+02  0.63220067250E+03  0.63829576634E+03  0.80668622515E+02 0.  0.
         -6    2    1    2    0  503 -0.98132714630E-01 -0.57585532846E+02  0.25590369797E+03  0.31390046161E+03  0.17242590856E+03 0.  0.
        -24    2    5    5    0    0  0.17406819350E+02  0.34778198835E+02  0.11667366045E+03  0.14583923579E+03  0.78382518322E+02 0.  0.
          5    1    3    3  501    0  0.29742275296E+02  0.38675399004E+02  0.61274150558E+02  0.78466559467E+02  0.47000000000E+01 0. -1.
        -11    1    4    4    0    0 -0.18665168774E+02 -0.31345999669E+02  0.27540372556E+03  0.27780959716E+03  0.00000000000E+00 0.  1.
         12    1    4    4    0    0 -0.10978973808E+02  0.50256133511E+02  0.35679694694E+03  0.36048616918E+03  0.00000000000E+00 0. -1.
         -5    1    5    5    0  503 -0.17504952065E+02 -0.92363731681E+02  0.13923003753E+03  0.16806122583E+03  0.47000000000E+01 0.  1.
         13    1    6    6    0    0  0.80549989932E+00  0.37714828942E+02  0.11664970763E+02  0.39485803716E+02  0.00000000000E+00 0. -1.
        -14    1    6    6    0    0  0.16601319451E+02 -0.29366301066E+01  0.10500868968E+03  0.10635343207E+03  0.00000000000E+00 0.  1.
</event>
<event>
12    1  0.9017558E-003  0.2127095E+03  0.7818608E-02  0.1139950E+00
         21   -1    0    0  501  502  0.00000000000E+00  0.00000000000E+00  0.17988572271E+03  0.17988572271E+03  0.00000000000E+00 0. -1.
         21   -1    0    0  502  503 -0.00000000000E+00 -0.00000000000E+00 -0.31345973490E+03  0.31345973490E+03  0.00000000000E+00 0. -1.
          6    2    1    2  501    0 -0.11272515721E+03  0.53691540774E+02  0.45227124020E+02  0.21746456716E+03  0.17220802131E+03 0.  0.
         24    2    3    3    0    0 -0.12382588422E+03  0.52479082469E+02  0.83240221537E+02  0.17756742719E+03  0.80711542035E+02 0.  0.
         -6    2    1    2    0  503  0.11272515721E+03 -0.53691540774E+02 -0.17880113620E+03  0.27588089045E+03  0.16896945520E+03 0.  0.
        -24    2    5    5    0    0  0.14440167856E+03 -0.42171973564E+02 -0.17004803500E+03  0.24074103823E+03  0.80059934765E+02 0.  0.
          5    1    3    3  501    0  0.11100727004E+02  0.12124583052E+01 -0.38013097516E+02  0.39897139972E+02  0.47000000000E+01 0. -1.
        -13    1    4    4    0    0  0.28015619029E-01  0.55338479505E+01  0.36793573235E+02  0.37207409067E+02  0.00000000000E+00 0.  1.
         14    1    4    4    0    0 -0.12385389984E+03  0.46945234518E+02  0.46446648301E+02  0.14036001812E+03  0.00000000000E+00 0. -1.
         -5    1    5    5    0  503 -0.31676521348E+02 -0.11519567210E+02 -0.87531011971E+01  0.35139852219E+02  0.47000000000E+01 0.  1.
         11    1    6    6    0    0  0.91524695232E+02 -0.65180493335E+02 -0.10461559116E+03  0.15352422761E+03  0.00000000000E+00 0. -1.
        -12    1    6    6    0    0  0.52876983330E+02  0.23008519771E+02 -0.65432443846E+02  0.87216810626E+02  0.00000000000E+00 0.  1.
</event>
<event>
12    1  0.9017558E-003  0.2326381E+03  0.7818608E-02  0.1124857E+00
         21   -1    0    0  503  502  0.00000000000E+00  0.00000000000E+00  0.41620133698E+03  0.41620133698E+03  0.00000000000E+00 0. -1.
         21   -1    0    0  501  503 -0.00000000000E+00 -0.00000000000E+00 -0.16503224876E+03  0.16503224876E+03  0.00000000000E+00 0. -1.
          6    2    1    2  501    0 -0.67113502031E+02 -0.14041227562E+03 -0.86901770201E+01  0.23245378990E+03  0.17245119879E+03 0.  0.
         24    2    3    3    0    0 -0.71378142426E+02 -0.17092577145E+03 -0.16967260056E+02  0.20020691890E+03  0.74057166422E+02 0.  0.
         -6    2    1    2    0  502  0.67113502031E+02  0.14041227562E+03  0.25985926524E+03  0.34877979584E+03  0.17291812789E+03 0.  0.
        -24    2    5    5    0    0  0.67512224267E+02  0.16126835513E+03  0.18112889289E+03  0.26719734330E+03  0.89562054655E+02 0.  0.
          5    1    3    3  501    0  0.42646403944E+01  0.30513495835E+02  0.82770830354E+01  0.32246871001E+02  0.47000000000E+01 0. -1.
        -11    1    4    4    0    0  0.23192272645E+01 -0.26572259365E+02 -0.26825507292E+02  0.37829507323E+02  0.00000000000E+00 0.  1.
         12    1    4    4    0    0 -0.73697369690E+02 -0.14435351209E+03  0.98582472366E+01  0.16237741158E+03  0.00000000000E+00 0. -1.
         -5    1    5    5    0  502 -0.39872223638E+00 -0.20856079511E+02  0.78730372351E+02  0.81582452541E+02  0.47000000000E+01 0.  1.
         11    1    6    6    0    0  0.81691009121E+02  0.13432595096E+03  0.17655926496E+03  0.23641077834E+03  0.00000000000E+00 0. -1.
        -12    1    6    6    0    0 -0.14178784854E+02  0.26942404172E+02  0.45696279298E+01  0.30786564958E+02  0.00000000000E+00 0.  1.
</event>
<event>
12    1  0.9017558E-003  0.3612365E+03  0.7818608E-02  0.1058286E+00
         21   -1    0    0  501  502  0.00000000000E+00  0.00000000000E+00  0.32288103241E+03  0.32288103241E+03  0.00000000000E+00 0. -1.
         21   -1    0    0  502  503 -0.00000000000E+00 -0.00000000000E+00 -0.57266829988E+03  0.57266829988E+03  0.00000000000E+00 0. -1.
          6    2    1    2  501    0  0.18854651971E+02 -0.31610319827E+03  0.11932291944E+03  0.38043363401E+03  0.17382479951E+03 0.  0.
         24    2    3    3    0    0 -0.39773881296E+02 -0.10117180121E+03  0.16740839899E+02  0.13512162167E+03  0.78485042710E+02 0.  0.
         -6    2    1    2    0  503 -0.18854651971E+02  0.31610319827E+03 -0.36911018691E+03  0.51511569828E+03  0.16977962974E+03 0.  0.
        -24    2    5    5    0    0 -0.39768693880E+02  0.70265790040E+02 -0.10769334868E+03  0.15562399915E+03  0.78116205092E+02 0.  0.
          5    1    3    3  501    0  0.58628533267E+02 -0.21493139706E+03  0.10258207954E+03  0.24531201234E+03  0.47000000000E+01 0. -1.
        -13    1    4    4    0    0 -0.11556758443E+02 -0.32752391985E+02 -0.31409210413E+02  0.46827516966E+02  0.00000000000E+00 0.  1.
         14    1    4    4    0    0 -0.28217122852E+02 -0.68419409225E+02  0.48150050312E+02  0.88294104705E+02  0.00000000000E+00 0. -1.
         -5    1    5    5    0  503  0.20914041909E+02  0.24583740823E+03 -0.26141683824E+03  0.35949169913E+03  0.47000000000E+01 0.  1.
         13    1    6    6    0    0 -0.34399558062E+01  0.38618067216E+02 -0.99454128599E+02  0.10674414320E+03  0.00000000000E+00 0. -1.
        -14    1    6    6    0    0 -0.36328738074E+02  0.31647722825E+02 -0.82392200773E+01  0.48879855949E+02  0.00000000000E+00 0.  1.
</event>
<event>
12    1  0.9017558E-003  0.1838068E+03  0.7818608E-02  0.1165129E+00
         21   -1    0    0  503  502  0.00000000000E+00  0.00000000000E+00  0.35917536660E+02  0.35917536660E+02  0.00000000000E+00 0.  1.
         21   -1    0    0  501  503 -0.00000000000E+00 -0.00000000000E+00 -0.13478582377E+04  0.13478582377E+04  0.00000000000E+00 0.  1.
          6    2    1    2  501    0 -0.20559274502E+02  0.47465497355E+02 -0.10407568533E+04  0.10561699116E+04  0.17217548422E+03 0.  0.
         24    2    3    3    0    0 -0.46409043615E+02  0.81283628311E+02 -0.91684944365E+03  0.92507066408E+03  0.79887443744E+02 0.  0.
         -6    2    1    2    0  502  0.20559274502E+02 -0.47465497355E+02 -0.27118384780E+03  0.32760586277E+03  0.17637818688E+03 0.  0.
        -24    2    5    5    0    0 -0.55411904373E+02 -0.42131640858E+02 -0.14396151502E+03  0.17925599927E+03  0.81007661109E+02 0.  0.
          5    1    3    3  501    0  0.25849769112E+02 -0.33818130956E+02 -0.12390740963E+03  0.13109924754E+03  0.47000000000E+01 0. -1.
        -11    1    4    4    0    0 -0.79474247953E+01  0.14491054044E+02 -0.54825524715E+03  0.54850430102E+03  0.00000000000E+00 0.  1.
         12    1    4    4    0    0 -0.38461618819E+02  0.66792574267E+02 -0.36859419650E+03  0.37656636306E+03  0.00000000000E+00 0. -1.
         -5    1    5    5    0  502  0.75971178875E+02 -0.53338564971E+01 -0.12722233278E+03  0.14834986350E+03  0.47000000000E+01 0.  1.
         11    1    6    6    0    0 -0.13961275696E+02  0.22255019040E+02 -0.18006517674E+02  0.31850239721E+02  0.00000000000E+00 0. -1.
        -12    1    6    6    0    0 -0.41450628677E+02 -0.64386659898E+02 -0.12595499735E+03  0.14740575955E+03  0.00000000000E+00 0.  1.
</event>
<event>
12    1  0.9017558E-003  0.1961000E+03  0.7818608E-02  0.1153142E+00
         21   -1    0    0  503  502  0.00000000000E+00  0.00000000000E+00  0.61959907764E+02  0.61959907764E+02  0.00000000000E+00 0. -1.
         21   -1    0    0  501  503 -0.00000000000E+00 -0.00000000000E+00 -0.66309209298E+03  0.66309209298E+03  0.00000000000E+00 0. -1.
          6    2    1    2  501    0  0.75511651580E+02 -0.48804081215E+02 -0.39363017714E+03  0.43977260698E+03  0.17427386962E+03 0.  0.
         24    2    3    3    0    0  0.14412407325E+02 -0.32215570385E+02 -0.73286015441E+02  0.11319831486E+03  0.78723935171E+02 0.  0.
         -6    2    1    2    0  502 -0.75511651580E+02  0.48804081215E+02 -0.20750200808E+03  0.28527939376E+03  0.17390630029E+03 0.  0.
        -24    2    5    5    0    0  0.23870076676E+02  0.52250475105E+02 -0.10421288328E+03  0.14182438742E+03  0.77161772383E+02 0.  0.
          5    1    3    3  501    0  0.61099244255E+02 -0.16588510830E+02 -0.32034416169E+03  0.32657429212E+03  0.47000000000E+01 0. -1.
        -13    1    4    4    0    0  0.12977035544E+01 -0.55993426430E+02 -0.62648257118E+02  0.84034230869E+02  0.00000000000E+00 0.  1.
         14    1    4    4    0    0  0.13114703771E+02  0.23777856045E+02 -0.10637758323E+02  0.29164083995E+02  0.00000000000E+00 0. -1.
         -5    1    5    5    0  502 -0.99381728256E+02 -0.34463938900E+01 -0.10328912480E+03  0.14345500634E+03  0.47000000000E+01 0.  1.
         11    1    6    6    0    0  0.47249442590E+02  0.37544196219E+02 -0.41336629898E+02  0.73149118014E+02  0.00000000000E+00 0. -1.
        -12    1    6    6    0    0 -0.23379365914E+02  0.14706278886E+02 -0.62876253380E+02  0.68675269409E+02  0.00000000000E+00 0.  1.
</event>
<event>
12    1  0.9017558E-003  0.2442149E+03  0.7818608E-02  0.1118146E+00
         21   -1    0    0  501  502  0.00000000000E+00  0.00000000000E+00  0.70653848363E+02  0.70653848363E+02  0.00000000000E+00 0.  1.
         21   -1    0    0  502  503 -0.00000000000E+00 -0.00000000000E+00 -0.95995430334E+03  0.95995430334E+03  0.00000000000E+00 0.  1.
          6    2    1    2  501    0 -0.87429772240E+02 -0.15090141252E+03 -0.24298922299E+03  0.33969634586E+03  0.16104236563E+03 0.  0.
         24    2    3    3    0    0 -0.55406404028E+01 -0.73343642123E+02 -0.56937596603E+02  0.12207664238E+03  0.79062179152E+02 0.  0.
         -6    2    1    2    0  503  0.87429772240E+02  0.15090141252E+03 -0.64631123199E+03  0.69091180584E+03  0.17095529674E+03 0.  0.
        -24    2    5    5    0    0 -0.17033145568E+02  0.97014159486E+02 -0.33004917519E+03  0.35348015972E+03  0.79459990440E+02 0.  0.
          5    1    3    3  501    0 -0.81889131838E+02 -0.77557770394E+02 -0.18605162638E+03  0.21761970348E+03  0.47000000000E+01 0. -1.
        -13    1    4    4    0    0  0.44153659929E+01  0.94613160846E+01  0.10510649821E+02  0.14815050407E+02  0.00000000000E+00 0.  1.
         14    1    4    4    0    0 -0.99560063957E+01 -0.82804958208E+02 -0.67448246424E+02  0.10726159197E+03  0.00000000000E+00 0. -1.
         -5    1    5    5    0  503  0.10446291781E+03  0.53887253032E+02 -0.31626205680E+03  0.33743164612E+03  0.47000000000E+01 0.  1.
         13    1    6    6    0    0 -0.19873213402E+02 -0.85287744244E+00 -0.12118489236E+03  0.12280655579E+03  0.00000000000E+00 0. -1.
        -14    1    6    6    0    0  0.28400678335E+01  0.97867036928E+02 -0.20886428283E+03  0.23067360392E+03  0.00000000000E+00 0.  1.
</event>
<event>
12    1  0.9017558E-003  0.2264779E+03  0.7818608E-02  0.1129359E+00
         21   -1    0    0  501  502  0.00000000000E+00  0.00000000000E+00  0.41233142309E+03  0.41233142309E+03  0.00000000000E+00 0.  1.
         21   -1    0    0  502  503 -0.00000000000E+00 -0.00000000000E+00 -0.14764868880E+03  0.14764868880E+03  0.00000000000E+00 0. -1.
          6    2    1    2  501    0 -0.14486970906E+03  0.85242119330E+01  0.24530560390E+03  0.33386687574E+03  0.17387454275E+03 0.  0.
         24    2    3    3    0    0 -0.70039957751E+02  0.33195801944E+02  0.48121150226E+02  0.12147107115E+03  0.80199869569E+02 0.  0.
         -6    2    1    2    0  503  0.14486970906E+03 -0.85242119330E+01  0.19377130383E+02  0.22611323615E+03  0.17231316720E+03 0.  0.
        -24    2    5    5    0    0  0.10206276251E+03 -0.71109111743E+02  0.52489756444E+01  0.14884099590E+03  0.81564557574E+02 0.  0.
          5    1    3    3  501    0 -0.74829751305E+02 -0.24671590011E+02  0.19718445368E+03  0.21239580459E+03  0.47000000000E+01 0. -1.
        -13    1    4    4    0    0 -0.35656745903E+02 -0.24385277826E+02  0.27896449838E+02  0.51422341610E+02  0.00000000000E+00 0.  1.
         14    1    4    4    0    0 -0.34383211848E+02  0.57581079770E+02  0.20224700388E+02  0.70048729541E+02  0.00000000000E+00 0. -1.
         -5    1    5    5    0  503  0.42806946547E+02  0.62584899810E+02  0.14128154739E+02  0.77272240250E+02  0.47000000000E+01 0.  1.
         11    1    6    6    0    0  0.47989071713E+02 -0.13438930082E+02 -0.34246949641E+02  0.60468251218E+02  0.00000000000E+00 0. -1.
        -12    1    6    6    0    0  0.54073690796E+02 -0.57670181660E+02  0.39495925285E+02  0.88372744685E+02  0.00000000000E+00 0.  1.
</event>
<event>
12    1  0.9017558E-003  0.3007428E+03  0.7818608E-02  0.1084873E+00
         21   -1    0    0  503  502  0.00000000000E+00  0.00000000000E+00  0.35109330479E+04  0.35109330479E+04  0.00000000000E+00 0.  1.
         21   -1    0    0  501  503 -0.00000000000E+00 -0.00000000000E+00 -0.27991721223E+02  0.27991721223E+02  0.00000000000E+00 0. -1.
          6    2    1    2  501    0  0.12858459840E+03 -0.21080909036E+03  0.12416691644E+04  0.12775651867E+04  0.17162756460E+03 0.  0.
         24    2    3    3    0    0  0.12933040900E+03 -0.20408165169E+03  0.12434242666E+04  0.12691399242E+04  0.78971925928E+02 0.  0.
         -6    2    1    2    0  502 -0.12858459840E+03  0.21080909036E+03  0.22412721623E+04  0.22613595824E+04  0.17167348101E+03 0.  0.
        -24    2    5    5    0    0 -0.11056455948E-01  0.10793487742E+03  0.87836199502E+03  0.88853021451E+03  0.79474586635E+02 0.  0.
          5    1    3    3  501    0 -0.74581060121E+00 -0.67274386748E+01 -0.17551022289E+01  0.84252625129E+01  0.47000000000E+01 0. -1.
        -11    1    4    4    0    0  0.55526069615E+02 -0.48122340232E+02  0.53418765298E+03  0.53921735194E+03  0.00000000000E+00 0.  1.
         12    1    4    4    0    0  0.73804339383E+02 -0.15595931145E+03  0.70923661367E+03  0.72992257227E+03  0.00000000000E+00 0. -1.
         -5    1    5    5    0  502 -0.12857354194E+03  0.10287421294E+03  0.13629101673E+04  0.13728293679E+04  0.47000000000E+01 0.  1.
         13    1    6    6    0    0 -0.62119050193E+01  0.13455504578E+01  0.36569035368E+01  0.73328857539E+01  0.00000000000E+00 0. -1.
        -14    1    6    6    0    0  0.62008485633E+01  0.10658932696E+03  0.87470509148E+03  0.88119732876E+03  0.00000000000E+00 0.  1.
</event>
<event>
12    1  0.9017558E-003  0.1920075E+03  0.7818608E-02  0.1156881E+00
         21   -1    0    0  503  502  0.00000000000E+00  0.00000000000E+00  0.65355421420E+03  0.65355421420E+03  0.00000000000E+00 0. -1.
         21   -1    0    0  501  503 -0.00000000000E+00 -0.00000000000E+00 -0.57081109742E+02  0.57081109742E+02  0.00000000000E+00 0. -1.
          6    2    1    2  501    0 -0.72105311387E+02 -0.36251979516E+02  0.25146428865E+03  0.31579615084E+03  0.17314600334E+03 0.  0.
         24    2    3    3    0    0 -0.87311349637E+02 -0.77439697947E+02  0.21925023702E+03  0.26113824317E+03  0.80637069758E+02 0.  0.
         -6    2    1    2    0  502  0.72105311387E+02  0.36251979516E+02  0.34500881581E+03  0.39483917310E+03  0.17422258085E+03 0.  0.
        -24    2    5    5    0    0  0.10474698806E+03  0.68630841605E+01  0.31488989860E+03  0.34137492897E+03  0.79763152249E+02 0.  0.
          5    1    3    3  501    0  0.15206038250E+02  0.41187718431E+02  0.32214051627E+02  0.54657907672E+02  0.47000000000E+01 0. -1.
        -11    1    4    4    0    0 -0.59729455923E+02 -0.87378947381E+02  0.13260155229E+03  0.16966396205E+03  0.00000000000E+00 0.  1.
         12    1    4    4    0    0 -0.27581893714E+02  0.99392494338E+01  0.86648684733E+02  0.91474281118E+02  0.00000000000E+00 0. -1.
         -5    1    5    5    0  502 -0.32641676675E+02  0.29388895356E+02  0.30118917212E+02  0.53464244130E+02  0.47000000000E+01 0.  1.
         13    1    6    6    0    0  0.93782385866E+02  0.21802902172E+02  0.30605910109E+03  0.32084681049E+03  0.00000000000E+00 0. -1.
        -14    1    6    6    0    0  0.10964602196E+02 -0.14939818012E+02  0.88307975043E+01  0.20528118474E+02  0.00000000000E+00 0.  1.
</event>
<event>
12    1  0.9017558E-003  0.2410998E+03  0.7818608E-02  0.1119172E+00
         21   -1    0    0  503  502  0.00000000000E+00  0.00000000000E+00  0.16240196061E+03  0.16240196061E+03  0.00000000000E+00 0. -1.
         21   -1    0    0  501  503 -0.00000000000E+00 -0.00000000000E+00 -0.35862285574E+03  0.35862285574E+03  0.00000000000E+00 0. -1.
          6    2    1    2  501    0  0.16806735670E+03  0.57563880179E+01 -0.11577264029E+03  0.26685743407E+03  0.17184240887E+03 0.  0.
         24    2    3    3    0    0  0.13522928214E+03  0.43341452856E+01 -0.13196841278E+02  0.15904163533E+03  0.82549025346E+02 0.  0.
         -6    2    1    2    0  502 -0.16806735670E+03 -0.57563880179E+01 -0.80448254845E+02  0.25416738228E+03  0.17276968517E+03 0.  0.
        -24    2    5    5    0    0 -0.11800779359E+03  0.41317799108E+02 -0.51651476154E-01  0.14830122723E+03  0.79751184675E+02 0.  0.
          5    1    3    3  501    0  0.32838074558E+02  0.14222427323E+01 -0.10257579901E+03  0.10781579874E+03  0.47000000000E+01 0. -1.
        -11    1    4    4    0    0  0.10021509050E+03 -0.18733352655E+02  0.21999803237E+02  0.10429762322E+03  0.00000000000E+00 0.  1.
         12    1    4    4    0    0  0.35014191636E+02  0.23067497940E+02 -0.35196644515E+02  0.54744012113E+02  0.00000000000E+00 0. -1.
         -5    1    5    5    0  502 -0.50059563102E+02 -0.47074187126E+02 -0.80396603369E+02  0.10586615505E+03  0.47000000000E+01 0.  1.
         11    1    6    6    0    0 -0.86574761291E+02 -0.85077396774E+01 -0.13069606302E+02  0.87968093852E+02  0.00000000000E+00 0. -1.
        -12    1    6    6    0    0 -0.31433032303E+02  0.49825538785E+02  0.13017954826E+02  0.60333133375E+02  0.00000000000E+00 0.  1.
</event>
<event>
12    1  0.9017558E-003  0.2230358E+03  0.7818608E-02  0.1131811E+00
         21   -1    0    0  501  502  0.00000000000E+00  0.00000000000E+00  0.31617323565E+04  0.31617323565E+04  0.00000000000E+00 0. -1.
         21   -1    0    0  502  503 -0.00000000000E+00 -0.00000000000E+00 -0.15702757280E+02  0.15702757280E+02  0.00000000000E+00 0.  1.
          6    2    1    2  501    0  0.26671144553E+02 -0.14006386960E+03  0.14945057320E+04  0.15109189724E+04  0.17029245632E+03 0.  0.
         24    2    3    3    0    0  0.59860462001E+02 -0.12885542784E+03  0.85001434159E+03  0.86545913456E+03  0.79423777879E+02 0.  0.
         -6    2    1    2    0  503 -0.26671144553E+02  0.14006386960E+03  0.16515238672E+04  0.16665161413E+04  0.17151013948E+03 0.  0.
        -24    2    5    5    0    0 -0.23311909873E+02  0.13410364455E+03  0.16506761728E+04  0.16581724415E+04  0.79226168190E+02 0.  0.
          5    1    3    3  501    0 -0.33189317447E+02 -0.11208441760E+02  0.64449139045E+03  0.64545983789E+03  0.47000000000E+01 0. -1.
        -13    1    4    4    0    0  0.31342807123E+02 -0.11572688869E+01  0.13764180893E+03  0.14117003363E+03  0.00000000000E+00 0.  1.
         14    1    4    4    0    0  0.28517654878E+02 -0.12769815895E+03  0.71237253266E+03  0.72428910093E+03  0.00000000000E+00 0. -1.
         -5    1    5    5    0  503 -0.33592346801E+01  0.59602250505E+01  0.84769433793E+00  0.83436997776E+01  0.47000000000E+01 0.  1.
         11    1    6    6    0    0 -0.48005783753E+01 -0.10281054541E+02  0.16173546645E+03  0.16213299092E+03  0.00000000000E+00 0. -1.
        -12    1    6    6    0    0 -0.18511331498E+02  0.14438469909E+03  0.14889407064E+04  0.14960394506E+04  0.00000000000E+00 0.  1.
</event>
<event>
12    1  0.9017558E-003  0.2003754E+03  0.7818608E-02  0.1149554E+00
         21   -1    0    0  501  502  0.00000000000E+00  0.00000000000E+00  0.33146402559E+02  0.33146402559E+02  0.00000000000E+00 0.  1.
         21   -1    0    0  502  503 -0.00000000000E+00 -0.00000000000E+00 -0.13024441238E+04  0.13024441238E+04  0.00000000000E+00 0.  1.
          6    2    1    2  501    0 -0.95774979680E+02 -0.29883533557E+02 -0.81584197074E+03  0.84008833827E+03  0.17344861647E+03 0.  0.
         24    2    3    3    0    0 -0.12951804937E+03 -0.40761587670E+02 -0.56818201568E+03  0.58985950269E+03  0.81651686014E+02 0.  0.
         -6    2    1    2    0  503  0.95774979680E+02  0.29883533557E+02 -0.45345575052E+03  0.49550218812E+03  0.17272645552E+03 0.  0.
        -24    2    5    5    0    0  0.78188795160E+02  0.85242034170E+02 -0.30559704233E+03  0.33657413816E+03  0.80702578127E+02 0.  0.
          5    1    3    3  501    0  0.33743069687E+02  0.10878054114E+02 -0.24765995506E+03  0.25022883558E+03  0.47000000000E+01 0. -1.
        -11    1    4    4    0    0 -0.21741787465E+02 -0.17549741316E+02 -0.32094100744E+02  0.42552673771E+02  0.00000000000E+00 0.  1.
         12    1    4    4    0    0 -0.10777626190E+03 -0.23211846355E+02 -0.53608791493E+03  0.54730682892E+03  0.00000000000E+00 0. -1.
         -5    1    5    5    0  503  0.17586184521E+02 -0.55358500613E+02 -0.14785870819E+03  0.15892804996E+03  0.47000000000E+01 0.  1.
         11    1    6    6    0    0  0.17669198906E+01  0.16580999955E+02 -0.29094432060E+01  0.16926796069E+02  0.00000000000E+00 0. -1.
        -12    1    6    6    0    0  0.76421875269E+02  0.68661034215E+02 -0.30268759913E+03  0.31964734209E+03  0.00000000000E+00 0.  1.
</event>
<event>
12    1  0.9017558E-003  0.1803474E+03  0.7818608E-02  0.1168839E+00
         21   -1    0    0  503  502  0.00000000000E+00  0.00000000000E+00  0.52114352004E+03  0.52114352004E+03  0.00000000000E+00 0. -1.
         21   -1    0    0  501  503 -0.00000000000E+00 -0.00000000000E+00 -0.60741128750E+02  0.60741128750E+02  0.00000000000E+00 0. -1.
          6    2    1    2  501    0 -0.33174450426E+02  0.78255219157E+01  0.20796037525E+03  0.27163931949E+03  0.17140192316E+03 0.  0.
         24    2    3    3    0    0 -0.28437694370E+02  0.56484496940E+02  0.19622519131E+03  0.22114241611E+03  0.80002760220E+02 0.  0.
         -6    2    1    2    0  502  0.33174450426E+02 -0.78255219157E+01  0.25244201605E+03  0.31024532931E+03  0.17709717653E+03 0.  0.
        -24    2    5    5    0    0  0.29540094620E+02 -0.67293302359E+02  0.10275028856E+03  0.14906428597E+03  0.79129854162E+02 0.  0.
          5    1    3    3  501    0 -0.47367560565E+01 -0.48658975024E+02  0.11735183933E+02  0.50496903373E+02  0.47000000000E+01 0. -1.
        -13    1    4    4    0    0  0.19023461933E+02 -0.74589979587E+01  0.24870686064E+02  0.32188193173E+02  0.00000000000E+00 0.  1.
         14    1    4    4    0    0 -0.47461156303E+02  0.63943494899E+02  0.17135450525E+03  0.18895422294E+03  0.00000000000E+00 0. -1.
         -5    1    5    5    0  502  0.36343558066E+01  0.59467780444E+02  0.14969172749E+03  0.16118104334E+03  0.47000000000E+01 0.  1.
         13    1    6    6    0    0  0.30288482869E+02 -0.14976621747E+02  0.33151996074E-01  0.33788940387E+02  0.00000000000E+00 0. -1.
        -14    1    6    6    0    0 -0.74838824897E+00 -0.52316680612E+02  0.10271713656E+03  0.11527534558E+03  0.00000000000E+00 0.  1.
</event>
<event>
12    1  0.9017558E-003  0.1881222E+03  0.7818608E-02  0.1160498E+00
         21   -1    0    0  503  502  0.00000000000E+00  0.00000000000E+00  0.12850426285E+03  0.12850426285E+03  0.00000000000E+00 0. -1.
         21   -1    0    0  501  503 -0.00000000000E+00 -0.00000000000E+00 -0.28197979572E+03  0.28197979572E+03  0.00000000000E+00 0.  1.
          6    2    1    2  501    0  0.71789584030E+02  0.21556596199E+02 -0.11249075493E+03  0.21794907877E+03  0.17096549294E+03 0.  0.
         24    2    3    3    0    0  0.31543734693E+02  0.78665599401E+02 -0.66529265665E+02  0.13418921290E+03  0.79983235373E+02 0.  0.
         -6    2    1    2    0  502 -0.71789584030E+02 -0.21556596199E+02 -0.40984777944E+02  0.19253497980E+03  0.17254429926E+03 0.  0.
        -24    2    5    5    0    0 -0.76406161101E+02  0.21008538961E+02  0.23972766648E+02  0.11459477121E+03  0.79233880915E+02 0.  0.
          5    1    3    3  501    0  0.40245849337E+02 -0.57109003203E+02 -0.45961489268E+02  0.83759865875E+02  0.47000000000E+01 0. -1.
        -11    1    4    4    0    0 -0.14044327926E+02  0.62497327048E+02 -0.20083966806E+02  0.67130654381E+02  0.00000000000E+00 0.  1.
         12    1    4    4    0    0  0.45588062619E+02  0.16168272354E+02 -0.46445298859E+02  0.67058558517E+02  0.00000000000E+00 0. -1.
         -5    1    5    5    0  502  0.46165770710E+01 -0.42565135159E+02 -0.64957544592E+02  0.77940208586E+02  0.47000000000E+01 0.  1.
         13    1    6    6    0    0 -0.19736702680E+02 -0.15723873601E+02  0.38004708171E+02  0.45619463794E+02  0.00000000000E+00 0. -1.
        -14    1    6    6    0    0 -0.56669458421E+02  0.36732412562E+02 -0.14031941523E+02  0.68975307417E+02  0.00000000000E+00 0.  1.
</event>
<event>
12    1  0.9017558E-003  0.1931966E+03  0.7818608E-02  0.1156283E+00
         21   -1    0    0  503  502  0.00000000000E+00  0.00000000000E+00  0.14062175386E+02  0.14062175386E+02  0.00000000000E+00 0.  1.
         21   -1    0    0  501  503 -0.00000000000E+00 -0.00000000000E+00 -0.26468507135E+04  0.26468507135E+04  0.00000000000E+00 0.  1.
          6    2    1    2  501    0  0.85507413719E+02 -0.13193122229E+02 -0.11553791290E+04  0.11709251447E+04  0.16934930352E+03 0.  0.
         24    2    3    3    0    0  0.64758257918E+02 -0.13262871564E+02 -0.34887283387E+03  0.36413829160E+03  0.80714964323E+02 0.  0.
         -6    2    1    2    0  502 -0.85507413719E+02  0.13193122229E+02 -0.14774094091E+04  0.14899877441E+04  0.17274067056E+03 0.  0.
        -24    2    5    5    0    0 -0.44858835330E+02  0.24653455776E+02 -0.38502826478E+03  0.39678039845E+03  0.81042038012E+02 0.  0.
          5    1    3    3  501    0  0.20749155802E+02  0.69749334546E-01 -0.80650629513E+03  0.80678685315E+03  0.47000000000E+01 0. -1.
        -11    1    4    4    0    0  0.22638437972E+02 -0.44808680684E+02 -0.20122678395E+03  0.20739463666E+03  0.00000000000E+00 0.  1.
         12    1    4    4    0    0  0.42119819946E+02  0.31545809120E+02 -0.14764604992E+03  0.15674365493E+03  0.00000000000E+00 0. -1.
         -5    1    5    5    0  502 -0.40648578390E+02 -0.11460333547E+02 -0.10923811443E+04  0.10932073457E+04  0.47000000000E+01 0.  1.
         13    1    6    6    0    0  0.11550225014E+02  0.15460031837E+02 -0.21932161794E+02  0.29213695473E+02  0.00000000000E+00 0. -1.
        -14    1    6    6    0    0 -0.56409060344E+02  0.91934239396E+01 -0.36309610299E+03  0.36756670298E+03  0.00000000000E+00 0.  1.
</event>
<event>
12    1  0.9017558E-003  0.3307220E+03  0.7818608E-02  0.1070982E+00
         21   -1    0    0  501  502  0.00000000000E+00  0.00000000000E+00  0.13284451187E+03  0.13284451187E+03  0.00000000000E+00 0.  1.
         21   -1    0    0  502  503 -0.00000000000E+00 -0.00000000000E+00 -0.97257126606E+03  0.97257126606E+03  0.00000000000E+00 0. -1.
          6    2    1    2  501    0 -0.32559331232E+02 -0.28048436903E+03 -0.19990242033E+03  0.38517120082E+03  0.16930530105E+03 0.  0.
         24    2    3    3    0    0 -0.38057802646E+02 -0.21430943502E+03 -0.21466355257E+03  0.31698516043E+03  0.83798692410E+02 0.  0.
         -6    2    1    2    0  503  0.32559331232E+02  0.28048436903E+03 -0.63982433386E+03  0.72024457711E+03  0.17217863205E+03 0.  0.
        -24    2    5    5    0    0  0.68087200653E+02  0.23743254635E+03 -0.41815244940E+03  0.49160467835E+03  0.76247018837E+02 0.  0.
          5    1    3    3  501    0  0.54984714141E+01 -0.66174934010E+02  0.14761132236E+02  0.68186040390E+02  0.47000000000E+01 0. -1.
        -11    1    4    4    0    0 -0.14132461794E+02 -0.11827427003E+03 -0.60019439848E+02  0.13338239234E+03  0.00000000000E+00 0.  1.
         12    1    4    4    0    0 -0.23925340852E+02 -0.96035164992E+02 -0.15464411272E+03  0.18360276809E+03  0.00000000000E+00 0. -1.
         -5    1    5    5    0  503 -0.35527869421E+02  0.43051822680E+02 -0.22167188446E+03  0.22863989876E+03  0.47000000000E+01 0.  1.
         13    1    6    6    0    0  0.43692460681E+02  0.18614744846E+03 -0.37261855746E+03  0.41881319589E+03  0.00000000000E+00 0. -1.
        -14    1    6    6    0    0  0.24394739971E+02  0.51285097895E+02 -0.45533891939E+02  0.72791482465E+02  0.00000000000E+00 0.  1.
</event>
<event>
12    1  0.9017558E-003  0.2226220E+03  0.7818608E-02  0.1131962E+00
         21   -1    0    0  503  502  0.00000000000E+00  0.00000000000E+00  0.39830445754E+03  0.39830445754E+03  0.00000000000E+00 0. -1.
         21   -1    0    0  501  503 -0.00000000000E+00 -0.00000000000E+00 -0.12437410848E+03  0.12437410848E+03  0.00000000000E+00 0.  1.
          6    2    1    2  501    0 -0.12640985256E+03 -0.62984404869E+02  0.13836655105E+03  0.26211804406E+03  0.17208742107E+03 0.  0.
         24    2    3    3    0    0 -0.15197205671E+03 -0.51702213010E+02  0.80692689040E+02  0.19786013798E+03  0.82877616318E+02 0.  0.
         -6    2    1    2    0  502  0.12640985256E+03  0.62984404869E+02  0.13556379802E+03  0.26056052196E+03  0.17195277314E+03 0.  0.
        -24    2    5    5    0    0  0.10209187319E+03 -0.18029741371E+02  0.50983699043E+02  0.14085029201E+03  0.80570745608E+02 0.  0.
          5    1    3    3  501    0  0.25562204155E+02 -0.11282191859E+02  0.57673862008E+02  0.64257906077E+02  0.47000000000E+01 0. -1.
        -13    1    4    4    0    0 -0.10410701181E+03  0.58603088846E+01  0.34211157807E+02  0.10974067818E+03  0.00000000000E+00 0.  1.
         14    1    4    4    0    0 -0.47865044897E+02 -0.57562521895E+02  0.46481531233E+02  0.88119459801E+02  0.00000000000E+00 0. -1.
         -5    1    5    5    0  502  0.24317979370E+02  0.81014146240E+02  0.84580098975E+02  0.11971022995E+03  0.47000000000E+01 0.  1.
         13    1    6    6    0    0  0.16364462621E+02  0.27145225730E+02  0.25427307599E+02  0.40635045078E+02  0.00000000000E+00 0. -1.
        -14    1    6    6    0    0  0.85727410565E+02 -0.45174967101E+02  0.25556391444E+02  0.10021524694E+03  0.00000000000E+00 0.  1.
</event>
<event>
12    1  0.9017558E-003  0.2194228E+03  0.7818608E-02  0.1135348E+00
         21   -1    0    0  503  502  0.00000000000E+00  0.00000000000E+00  0.27095981110E+03  0.27095981110E+03  0.00000000000E+00 0. -1.
         21   -1    0    0  501  503 -0.00000000000E+00 -0.00000000000E+00 -0.17606859248E+03  0.17606859248E+03  0.00000000000E+00 0.  1.
          6    2    1    2  501    0 -0.12017285242E+03 -0.38797850101E+02  0.74898336996E+02  0.22669665513E+03  0.17272760326E+03 0.  0.
         24    2    3    3    0    0 -0.96839970862E+02 -0.24013009905E+02 -0.20760562810E+02  0.12701852325E+03  0.75816223068E+02 0.  0.
         -6    2    1    2    0  502  0.12017285242E+03  0.38797850101E+02  0.19992881618E+02  0.22033174845E+03  0.17944240421E+03 0.  0.
        -24    2    5    5    0    0  0.76540082863E+02  0.47563016407E+02  0.80621571132E+02  0.14497543012E+03  0.79983828327E+02 0.  0.
          5    1    3    3  501    0 -0.23332881560E+02 -0.14784840197E+02  0.95658899806E+02  0.99678131873E+02  0.47000000000E+01 0. -1.
        -11    1    4    4    0    0 -0.84349103138E+01 -0.26459085968E+02 -0.26510116936E+02  0.38392932191E+02  0.00000000000E+00 0.  1.
         12    1    4    4    0    0 -0.88405060548E+02  0.24460760629E+01  0.57495541261E+01  0.88625591063E+02  0.00000000000E+00 0. -1.
         -5    1    5    5    0  502  0.43632769560E+02 -0.87651663053E+01 -0.60628689513E+02  0.75356318327E+02  0.47000000000E+01 0.  1.
         13    1    6    6    0    0  0.75652274525E+02  0.62706929596E+02  0.48777554353E+02  0.10970266847E+03  0.00000000000E+00 0. -1.
        -14    1    6    6    0    0  0.88780833808E+00 -0.15143913190E+02  0.31844016779E+02  0.35272761658E+02  0.00000000000E+00 0.  1.
</event>
<event>
12    1  0.9017558E-003  0.2324548E+03  0.7818608E-02  0.1127719E+00
         21   -1    0    0  501  502  0.00000000000E+00  0.00000000000E+00  0.41255271250E+03  0.41255271250E+03  0.00000000000E+00 0.  1.
         21   -1    0    0  502  503 -0.00000000000E+00 -0.00000000000E+00 -0.12392247960E+03  0.12392247960E+03  0.00000000000E+00 0. -1.
          6    2    1    2  501    0  0.30975168000E+02 -0.15361793634E+03  0.11931069423E+03  0.26128577512E+03  0.17168949625E+03 0.  0.
         24    2    3    3    0    0  0.19062321921E+02 -0.18035262561E+03  0.84773448641E+02  0.21577126265E+03  0.80500052860E+02 0.  0.
         -6    2    1    2    0  503 -0.30975168000E+02  0.15361793634E+03  0.16931953867E+03  0.27518941699E+03  0.15000725865E+03 0.  0.
        -24    2    5    5    0    0 -0.13064188213E+02  0.38273302948E+02  0.30254785455E+02  0.93568153815E+02  0.78766291225E+02 0.  0.
          5    1    3    3  501    0  0.11912846079E+02  0.26734689271E+02  0.34537245589E+02  0.45514512466E+02  0.47000000000E+01 0. -1.
        -13    1    4    4    0    0 -0.30881313493E+02 -0.56172558773E+02  0.34484027808E+02  0.72788461008E+02  0.00000000000E+00 0.  1.
         14    1    4    4    0    0  0.49943635414E+02 -0.12418006684E+03  0.50289420833E+02  0.14298280164E+03  0.00000000000E+00 0. -1.
         -5    1    5    5    0  503 -0.17910979787E+02  0.11534463339E+03  0.13906475322E+03  0.18162126317E+03  0.47000000000E+01 0.  1.
         11    1    6    6    0    0  0.17153091727E+02  0.40595973107E+02 -0.79709498286E+01  0.44786132111E+02  0.00000000000E+00 0. -1.
        -12    1    6    6    0    0 -0.30217279939E+02 -0.23226701592E+01  0.38225735283E+02  0.48782021704E+02  0.00000000000E+00 0.  1.
</event>
<event>
12    1  0.9017558E-003  0.1831293E+03  0.7818608E-02  0.1164824E+00
         21   -1    0    0  501  502  0.00000000000E+00  0.00000000000E+00  0.38788132909E+03  0.38788132909E+03  0.00000000000E+00 0. -1.
         21   -1    0    0  502  503 -0.00000000000E+00 -0.00000000000E+00 -0.88450946328E+02  0.88450946328E+02  0.00000000000E+00 0. -1.
          6    2    1    2  501    0 -0.54119256609E+02 -0.25132454247E+02  0.11372827311E+03  0.21557008183E+03  0.17313522427E+03 0.  0.
         24    2    3    3    0    0  0.37060620146E+02 -0.22480064035E+02  0.71088481906E+02  0.11476806353E+03  0.78989197378E+02 0.  0.
         -6    2    1    2    0  503  0.54119256609E+02  0.25132454247E+02  0.18570210965E+03  0.26076219359E+03  0.17306390116E+03 0.  0.
        -24    2    5    5    0    0 -0.16107557751E+02  0.34640032851E+02  0.16423599790E+03  0.18656594396E+03  0.79837354318E+02 0.  0.
          5    1    3    3  501    0 -0.91179876755E+02 -0.26523902121E+01  0.42639791202E+02  0.10080201830E+03  0.47000000000E+01 0. -1.
        -11    1    4    4    0    0  0.27584505958E+02 -0.45195919404E+02  0.72886941199E+02  0.90089301791E+02  0.00000000000E+00 0.  1.
         12    1    4    4    0    0  0.94761141882E+01  0.22715855369E+02 -0.17984592933E+01  0.24678761741E+02  0.00000000000E+00 0. -1.
         -5    1    5    5    0  503  0.70226814360E+02 -0.95075786035E+01  0.21466111750E+02  0.74196249634E+02  0.47000000000E+01 0.  1.
         11    1    6    6    0    0  0.15464976962E+02  0.41638135417E+02  0.13784734888E+03  0.14482676350E+03  0.00000000000E+00 0. -1.
        -12    1    6    6    0    0 -0.31572534713E+02 -0.69981025664E+01  0.26388649024E+02  0.41739180455E+02  0.00000000000E+00 0.  1.
</event>
<event>
12    1  0.9017558E-003  0.1796060E+03  0.7818608E-02  0.1168426E+00
         21   -1    0    0  503  502  0.00000000000E+00  0.00000000000E+00  0.84107940038E+02  0.84107940038E+02  0.00000000000E+00 0.  1.
         21   -1    0    0  501  503 -0.00000000000E+00 -0.00000000000E+00 -0.46757485432E+03  0.46757485432E+03  0.00000000000E+00 0.  1.
          6    2    1    2  501    0  0.33277077312E+02  0.37698915320E+02 -0.30970423887E+03  0.35751987382E+03  0.17139186827E+03 0.  0.
         24    2    3    3    0    0  0.72602000469E+02  0.23403055682E+01 -0.27210725592E+03  0.29246371353E+03  0.78842485401E+02 0.  0.
         -6    2    1    2    0  502 -0.33277077312E+02 -0.37698915320E+02 -0.73762675414E+02  0.19416292054E+03  0.17242312878E+03 0.  0.
        -24    2    5    5    0    0  0.32259998112E+02 -0.51798035948E+02 -0.74858804548E+02  0.12695291417E+03  0.82398166190E+02 0.  0.
          5    1    3    3  501    0 -0.39324923157E+02  0.35358609752E+02 -0.37596982953E+02  0.65056160293E+02  0.47000000000E+01 0. -1.
        -11    1    4    4    0    0  0.56610170068E+02  0.34304179042E+02 -0.12938126204E+03  0.14533065411E+03  0.00000000000E+00 0.  1.
         12    1    4    4    0    0  0.15991830401E+02 -0.31963873474E+02 -0.14272599387E+03  0.14713305942E+03  0.00000000000E+00 0. -1.
         -5    1    5    5    0  502 -0.65537075424E+02  0.14099120628E+02  0.10961291338E+01  0.67210006373E+02  0.47000000000E+01 0.  1.
         11    1    6    6    0    0  0.92382057341E+01 -0.23286882825E+02 -0.85256349439E+02  0.88860950234E+02  0.00000000000E+00 0. -1.
        -12    1    6    6    0    0  0.23021792378E+02 -0.28511153122E+02  0.10397544891E+02  0.38091963935E+02  0.00000000000E+00 0.  1.
</event>
<event>
12    1  0.9017558E-003  0.2945672E+03  0.7818608E-02  0.1088117E+00
         21   -1    0    0  503  502  0.00000000000E+00  0.00000000000E+00  0.41634740653E+03  0.41634740653E+03  0.00000000000E+00 0. -1.
         21   -1    0    0  501  503 -0.00000000000E+00 -0.00000000000E+00 -0.20907283268E+03  0.20907283268E+03  0.00000000000E+00 0. -1.
          6    2    1    2  501    0  0.19176745656E+03  0.14117803483E+03  0.12916462977E+03  0.32164162402E+03  0.17338926670E+03 0.  0.
         24    2    3    3    0    0  0.26028705325E+02  0.75941372699E+02  0.76009333546E+02  0.13570418491E+03  0.78699564346E+02 0.  0.
         -6    2    1    2    0  502 -0.19176745656E+03 -0.14117803483E+03  0.78109944080E+02  0.30377861518E+03  0.17168077575E+03 0.  0.
        -24    2    5    5    0    0 -0.41176633076E+02 -0.17109622381E+02  0.57126969410E+02  0.10748051964E+03  0.79374537350E+02 0.  0.
          5    1    3    3  501    0  0.16573875123E+03  0.65236662131E+02  0.53155296224E+02  0.18593743911E+03  0.47000000000E+01 0. -1.
        -11    1    4    4    0    0  0.31482253064E-02  0.62299645869E+02  0.95351142670E+01  0.63025108405E+02  0.00000000000E+00 0.  1.
         12    1    4    4    0    0  0.26025557100E+02  0.13641726830E+02  0.66474219279E+02  0.72679076507E+02  0.00000000000E+00 0. -1.
         -5    1    5    5    0  502 -0.15059082348E+03 -0.12406841245E+03  0.20982974670E+02  0.19629809554E+03  0.47000000000E+01 0.  1.
         11    1    6    6    0    0  0.13363467305E+02  0.18864853989E+02  0.44245336085E+01  0.23538085565E+02  0.00000000000E+00 0. -1.
        -12    1    6    6    0    0 -0.54540100380E+02 -0.35974476370E+02  0.52702435801E+02  0.83942434078E+02  0.00000000000E+00 0.  1.
</event>
<event>
12    1  0.9017558E-003  0.1918025E+03  0.7818608E-02  0.1157127E+00
         21   -1    0    0  503  502  0.00000000000E+00  0.00000000000E+00  0.16506780781E+02  0.16506780781E+02  0.00000000000E+00 0. -1.
         21   -1    0    0  501  503 -0.00000000000E+00 -0.00000000000E+00 -0.22428863098E+04  0.22428863098E+04  0.00000000000E+00 0.  1.
          6    2    1    2  501    0 -0.57364284465E+02  0.63528011774E+02 -0.98146520900E+03  0.99979003645E+03  0.17023422425E+03 0.  0.
         24    2    3    3    0    0 -0.89904462085E+02  0.14832642125E+01 -0.59353388896E+03  0.60555506474E+03  0.79557819901E+02 0.  0.
         -6    2    1    2    0  502  0.57364284465E+02 -0.63528011774E+02 -0.12449143200E+04  0.12596030541E+04  0.17164416785E+03 0.  0.
        -24    2    5    5    0    0  0.54305895092E+00 -0.90120340203E+02 -0.97289973671E+03  0.98040809154E+03  0.80895967962E+02 0.  0.
          5    1    3    3  501    0  0.32540177620E+02  0.62044747562E+02 -0.38793132004E+03  0.39423497172E+03  0.47000000000E+01 0. -1.
        -11    1    4    4    0    0 -0.69678152907E+01  0.55911248987E+01 -0.30957128076E+03  0.30970015983E+03  0.00000000000E+00 0.  1.
         12    1    4    4    0    0 -0.82936646794E+02 -0.41078606862E+01 -0.28396260821E+03  0.29585490491E+03  0.00000000000E+00 0. -1.
         -5    1    5    5    0  502  0.56821225514E+02  0.26592328428E+02 -0.27201458327E+03  0.27919496255E+03  0.47000000000E+01 0.  1.
         13    1    6    6    0    0  0.11137307995E+02 -0.89191857994E+02 -0.54394130018E+03  0.55131784408E+03  0.00000000000E+00 0. -1.
        -14    1    6    6    0    0 -0.10594249044E+02 -0.92848220877E+00 -0.42895843653E+03  0.42909024745E+03  0.00000000000E+00 0.  1.
</event>
<event>
12    1  0.9017558E-003  0.2230930E+03  0.7818608E-02  0.1131981E+00
         21   -1    0    0  503  502  0.00000000000E+00  0.00000000000E+00  0.22675736019E+03  0.22675736019E+03  0.00000000000E+00 0. -1.
         21   -1    0    0  501  503 -0.00000000000E+00 -0.00000000000E+00 -0.23020719527E+03  0.23020719527E+03  0.00000000000E+00 0.  1.
          6    2    1    2  501    0 -0.15214073898E+02 -0.14067524966E+03  0.52063820423E+02  0.22908756938E+03  0.17248037318E+03 0.  0.
         24    2    3    3    0    0  0.26931801541E+02 -0.96170785438E+02  0.90512262052E+02  0.15658036411E+03  0.79691900063E+02 0.  0.
         -6    2    1    2    0  502  0.15214073898E+02  0.14067524966E+03 -0.55513655512E+02  0.22787698608E+03  0.16977974239E+03 0.  0.
        -24    2    5    5    0    0 -0.24863731808E+02  0.69542343633E+02  0.26766695334E+02  0.11186721509E+03  0.79645935963E+02 0.  0.
          5    1    3    3  501    0 -0.42145875440E+02 -0.44504464226E+02 -0.38448441629E+02  0.72507205272E+02  0.47000000000E+01 0. -1.
        -11    1    4    4    0    0 -0.93614817621E+00 -0.63660974047E+02  0.87261146161E+01  0.64263061445E+02  0.00000000000E+00 0.  1.
         12    1    4    4    0    0  0.27867949718E+02 -0.32509811391E+02  0.81786147436E+02  0.92317302661E+02  0.00000000000E+00 0. -1.
         -5    1    5    5    0  502  0.40077805706E+02  0.71132906031E+02 -0.82280350845E+02  0.11600977099E+03  0.47000000000E+01 0.  1.
         11    1    6    6    0    0 -0.18378970653E+01  0.25270997749E+01  0.39711195439E+02  0.39833944596E+02  0.00000000000E+00 0. -1.
        -12    1    6    6    0    0 -0.23025834742E+02  0.67015243858E+02 -0.12944500105E+02  0.72033270493E+02  0.00000000000E+00 0.  1.
</event>
<event>
12    1  0.9017558E-003  0.2474272E+03  0.7818608E-02  0.1115348E+00
         21   -1    0    0  503  502  0.00000000000E+00  0.00000000000E+00  0.17337832490E+03  0.17337832490E+03  0.00000000000E+00 0. -1.
         21   -1    0    0  501  503 -0.00000000000E+00 -0.00000000000E+00 -0.38540855629E+03  0.38540855629E+03  0.00000000000E+00 0.  1.
          6    2    1    2  501    0  0.16766030552E+03  0.50363539626E+02 -0.19178220553E+03  0.31305055357E+03  0.17485356892E+03 0.  0.
         24    2    3    3    0    0  0.14546971001E+03  0.97533958295E+02 -0.17437822416E+03  0.25789205927E+03  0.73663013930E+02 0.  0.
         -6    2    1    2    0  502 -0.16766030552E+03 -0.50363539626E+02 -0.20248025865E+02  0.24573632762E+03  0.17125973254E+03 0.  0.
        -24    2    5    5    0    0 -0.74273832523E+02  0.38162506392E+02  0.27200068619E+01  0.11494062933E+03  0.78936498165E+02 0.  0.
          5    1    3    3  501    0  0.22190595510E+02 -0.47170418669E+02 -0.17403981369E+02  0.55158494305E+02  0.47000000000E+01 0. -1.
        -11    1    4    4    0    0  0.12324086190E+03  0.66612147417E+02 -0.93302268888E+02  0.16831756179E+03  0.00000000000E+00 0.  1.
         12    1    4    4    0    0  0.22228848110E+02  0.30921810879E+02 -0.81075955269E+02  0.89574497482E+02  0.00000000000E+00 0. -1.
         -5    1    5    5    0  502 -0.93386472999E+02 -0.88526046018E+02 -0.22968032727E+02  0.13079569829E+03  0.47000000000E+01 0.  1.
         13    1    6    6    0    0 -0.46987828303E+02  0.18417245423E+01  0.35500922946E+02  0.58919975288E+02  0.00000000000E+00 0. -1.
        -14    1    6    6    0    0 -0.27286004220E+02  0.36320781849E+02 -0.32780916084E+02  0.56020654046E+02  0.00000000000E+00 0.  1.
</event>
<event>
12    1  0.9017558E-003  0.2628194E+03  0.7818608E-02  0.1105478E+00
         21   -1    0    0  501  502  0.00000000000E+00  0.00000000000E+00  0.76345368205E+03  0.76345368205E+03  0.00000000000E+00 0. -1.
         21   -1    0    0  502  503 -0.00000000000E+00 -0.00000000000E+00 -0.20906845728E+03  0.20906845728E+03  0.00000000000E+00 0.  1.
          6    2    1    2  501    0  0.17487060579E+03  0.94583116811E+02  0.64345813933E+03  0.69501893818E+03  0.17171852726E+03 0.  0.
         24    2    3    3    0    0  0.51312549688E+02  0.17168272186E+02  0.13115577889E+03  0.16235070193E+03  0.78918849180E+02 0.  0.
         -6    2    1    2    0  503 -0.17487060579E+03 -0.94583116811E+02 -0.89072914564E+02  0.27750320114E+03  0.17189632857E+03 0.  0.
        -24    2    5    5    0    0 -0.59366637613E+02 -0.43990238845E+02  0.19906467022E+02  0.11077167569E+03  0.80090935390E+02 0.  0.
          5    1    3    3  501    0  0.12355805611E+03  0.77414844625E+02  0.51230236044E+03  0.53266823625E+03  0.47000000000E+01 0. -1.
        -13    1    4    4    0    0  0.17859529137E+02  0.29724500843E+02  0.10080190598E+02  0.36112587471E+02  0.00000000000E+00 0.  1.
         14    1    4    4    0    0  0.33453020551E+02 -0.12556228657E+02  0.12107558829E+03  0.12623811446E+03  0.00000000000E+00 0. -1.
         -5    1    5    5    0  503 -0.11550396818E+03 -0.50592877966E+02 -0.10897938159E+03  0.16673152545E+03  0.47000000000E+01 0.  1.
         11    1    6    6    0    0  0.72691554318E+01  0.16927636170E+02  0.52361610936E+00  0.18429857862E+02  0.00000000000E+00 0. -1.
        -12    1    6    6    0    0 -0.66635793045E+02 -0.60917875014E+02  0.19382850913E+02  0.92341817832E+02  0.00000000000E+00 0.  1.
</event>
<event>
12    1  0.9017558E-003  0.2377978E+03  0.7818608E-02  0.1121538E+00
         21   -1    0    0  503  502  0.00000000000E+00  0.00000000000E+00  0.51826734373E+03  0.51826734373E+03  0.00000000000E+00 0.  1.
         21   -1    0    0  501  503 -0.00000000000E+00 -0.00000000000E+00 -0.12827720921E+03  0.12827720921E+03  0.00000000000E+00 0. -1.
          6    2    1    2  501    0  0.71051691718E+02 -0.14558109952E+03  0.67118890512E+02  0.24555374573E+03  0.17189967174E+03 0.  0.
         24    2    3    3    0    0  0.92338584957E+02 -0.10652848204E+03 -0.32657849365E+01  0.16216111240E+03  0.80067654307E+02 0.  0.
         -6    2    1    2    0  502 -0.71051691718E+02  0.14558109952E+03  0.32287124401E+03  0.40099080721E+03  0.17408500173E+03 0.  0.
        -24    2    5    5    0    0  0.14067634391E+02  0.16269118921E+02  0.10260671205E+03  0.13172246143E+03  0.79750153091E+02 0.  0.
          5    1    3    3  501    0 -0.21286893239E+02 -0.39052617479E+02  0.70384675449E+02  0.83392633330E+02  0.47000000000E+01 0. -1.
        -13    1    4    4    0    0 -0.88349037314E+00  0.86877967823E+01  0.10101768646E+02  0.13353055753E+02  0.00000000000E+00 0.  1.
         14    1    4    4    0    0  0.93222075330E+02 -0.11521627882E+03 -0.13367553583E+02  0.14880805665E+03  0.00000000000E+00 0. -1.
         -5    1    5    5    0  502 -0.85119326109E+02  0.12931198060E+03  0.22026453196E+03  0.26926834578E+03  0.47000000000E+01 0.  1.
         13    1    6    6    0    0  0.23686488121E+02  0.39782630481E+02  0.30941091309E+02  0.55687148777E+02  0.00000000000E+00 0. -1.
        -14    1    6    6    0    0 -0.96188537306E+01 -0.23513511561E+02  0.71665620744E+02  0.76035312649E+02  0.00000000000E+00 0.  1.
</event>
<event>
12    1  0.9017558E-003  0.2032140E+03  0.7818608E-02  0.1147243E+00
         21   -1    0    0  501  502  0.00000000000E+00  0.00000000000E+00  0.10204362561E+04  0.10204362561E+04  0.00000000000E+00 0.  1.
         21   -1    0    0  502  503 -0.00000000000E+00 -0.00000000000E+00 -0.40306414572E+02  0.40306414572E+02  0.00000000000E+00 0.  1.
          6    2    1    2  501    0 -0.66611909190E+02 -0.84869601264E+02  0.50235441598E+03  0.54190027426E+03  0.17220903674E+03 0.  0.
         24    2    3    3    0    0 -0.10399213819E+03 -0.57729777388E+02  0.44828663000E+03  0.47063129756E+03  0.79911348430E+02 0.  0.
         -6    2    1    2    0  503  0.66611909190E+02  0.84869601264E+02  0.47777542552E+03  0.51884239637E+03  0.17113760364E+03 0.  0.
        -24    2    5    5    0    0  0.91216234725E+02  0.43135163789E+02  0.43640081807E+03  0.45495903197E+03  0.79755895838E+02 0.  0.
          5    1    3    3  501    0  0.37380228996E+02 -0.27139823876E+02  0.54067785973E+02  0.71268976700E+02  0.47000000000E+01 0. -1.
        -13    1    4    4    0    0 -0.28916281416E+02 -0.25484980016E+01  0.24845913437E+03  0.25014913077E+03  0.00000000000E+00 0.  1.
         14    1    4    4    0    0 -0.75075856769E+02 -0.55181279386E+02  0.19982749563E+03  0.22048216680E+03  0.00000000000E+00 0. -1.
         -5    1    5    5    0  503 -0.24604325536E+02  0.41734437475E+02  0.41374607445E+02  0.63883364405E+02  0.47000000000E+01 0.  1.
         11    1    6    6    0    0  0.23412407818E+02  0.25505231604E+02  0.29632173484E+03  0.29833744019E+03  0.00000000000E+00 0. -1.
        -12    1    6    6    0    0  0.67803826908E+02  0.17629932185E+02  0.14007908323E+03  0.15662159178E+03  0.00000000000E+00 0.  1.
</event>
<event>
12    1  0.9017558E-003  0.2670150E+03  0.7818608E-02  0.1103116E+00
         21   -1    0    0  501  502  0.00000000000E+00  0.00000000000E+00  0.58412165593E+03  0.58412165593E+03  0.00000000000E+00 0.  1.
         21   -1    0    0  502  503 -0.00000000000E+00 -0.00000000000E+00 -0.12173626770E+03  0.12173626770E+03  0.00000000000E+00 0. -1.
          6    2    1    2  501    0  0.63399621205E+02 -0.19453376988E+03  0.22443677346E+03  0.34820371522E+03  0.17032634095E+03 0.  0.
         24    2    3    3    0    0  0.68650697548E+02 -0.21210952792E+03  0.17248007560E+03  0.29290390034E+03  0.79623791997E+02 0.  0.
         -6    2    1    2    0  503 -0.63399621205E+02  0.19453376988E+03  0.23794861478E+03  0.35765420841E+03  0.17156366144E+03 0.  0.
        -24    2    5    5    0    0 -0.47449737710E+02  0.21192799304E+03  0.18131819218E+03  0.29612330117E+03  0.87451534230E+02 0.  0.
          5    1    3    3  501    0 -0.52510763430E+01  0.17575758032E+02  0.51956697861E+02  0.55299814880E+02  0.47000000000E+01 0. -1.
        -13    1    4    4    0    0  0.20886754473E+02 -0.38581999859E+01  0.27292117689E+02  0.34583260510E+02  0.00000000000E+00 0.  1.
         14    1    4    4    0    0  0.47763943075E+02 -0.20825132793E+03  0.14518795791E+03  0.25832063983E+03  0.00000000000E+00 0. -1.
         -5    1    5    5    0  503 -0.15949883495E+02 -0.17394223152E+02  0.56630422594E+02  0.61530907240E+02  0.47000000000E+01 0.  1.
         11    1    6    6    0    0  0.20332324478E+02  0.14812014649E+02  0.25984910961E+02  0.36166487171E+02  0.00000000000E+00 0. -1.
        -12    1    6    6    0    0 -0.67782062188E+02  0.19711597839E+03  0.15533328122E+03  0.25995681400E+03  0.00000000000E+00 0.  1.
</event>
<event>
12    1  0.9017558E-003  0.3559964E+03  0.7818608E-02  0.1060215E+00
         21   -1    0    0  503  502  0.00000000000E+00  0.00000000000E+00  0.71906926636E+03  0.71906926636E+03  0.00000000000E+00 0.  1.
         21   -1    0    0  501  503 -0.00000000000E+00 -0.00000000000E+00 -0.21092214424E+03  0.21092214424E+03  0.00000000000E+00 0. -1.
          6    2    1    2  501    0  0.20255689809E+03 -0.23449995398E+03  0.64974677846E+02  0.36154156449E+03  0.17455964229E+03 0.  0.
         24    2    3    3    0    0  0.67733423611E+02 -0.33390827691E+02  0.50589721278E+00  0.11094115823E+03  0.81270662657E+02 0.  0.
         -6    2    1    2    0  502 -0.20255689809E+03  0.23449995398E+03  0.44317244428E+03  0.56844984610E+03  0.17525377825E+03 0.  0.
        -24    2    5    5    0    0 -0.16066231544E+03  0.22653344521E+03  0.29199078113E+03  0.41129830590E+03  0.82327995058E+02 0.  0.
          5    1    3    3  501    0  0.13482347447E+03 -0.20110912629E+03  0.64468780633E+02  0.25060040627E+03  0.47000000000E+01 0. -1.
        -13    1    4    4    0    0  0.10207865257E+02 -0.36840550062E+02  0.27708839005E+02  0.47214472368E+02  0.00000000000E+00 0.  1.
         14    1    4    4    0    0  0.57525558354E+02  0.34497223714E+01 -0.27202941792E+02  0.63726685858E+02  0.00000000000E+00 0. -1.
         -5    1    5    5    0  502 -0.41894582645E+02  0.79665087701E+01  0.15118166315E+03  0.15715154021E+03  0.47000000000E+01 0.  1.
         13    1    6    6    0    0  0.47173408514E+01  0.39901723990E+02  0.44802456999E+02  0.60180237913E+02  0.00000000000E+00 0. -1.
        -14    1    6    6    0    0 -0.16537965629E+03  0.18663172122E+03  0.24718832413E+03  0.35111806798E+03  0.00000000000E+00 0.  1.
</event>
<event>
12    1  0.9017558E-003  0.1777946E+03  0.7818608E-02  0.1170526E+00
         21   -1    0    0  501  502  0.00000000000E+00  0.00000000000E+00  0.82940725882E+02  0.82940725882E+02  0.00000000000E+00 0. -1.
         21   -1    0    0  502  503 -0.00000000000E+00 -0.00000000000E+00 -0.10533124061E+04  0.10533124061E+04  0.00000000000E+00 0. -1.
          6    2    1    2  501    0 -0.32843422914E+02 -0.17505287863E+01 -0.30810746804E+02  0.18044453616E+03  0.17472599615E+03 0.  0.
         24    2    3    3    0    0  0.46214269378E+02  0.38694621948E+01 -0.39525859371E+02  0.10057122274E+03  0.80009660995E+02 0.  0.
         -6    2    1    2    0  503  0.32843422914E+02  0.17505287863E+01 -0.93956093340E+03  0.95580859581E+03  0.17237624394E+03 0.  0.
        -24    2    5    5    0    0  0.73105009278E+02 -0.34620173794E+02 -0.65847582009E+03  0.66949625890E+03  0.89955190086E+02 0.  0.
          5    1    3    3  501    0 -0.79057692292E+02 -0.56199909811E+01  0.87151125666E+01  0.79873313417E+02  0.47000000000E+01 0. -1.
        -11    1    4    4    0    0  0.17606795957E+02 -0.34319404893E+02 -0.35940134358E+02  0.52721097046E+02  0.00000000000E+00 0.  1.
         12    1    4    4    0    0  0.28607473421E+02  0.38188867088E+02 -0.35857250130E+01  0.47850125693E+02  0.00000000000E+00 0. -1.
         -5    1    5    5    0  503 -0.40261586364E+02  0.36370702580E+02 -0.28108511331E+03  0.28631233691E+03  0.47000000000E+01 0.  1.
         13    1    6    6    0    0 -0.19160380375E+02  0.60650999377E+01 -0.11595450072E+03  0.11768326920E+03  0.00000000000E+00 0. -1.
        -14    1    6    6    0    0  0.92265389653E+02 -0.40685273731E+02 -0.54252131937E+03  0.55181298970E+03  0.00000000000E+00 0.  1.
</event>
<event>
12    1  0.9017558E-003  0.1759084E+03  0.7818608E-02  0.1172560E+00
         21   -1    0    0  501  502  0.00000000000E+00  0.00000000000E+00  0.10122507883E+04  0.10122507883E+04  0.00000000000E+00 0. -1.
         21   -1    0    0  502  503 -0.00000000000E+00 -0.00000000000E+00 -0.31135084708E+02  0.31135084708E+02  0.00000000000E+00 0. -1.
          6    2    1    2  501    0  0.24062142007E+02  0.15335455821E+02  0.38973799156E+03  0.42640017223E+03  0.17060844623E+03 0.  0.
         24    2    3    3    0    0  0.27863761953E+02  0.12610207355E+02  0.40280440235E+03  0.41174751430E+03  0.79682008155E+02 0.  0.
         -6    2    1    2    0  503 -0.24062142007E+02 -0.15335455821E+02  0.59137771201E+03  0.61698570077E+03  0.17357878269E+03 0.  0.
        -24    2    5    5    0    0  0.63112199752E+01 -0.74759152883E+02  0.41307114739E+03  0.42654138376E+03  0.75372520317E+02 0.  0.
          5    1    3    3  501    0 -0.38016199458E+01  0.27252484656E+01 -0.13066410786E+02  0.14652657924E+02  0.47000000000E+01 0. -1.
        -11    1    4    4    0    0  0.43809460706E+02 -0.15841493602E+02  0.30768549726E+03  0.31119220266E+03  0.00000000000E+00 0.  1.
         12    1    4    4    0    0 -0.15945698753E+02  0.28451700957E+02  0.95118905085E+02  0.10055531165E+03  0.00000000000E+00 0. -1.
         -5    1    5    5    0  503 -0.30373361982E+02  0.59423697062E+02  0.17830656463E+03  0.19044431701E+03  0.47000000000E+01 0.  1.
         13    1    6    6    0    0 -0.11304761545E+02 -0.58322022036E+02  0.13580543620E+03  0.14823080783E+03  0.00000000000E+00 0. -1.
        -14    1    6    6    0    0  0.17615981520E+02 -0.16437130847E+02  0.27726571119E+03  0.27831057593E+03  0.00000000000E+00 0.  1.
</event>
<event>
12    1  0.9017558E-003  0.1836570E+03  0.7818608E-02  0.1165295E+00
         21   -1    0    0  501  502  0.00000000000E+00  0.00000000000E+00  0.53941783292E+02  0.53941783292E+02  0.00000000000E+00 0.  1.
         21   -1    0    0  502  503 -0.00000000000E+00 -0.00000000000E+00 -0.63501854148E+03  0.63501854148E+03  0.00000000000E+00 0.  1.
          6    2    1    2  501    0  0.53405491977E+02  0.18793171560E+02 -0.22717559984E+03  0.29212779361E+03  0.17471280653E+03 0.  0.
         24    2    3    3    0    0 -0.21511241023E+02  0.54989029914E+02 -0.12090791980E+03  0.15708125768E+03  0.81051030486E+02 0.  0.
         -6    2    1    2    0  503 -0.53405491977E+02 -0.18793171560E+02 -0.35390115835E+03  0.39683253116E+03  0.17036636416E+03 0.  0.
        -24    2    5    5    0    0 -0.97031778000E+02 -0.23130526596E+02 -0.20158952346E+03  0.23826712004E+03  0.78630129864E+02 0.  0.
          5    1    3    3  501    0  0.74916733000E+02 -0.36195858354E+02 -0.10626768004E+03  0.13504653593E+03  0.47000000000E+01 0. -1.
        -13    1    4    4    0    0 -0.82426000904E+00  0.64921947758E+02 -0.48269574976E+02  0.80904206155E+02  0.00000000000E+00 0.  1.
         14    1    4    4    0    0 -0.20686981014E+02 -0.99329178439E+01 -0.72638344822E+02  0.76177051523E+02  0.00000000000E+00 0. -1.
         -5    1    5    5    0  503  0.43626286023E+02  0.43373550359E+01 -0.15231163489E+03  0.15856541112E+03  0.47000000000E+01 0.  1.
         13    1    6    6    0    0 -0.16501162168E+02 -0.18422011209E+02 -0.42734748711E+01  0.25098235742E+02  0.00000000000E+00 0. -1.
        -14    1    6    6    0    0 -0.80530615832E+02 -0.47085153860E+01 -0.19731604859E+03  0.21316888430E+03  0.00000000000E+00 0.  1.
</event>
<event>
12    1  0.9017558E-003  0.1907985E+03  0.7818608E-02  0.1157811E+00
         21   -1    0    0  503  502  0.00000000000E+00  0.00000000000E+00  0.90102011543E+03  0.90102011543E+03  0.00000000000E+00 0.  1.
         21   -1    0    0  501  503 -0.00000000000E+00 -0.00000000000E+00 -0.47644000866E+02  0.47644000866E+02  0.00000000000E+00 0.  1.
          6    2    1    2  501    0  0.79554245574E+02 -0.18120288086E+02  0.24067292199E+03  0.30694043855E+03  0.17213876556E+03 0.  0.
         24    2    3    3    0    0  0.83124721103E+02  0.44032778477E+02  0.18518794733E+03  0.22341544594E+03  0.82287792570E+02 0.  0.
         -6    2    1    2    0  502 -0.79554245574E+02  0.18120288086E+02  0.61270319257E+03  0.64172367774E+03  0.17247276180E+03 0.  0.
        -24    2    5    5    0    0 -0.34925135785E+02  0.28401994400E+02  0.14455011628E+03  0.17131230058E+03  0.80166887289E+02 0.  0.
          5    1    3    3  501    0 -0.35704755296E+01 -0.62153066563E+02  0.55484974659E+02  0.83524992616E+02  0.47000000000E+01 0. -1.
        -13    1    4    4    0    0  0.54527108919E+02 -0.18232687240E+00  0.36338870941E+02  0.65526730358E+02  0.00000000000E+00 0.  1.
         14    1    4    4    0    0  0.28597612184E+02  0.44215105349E+02  0.14884907639E+03  0.15788871558E+03  0.00000000000E+00 0. -1.
         -5    1    5    5    0  502 -0.44629109789E+02 -0.10281706314E+02  0.46815307629E+03  0.47041137717E+03  0.47000000000E+01 0.  1.
         13    1    6    6    0    0  0.15184712395E+02 -0.17098219829E+02  0.50524970137E+02  0.55458968789E+02  0.00000000000E+00 0. -1.
        -14    1    6    6    0    0 -0.50109848180E+02  0.45500214229E+02  0.94025146140E+02  0.11585333179E+03  0.00000000000E+00 0.  1.
</event>
<event>
12    1  0.9017558E-003  0.1936233E+03  0.7818608E-02  0.1156187E+00
         21   -1    0    0  503  502  0.00000000000E+00  0.00000000000E+00  0.10404607300E+03  0.10404607300E+03  0.00000000000E+00 0. -1.
         21   -1    0    0  501  503 -0.00000000000E+00 -0.00000000000E+00 -0.40016011457E+03  0.40016011457E+03  0.00000000000E+00 0. -1.
          6    2    1    2  501    0  0.46177426600E+02  0.80834699233E+02 -0.23369427678E+03  0.30077015316E+03  0.16487288044E+03 0.  0.
         24    2    3    3    0    0 -0.57440090630E+01  0.76837724657E+02 -0.21923781805E+03  0.24652173856E+03  0.82284367602E+02 0.  0.
         -6    2    1    2    0  502 -0.46177426600E+02 -0.80834699233E+02 -0.62419764786E+02  0.20343603442E+03  0.16977452617E+03 0.  0.
        -24    2    5    5    0    0 -0.76298991391E+02 -0.74044937470E+02 -0.69836448685E+00  0.13426211747E+03  0.81985606196E+02 0.  0.
          5    1    3    3  501    0  0.51921435663E+02  0.39969745766E+01 -0.14456458735E+02  0.54248414597E+02  0.47000000000E+01 0. -1.
        -11    1    4    4    0    0  0.80334308943E+01  0.19254518343E+02 -0.15445112865E+01  0.20920277332E+02  0.00000000000E+00 0.  1.
         12    1    4    4    0    0 -0.13777439957E+02  0.57583206314E+02 -0.21769330676E+03  0.22560146123E+03  0.00000000000E+00 0. -1.
         -5    1    5    5    0  502  0.30121564791E+02 -0.67897617629E+01 -0.61721400300E+02  0.69173916943E+02  0.47000000000E+01 0.  1.
         13    1    6    6    0    0  0.15345616785E+02 -0.93427107145E+01  0.11632590715E+02  0.21403069050E+02  0.00000000000E+00 0. -1.
        -14    1    6    6    0    0 -0.91644608177E+02 -0.64702226756E+02 -0.12330955202E+02  0.11285904842E+03  0.00000000000E+00 0.  1.
</event>
<event>
12    1  0.9017558E-003  0.3379715E+03  0.7818608E-02  0.1067689E+00
         21   -1    0    0  501  502  0.00000000000E+00  0.00000000000E+00  0.77684042931E+03  0.77684042931E+03  0.00000000000E+00 0.  1.
         21   -1    0    0  502  503 -0.00000000000E+00 -0.00000000000E+00 -0.16322940220E+03  0.16322940220E+03  0.00000000000E+00 0.  1.
          6    2    1    2  501    0  0.13246689301E+03  0.25882227515E+03  0.45522766182E+03  0.56682727313E+03  0.17182690599E+03 0.  0.
         24    2    3    3    0    0  0.12499836003E+03  0.19263100724E+03  0.43061705786E+03  0.49565962065E+03  0.86695525054E+02 0.  0.
         -6    2    1    2    0  503 -0.13246689301E+03 -0.25882227515E+03  0.15838336528E+03  0.37324255838E+03  0.17230284132E+03 0.  0.
        -24    2    5    5    0    0 -0.40694800809E+02 -0.19199931877E+03  0.64975832366E+02  0.22615591176E+03  0.91677873088E+02 0.  0.
          5    1    3    3  501    0  0.74685329791E+01  0.66191267910E+02  0.24610603963E+02  0.71167652482E+02  0.47000000000E+01 0. -1.
        -11    1    4    4    0    0  0.80080434492E+02  0.80087383301E+02  0.13528110325E+03  0.17643084155E+03  0.00000000000E+00 0.  1.
         12    1    4    4    0    0  0.44917925539E+02  0.11254362394E+03  0.29533595461E+03  0.31922877910E+03  0.00000000000E+00 0. -1.
         -5    1    5    5    0  503 -0.91772092201E+02 -0.66822956385E+02  0.93407532919E+02  0.14708664662E+03  0.47000000000E+01 0.  1.
         11    1    6    6    0    0 -0.53525820987E+02 -0.18505763738E+03  0.39278785194E+02  0.19660662662E+03  0.00000000000E+00 0. -1.
        -12    1    6    6    0    0  0.12831020178E+02 -0.69416813927E+01  0.25697047172E+02  0.29549285147E+02  0.00000000000E+00 0.  1.
</event>
<event>
12    1  0.9017558E-003  0.2097671E+03  0.7818608E-02  0.1142013E+00
         21   -1    0    0  503  502  0.00000000000E+00  0.00000000000E+00  0.24183550980E+03  0.24183550980E+03  0.00000000000E+00 0. -1.
         21   -1    0    0  501  503 -0.00000000000E+00 -0.00000000000E+00 -0.27208396896E+03  0.27208396896E+03  0.00000000000E+00 0. -1.
          6    2    1    2  501    0  0.11779589331E+03 -0.11004341899E+02 -0.16392347679E+03  0.26518017873E+03  0.17161775237E+03 0.  0.
         24    2    3    3    0    0  0.83529783404E+02  0.51210830939E+02 -0.14309842647E+03  0.19101369884E+03  0.80058101178E+02 0.  0.
         -6    2    1    2    0  502 -0.11779589331E+03  0.11004341899E+02  0.13367501763E+03  0.24873930002E+03  0.17322026733E+03 0.  0.
        -24    2    5    5    0    0 -0.12351330162E+03 -0.13829067340E+02  0.42703795431E+02  0.15414944729E+03  0.80570833270E+02 0.  0.
          5    1    3    3  501    0  0.34266109909E+02 -0.62215172837E+02 -0.20825050318E+02  0.74166479897E+02  0.47000000000E+01 0. -1.
        -13    1    4    4    0    0  0.27566648973E+02  0.35226691904E+00  0.17388334996E+01  0.27623681318E+02  0.00000000000E+00 0.  1.
         14    1    4    4    0    0  0.55963134431E+02  0.50858564020E+02 -0.14483725997E+03  0.16339001752E+03  0.00000000000E+00 0. -1.
         -5    1    5    5    0  502  0.57174083055E+01  0.24833409239E+02  0.90971222203E+02  0.94589852739E+02  0.47000000000E+01 0.  1.
         11    1    6    6    0    0 -0.61529964067E+02  0.32694768896E+02  0.28880958454E+02  0.75425421129E+02  0.00000000000E+00 0. -1.
        -12    1    6    6    0    0 -0.61983337553E+02 -0.46523836236E+02  0.13822836976E+02  0.78724026157E+02  0.00000000000E+00 0.  1.
</event>
<event>
12    1  0.9017558E-003  0.2167652E+03  0.7818608E-02  0.1136414E+00
         21   -1    0    0  503  502  0.00000000000E+00  0.00000000000E+00  0.22724268673E+03  0.22724268673E+03  0.00000000000E+00 0. -1.
         21   -1    0    0  501  503 -0.00000000000E+00 -0.00000000000E+00 -0.22264546064E+03  0.22264546064E+03  0.00000000000E+00 0. -1.
          6    2    1    2  501    0 -0.12659342619E+03  0.34777760074E+02 -0.58668422335E+02  0.22456434142E+03  0.17248701837E+03 0.  0.
         24    2    3    3    0    0 -0.56761543708E+02  0.12256525466E+02 -0.99399879139E+02  0.14051174246E+03  0.80567478144E+02 0.  0.
         -6    2    1    2    0  502  0.12659342619E+03 -0.34777760074E+02  0.63265648418E+02  0.22532380595E+03  0.17185135178E+03 0.  0.
        -24    2    5    5    0    0  0.15008018936E+03 -0.55536581542E+02  0.71559767691E+02  0.19256042506E+03  0.79689031992E+02 0.  0.
          5    1    3    3  501    0 -0.69831882479E+02  0.22521234607E+02  0.40731456804E+02  0.84052598962E+02  0.47000000000E+01 0. -1.
        -11    1    4    4    0    0 -0.53372374588E+02  0.36010285083E+02 -0.38408699570E+02  0.74970522231E+02  0.00000000000E+00 0.  1.
         12    1    4    4    0    0 -0.33891691195E+01 -0.23753759617E+02 -0.60991179568E+02  0.65541220224E+02  0.00000000000E+00 0. -1.
         -5    1    5    5    0  502 -0.23486763171E+02  0.20758821468E+02 -0.82941192732E+01  0.32763380893E+02  0.47000000000E+01 0.  1.
         11    1    6    6    0    0  0.14471219704E+03 -0.25899981617E+02  0.68803980048E+02  0.16231579310E+03  0.00000000000E+00 0. -1.
        -12    1    6    6    0    0  0.53679923166E+01 -0.29636599925E+02  0.27557876438E+01  0.30244631956E+02  0.00000000000E+00 0.  1.
</event>
<event>
12    1  0.9017558E-003  0.2054830E+03  0.7818608E-02  0.1145412E+00
         21   -1    0    0  503  502  0.00000000000E+00  0.00000000000E+00  0.21694155417E+02  0.21694155417E+02  0.00000000000E+00 0.  1.
         21   -1    0    0  501  503 -0.00000000000E+00 -0.00000000000E+00 -0.20406673409E+04  0.20406673409E+04  0.00000000000E+00 0. -1.
          6    2    1    2  501    0 -0.10120703143E+03  0.41988727527E+02 -0.12453332827E+04  0.12621720335E+04  0.17383135668E+03 0.  0.
         24    2    3    3    0    0 -0.42157220532E+02  0.16014238381E+02 -0.28639149706E+03  0.30105133733E+03  0.81105678265E+02 0.  0.
         -6    2    1    2    0  502  0.10120703143E+03 -0.41988727527E+02 -0.77363990277E+03  0.80018946286E+03  0.17256465705E+03 0.  0.
        -24    2    5    5    0    0  0.13125770969E+03 -0.43653899612E+02 -0.72606134859E+03  0.74369499517E+03  0.82358452003E+02 0.  0.
          5    1    3    3  501    0 -0.59049810901E+02  0.25974489146E+02 -0.95894178567E+03  0.96112069615E+03  0.47000000000E+01 0. -1.
        -13    1    4    4    0    0 -0.24796851593E+02  0.41555331976E+02 -0.24312331066E+03  0.24789246388E+03  0.00000000000E+00 0.  1.
         14    1    4    4    0    0 -0.17360368939E+02 -0.25541093596E+02 -0.43268186398E+02  0.53158873445E+02  0.00000000000E+00 0. -1.
         -5    1    5    5    0  502 -0.30050678257E+02  0.16651720847E+01 -0.47578554174E+02  0.56494467685E+02  0.47000000000E+01 0.  1.
         11    1    6    6    0    0  0.45253981138E+02  0.41497807283E+01 -0.98637730680E+02  0.10860269519E+03  0.00000000000E+00 0. -1.
        -12    1    6    6    0    0  0.86003728552E+02 -0.47803680340E+02 -0.62742361791E+03  0.63509229998E+03  0.00000000000E+00 0.  1.
</event>
<event>
12    1  0.9017558E-003  0.1758685E+03  0.7818608E-02  0.1172633E+00
         21   -1    0    0  503  502  0.00000000000E+00  0.00000000000E+00  0.43679598063E+03  0.43679598063E+03  0.00000000000E+00 0.  1.
         21   -1    0    0  501  503 -0.00000000000E+00 -0.00000000000E+00 -0.91725745455E+02  0.91725745455E+02  0.00000000000E+00 0.  1.
          6    2    1    2  501    0 -0.26803283917E+02 -0.20709557046E+02  0.41556199267E+02  0.17773620260E+03  0.16945777714E+03 0.  0.
         24    2    3    3    0    0  0.37938494799E+02 -0.27170203907E+02  0.58716541918E+02  0.11028395853E+03  0.80854003286E+02 0.  0.
         -6    2    1    2    0  502  0.26803283917E+02  0.20709557046E+02  0.30351403590E+03  0.35078552348E+03  0.17257581439E+03 0.  0.
        -24    2    5    5    0    0  0.41833526273E+02 -0.24988507501E+02  0.86425576759E+02  0.12838113867E+03  0.81473106123E+02 0.  0.
          5    1    3    3  501    0 -0.64741778717E+02  0.64606468614E+01 -0.17160342651E+02  0.67452244063E+02  0.47000000000E+01 0. -1.
        -13    1    4    4    0    0  0.12852895755E+02  0.70283009903E+01 -0.17645742759E+02  0.22933952595E+02  0.00000000000E+00 0.  1.
         14    1    4    4    0    0  0.25085599044E+02 -0.34198504898E+02  0.76362284677E+02  0.87350005940E+02  0.00000000000E+00 0. -1.
         -5    1    5    5    0  502 -0.15030242356E+02  0.45698064547E+02  0.21708845915E+03  0.22240438481E+03  0.47000000000E+01 0.  1.
         13    1    6    6    0    0  0.29709195087E+02  0.13370315091E+02 -0.51599992476E+00  0.32583244993E+02  0.00000000000E+00 0. -1.
        -14    1    6    6    0    0  0.12124331186E+02 -0.38358822592E+02  0.86941576684E+02  0.95797893681E+02  0.00000000000E+00 0.  1.
</event>
<event>
12    1  0.9017558E-003  0.1759537E+03  0.7818608E-02  0.1172022E+00
         21   -1    0    0  503  502  0.00000000000E+00  0.00000000000E+00  0.52086139054E+03  0.52086139054E+03  0.00000000000E+00 0. -1.
         21   -1    0    0  501  503 -0.00000000000E+00 -0.00000000000E+00 -0.79297454710E+02  0.79297454710E+02  0.00000000000E+00 0. -1.
          6    2    1    2  501    0 -0.30716147553E+02  0.18296879466E+02  0.69831296158E+02  0.18930428693E+03  0.17228303924E+03 0.  0.
         24    2    3    3    0    0  0.46988496036E+02  0.29267826222E+02  0.34374303047E+02  0.10306240808E+03  0.79848248807E+02 0.  0.
         -6    2    1    2    0  502  0.30716147553E+02 -0.18296879466E+02  0.37173263967E+03  0.41085455832E+03  0.17128355196E+03 0.  0.
        -24    2    5    5    0    0 -0.68839127360E+00  0.41422918071E+02  0.10797457298E+03  0.13856223925E+03  0.76319418970E+02 0.  0.
          5    1    3    3  501    0 -0.77704643589E+02 -0.10970946756E+02  0.35456993111E+02  0.86241878855E+02  0.47000000000E+01 0. -1.
        -13    1    4    4    0    0  0.63920833936E+02  0.21894267775E+02  0.42150833225E+01  0.67697850039E+02  0.00000000000E+00 0.  1.
         14    1    4    4    0    0 -0.16932337900E+02  0.73735584472E+01  0.30159219725E+02  0.35364558040E+02  0.00000000000E+00 0. -1.
         -5    1    5    5    0  502  0.31404538827E+02 -0.59719797537E+02  0.26375806669E+03  0.27229231906E+03  0.47000000000E+01 0.  1.
         13    1    6    6    0    0 -0.33605434690E+01 -0.16585341022E+02  0.62658036997E+02  0.64902976739E+02  0.00000000000E+00 0. -1.
        -14    1    6    6    0    0  0.26721521954E+01  0.58008259093E+02  0.45316535985E+02  0.73659262513E+02  0.00000000000E+00 0.  1.
</event>
<event>
12    1  0.9017558E-003  0.1810021E+03  0.7818608E-02  0.1166942E+00
         21   -1    0    0  501  502  0.00000000000E+00  0.00000000000E+00  0.24008679448E+02  0.24008679448E+02  0.00000000000E+00 0.  1.
         21   -1    0    0  502  503 -0.00000000000E+00 -0.00000000000E+00 -0.13616536050E+04  0.13616536050E+04  0.00000000000E+00 0.  1.
          6    2    1    2  501    0 -0.18019633566E+02  0.51681538274E+02 -0.65679086486E+03  0.68115961004E+03  0.17207116433E+03 0.  0.
         24    2    3    3    0    0 -0.51897969329E+02  0.60591600037E+02 -0.62012268253E+03  0.63023047859E+03  0.79205893341E+02 0.  0.
         -6    2    1    2    0  503  0.18019633566E+02 -0.51681538274E+02 -0.68085406066E+03  0.70450267438E+03  0.17252848372E+03 0.  0.
        -24    2    5    5    0    0  0.30016134418E+01 -0.11992584711E+02 -0.64170207233E+03  0.64657407908E+03  0.78253807152E+02 0.  0.
          5    1    3    3  501    0  0.33878335763E+02 -0.89100617631E+01 -0.36668182328E+02  0.50929131447E+02  0.47000000000E+01 0. -1.
        -11    1    4    4    0    0 -0.71195906835E+02  0.41554179053E+02 -0.39709242823E+03  0.40555887797E+03  0.00000000000E+00 0.  1.
         12    1    4    4    0    0  0.19297937506E+02  0.19037420984E+02 -0.22303025430E+03  0.22467160062E+03  0.00000000000E+00 0. -1.
         -5    1    5    5    0  503  0.15018020124E+02 -0.39688953563E+02 -0.39151988339E+02  0.57928595307E+02  0.47000000000E+01 0.  1.
         13    1    6    6    0    0  0.29232131934E+02 -0.15856967829E+02 -0.13002419121E+03  0.13420972865E+03  0.00000000000E+00 0. -1.
        -14    1    6    6    0    0 -0.26230518493E+02  0.38643831176E+01 -0.51167788112E+03  0.51236435042E+03  0.00000000000E+00 0.  1.
</event>
<event>
12    1  0.9017558E-003  0.2241035E+03  0.7818608E-02  0.1132519E+00
         21   -1    0    0  503  502  0.00000000000E+00  0.00000000000E+00  0.14748875412E+03  0.14748875412E+03  0.00000000000E+00 0.  1.
         21   -1    0    0  501  503 -0.00000000000E+00 -0.00000000000E+00 -0.35802470685E+03  0.35802470685E+03  0.00000000000E+00 0. -1.
          6    2    1    2  501    0 -0.84607877379E+02 -0.11627314548E+03 -0.17758559233E+03  0.27900055896E+03  0.16008351577E+03 0.  0.
         24    2    3    3    0    0 -0.55691909428E+02 -0.20202340154E+02 -0.35433489684E+02  0.10494584594E+03  0.79046663844E+02 0.  0.
         -6    2    1    2    0  502  0.84607877379E+02  0.11627314548E+03 -0.32950360403E+02  0.22651290202E+03  0.17188493609E+03 0.  0.
        -24    2    5    5    0    0  0.60159133153E+02  0.12601246314E+03 -0.73945369962E+02  0.17757134287E+03  0.81027167683E+02 0.  0.
          5    1    3    3  501    0 -0.28915967951E+02 -0.96070805328E+02 -0.14215210264E+03  0.17405471302E+03  0.47000000000E+01 0. -1.
        -13    1    4    4    0    0 -0.76571718039E+00  0.25234355732E+01  0.22078632386E+02  0.22235558413E+02  0.00000000000E+00 0.  1.
         14    1    4    4    0    0 -0.54926192248E+02 -0.22725775727E+02 -0.57512122071E+02  0.82710287524E+02  0.00000000000E+00 0. -1.
         -5    1    5    5    0  502  0.24448744226E+02 -0.97393176597E+01  0.40995009558E+02  0.48941559144E+02  0.47000000000E+01 0.  1.
         11    1    6    6    0    0 -0.19853611868E+02  0.21146191574E+02 -0.79372539274E+01  0.30072035551E+02  0.00000000000E+00 0. -1.
        -12    1    6    6    0    0  0.80012745021E+02  0.10486627157E+03 -0.66008116034E+02  0.14749930732E+03  0.00000000000E+00 0.  1.
</event>
<event>
12    1  0.9017558E-003  0.2087009E+03  0.7818608E-02  0.1142690E+00
         21   -1    0    0  503  502  0.00000000000E+00  0.00000000000E+00  0.37150335647E+02  0.37150335647E+02  0.00000000000E+00 0.  1.
         21   -1    0    0  501  503 -0.00000000000E+00 -0.00000000000E+00 -0.16345398804E+04  0.16345398804E+04  0.00000000000E+00 0.  1.
          6    2    1    2  501    0  0.14879894216E+02  0.11687973258E+03 -0.12449813766E+04  0.12623528357E+04  0.17226076349E+03 0.  0.
         24    2    3    3    0    0 -0.22817761193E+01  0.14736883104E+03 -0.84367307126E+03  0.85949485332E+03  0.72279823221E+02 0.  0.
         -6    2    1    2    0  502 -0.14879894216E+02 -0.11687973258E+03 -0.35240816809E+03  0.40933738026E+03  0.17170699113E+03 0.  0.
        -24    2    5    5    0    0  0.11591045051E+02 -0.20155321699E+02 -0.25928930817E+03  0.27240844118E+03  0.80217355828E+02 0.  0.
          5    1    3    3  501    0  0.17161670336E+02 -0.30489098462E+02 -0.40130830536E+03  0.40285798242E+03  0.47000000000E+01 0. -1.
        -11    1    4    4    0    0  0.23013342022E+02  0.49826586875E+02 -0.44110753526E+03  0.44450889792E+03  0.00000000000E+00 0.  1.
         12    1    4    4    0    0 -0.25295118141E+02  0.97542244164E+02 -0.40256553601E+03  0.41498595540E+03  0.00000000000E+00 0. -1.
         -5    1    5    5    0  502 -0.26470939267E+02 -0.96724410877E+02 -0.93118859922E+02  0.13692893908E+03  0.47000000000E+01 0.  1.
         13    1    6    6    0    0 -0.18588585773E+02  0.23799172607E+02 -0.92710256906E+02  0.97504501811E+02  0.00000000000E+00 0. -1.
        -14    1    6    6    0    0  0.30179630824E+02 -0.43954494306E+02 -0.16657905126E+03  0.17490393937E+03  0.00000000000E+00 0.  1.
</event>
<event>
12    1  0.9017558E-003  0.2003666E+03  0.7818608E-02  0.1149543E+00
         21   -1    0    0  503  502  0.00000000000E+00  0.00000000000E+00  0.11210550785E+04  0.11210550785E+04  0.00000000000E+00 0.  1.
         21   -1    0    0  501  503 -0.00000000000E+00 -0.00000000000E+00 -0.44639133958E+02  0.44639133958E+02  0.00000000000E+00 0. -1.
          6    2    1    2  501    0  0.98078073968E+02  0.18182501254E+02  0.27704634103E+03  0.34159559243E+03  0.17315588857E+03 0.  0.
         24    2    3    3    0    0  0.66804984364E+01 -0.32045012180E+02  0.63677052683E+02  0.10405641013E+03  0.75507996833E+02 0.  0.
         -6    2    1    2    0  502 -0.98078073968E+02 -0.18182501254E+02  0.79936960347E+03  0.82409861998E+03  0.17377243902E+03 0.  0.
        -24    2    5    5    0    0  0.54927207522E+01 -0.17583868896E+01  0.20102710395E+03  0.21661816945E+03  0.80487718983E+02 0.  0.
          5    1    3    3  501    0  0.91397575532E+02  0.50227513434E+02  0.21336928835E+03  0.23753918230E+03  0.47000000000E+01 0. -1.
        -11    1    4    4    0    0  0.15921913853E+02  0.15552659278E+02  0.48313793191E+02  0.53194127156E+02  0.00000000000E+00 0.  1.
         12    1    4    4    0    0 -0.92414154166E+01 -0.47597671457E+02  0.15363259492E+02  0.50862282974E+02  0.00000000000E+00 0. -1.
         -5    1    5    5    0  502 -0.10357079472E+03 -0.16424114365E+02  0.59834249952E+03  0.60748045054E+03  0.47000000000E+01 0.  1.
         11    1    6    6    0    0 -0.37248758792E+02  0.34939779345E+01  0.10144534371E+03  0.10812416785E+03  0.00000000000E+00 0. -1.
        -12    1    6    6    0    0  0.42741479544E+02 -0.52523648242E+01  0.99581760238E+02  0.10849400159E+03  0.00000000000E+00 0.  1.
</event>
<event>
12    1  0.9017558E-003  0.2770334E+03  0.7818608E-02  0.1097371E+00
         21   -1    0    0  501  502  0.00000000000E+00  0.00000000000E+00  0.17486628377E+04  0.17486628377E+04  0.00000000000E+00 0. -1.
         21   -1    0    0  502  503 -0.00000000000E+00 -0.00000000000E+00 -0.46804082984E+02  0.46804082984E+02  0.00000000000E+00 0. -1.
          6    2    1    2  501    0  0.68881461567E+02  0.20549923842E+03  0.10766369613E+04  0.11116176553E+04  0.17196532352E+03 0.  0.
         24    2    3    3    0    0  0.57645175292E+02  0.16498446243E+03  0.10335618930E+04  0.10512417271E+04  0.79474166014E+02 0.  0.
         -6    2    1    2    0  503 -0.68881461567E+02 -0.20549923842E+03  0.62522179341E+03  0.68384926533E+03  0.17254835265E+03 0.  0.
        -24    2    5    5    0    0 -0.54444451067E+02 -0.16919240027E+03  0.61208398689E+03  0.64236064365E+03  0.79938244576E+02 0.  0.
          5    1    3    3  501    0  0.11236286275E+02  0.40514775984E+02  0.43075068320E+02  0.60375928259E+02  0.47000000000E+01 0. -1.
        -13    1    4    4    0    0  0.52835361764E+02  0.52339234606E+02  0.53134442531E+03  0.53652387574E+03  0.00000000000E+00 0.  1.
         14    1    4    4    0    0  0.48098135274E+01  0.11264522783E+03  0.50221746765E+03  0.51471785132E+03  0.00000000000E+00 0. -1.
         -5    1    5    5    0  503 -0.14437010500E+02 -0.36306838153E+02  0.13137806519E+02  0.41488621681E+02  0.47000000000E+01 0.  1.
         11    1    6    6    0    0 -0.29320549065E+00 -0.38707905022E+02  0.26202984243E+03  0.26487360421E+03  0.00000000000E+00 0. -1.
        -12    1    6    6    0    0 -0.54151245576E+02 -0.13048449524E+03  0.35005414446E+03  0.37748703944E+03  0.00000000000E+00 0.  1.
</event>
<event>
12    1  0.9017558E-003  0.1765816E+03  0.7818608E-02  0.1171404E+00
         21   -1    0    0  501  502  0.00000000000E+00  0.00000000000E+00  0.15797803162E+02  0.15797803162E+02  0.00000000000E+00 0. -1.
         21   -1    0    0  502  503 -0.00000000000E+00 -0.00000000000E+00 -0.30134332294E+04  0.30134332294E+04  0.00000000000E+00 0. -1.
          6    2    1    2  501    0 -0.12228891415E+02 -0.36350613155E+02 -0.60715813381E+03  0.63231483759E+03  0.17236630042E+03 0.  0.
         24    2    3    3    0    0  0.46185055460E+02 -0.62771755978E+02 -0.37411255101E+03  0.39056579490E+03  0.80672713027E+02 0.  0.
         -6    2    1    2    0  503  0.12228891415E+02  0.36350613155E+02 -0.23904772924E+04  0.23969161950E+04  0.17133197965E+03 0.  0.
        -24    2    5    5    0    0 -0.61010833815E+01  0.61605865266E+02 -0.22758232687E+04  0.22779983625E+04  0.77926138830E+02 0.  0.
          5    1    3    3  501    0 -0.58413946875E+02  0.26421142824E+02 -0.23304558280E+03  0.24174904269E+03  0.47000000000E+01 0. -1.
        -11    1    4    4    0    0  0.21279682947E+02  0.11789513616E+02 -0.36096323550E+02  0.43528865267E+02  0.00000000000E+00 0.  1.
         12    1    4    4    0    0  0.24905372513E+02 -0.74561269594E+02 -0.33801622746E+03  0.34703692963E+03  0.00000000000E+00 0. -1.
         -5    1    5    5    0  503  0.18329974797E+02 -0.25255252111E+02 -0.11465402374E+03  0.11891783253E+03  0.47000000000E+01 0.  1.
         11    1    6    6    0    0 -0.23326605010E+02  0.18469533784E+02 -0.26948726286E+03  0.27112476653E+03  0.00000000000E+00 0. -1.
        -12    1    6    6    0    0  0.17225521628E+02  0.43136331482E+02 -0.20063360058E+04  0.20068735959E+04  0.00000000000E+00 0.  1.
</event>
<event>
12    1  0.9017558E-003  0.1889656E+03  0.7818608E-02  0.1159528E+00
         21   -1    0    0  503  502  0.00000000000E+00  0.00000000000E+00  0.29436871129E+03  0.29436871129E+03  0.00000000000E+00 0. -1.
         21   -1    0    0  501  503 -0.00000000000E+00 -0.00000000000E+00 -0.15964683331E+03  0.15964683331E+03  0.00000000000E+00 0. -1.
          6    2    1    2  501    0 -0.32019570647E+02  0.70827886210E+02 -0.44346457099E+02  0.19409947930E+03  0.17223866360E+03 0.  0.
         24    2    3    3    0    0 -0.27554933236E+02  0.90496186261E+02  0.20273763920E+02  0.12624199645E+03  0.81099827935E+02 0.  0.
         -6    2    1    2    0  502  0.32019570647E+02 -0.70827886210E+02  0.17906833509E+03  0.25991606530E+03  0.17160725509E+03 0.  0.
        -24    2    5    5    0    0  0.69020492517E+02 -0.72709978150E+02  0.18132697370E+03  0.22250213824E+03  0.81099696802E+02 0.  0.
          5    1    3    3  501    0 -0.44646374110E+01 -0.19668300051E+02 -0.64620221019E+02  0.67857482849E+02  0.47000000000E+01 0. -1.
        -13    1    4    4    0    0 -0.48761542789E+02  0.26344959483E+02 -0.91836913596E+00  0.55430933125E+02  0.00000000000E+00 0.  1.
         14    1    4    4    0    0  0.21206609553E+02  0.64151226779E+02  0.21192133056E+02  0.70811063326E+02  0.00000000000E+00 0. -1.
         -5    1    5    5    0  502 -0.37000921870E+02  0.18820919400E+01 -0.22586386148E+01  0.37413927055E+02  0.47000000000E+01 0.  1.
         11    1    6    6    0    0  0.52284864899E+02  0.19821372310E+01  0.77542104373E+02  0.93543647118E+02  0.00000000000E+00 0. -1.
        -12    1    6    6    0    0  0.16735627618E+02 -0.74692115381E+02  0.10378486933E+03  0.12895849113E+03  0.00000000000E+00 0.  1.
</event>
<event>
12    1  0.9017558E-003  0.3817886E+03  0.7818608E-02  0.1050301E+00
         21   -1    0    0  503  502  0.00000000000E+00  0.00000000000E+00  0.48214333899E+03  0.48214333899E+03  0.00000000000E+00 0. -1.
         21   -1    0    0  501  503 -0.00000000000E+00 -0.00000000000E+00 -0.30793112595E+03  0.30793112595E+03  0.00000000000E+00 0.  1.
          6    2    1    2  501    0  0.25245473233E+03  0.22893119692E+03  0.32757848989E+02  0.38319131250E+03  0.17210351683E+03 0.  0.
         24    2    3    3    0    0  0.23684667566E+03  0.22660433294E+03  0.68089414061E+02  0.34421137895E+03  0.79996460004E+02 0.  0.
         -6    2    1    2    0  502 -0.25245473233E+03 -0.22893119692E+03  0.14145436404E+03  0.40688315244E+03  0.17146917459E+03 0.  0.
        -24    2    5    5    0    0 -0.12779544467E+03 -0.11157337322E+03  0.14218787422E+03  0.23560727901E+03  0.80703810671E+02 0.  0.
          5    1    3    3  501    0  0.15608056674E+02  0.23268639786E+01 -0.35331565072E+02  0.38979933550E+02  0.47000000000E+01 0. -1.
        -13    1    4    4    0    0  0.25668788603E+02  0.94509540084E+01 -0.13509469196E+02  0.30507589186E+02  0.00000000000E+00 0.  1.
         14    1    4    4    0    0  0.21117788705E+03  0.21715337894E+03  0.81598883257E+02  0.31370378976E+03  0.00000000000E+00 0. -1.
         -5    1    5    5    0  502 -0.12465928766E+03 -0.11735782370E+03 -0.73351017204E+00  0.17127587343E+03  0.47000000000E+01 0.  1.
         11    1    6    6    0    0 -0.12593663043E+03 -0.75685423569E+02  0.13376065823E+03  0.19869633091E+03  0.00000000000E+00 0. -1.
        -12    1    6    6    0    0 -0.18588142457E+01 -0.35887949654E+02  0.84272159824E+01  0.36910948104E+02  0.00000000000E+00 0.  1.
</event>
<event>
12    1  0.9017558E-003  0.1737304E+03  0.7818608E-02  0.1174346E+00
         21   -1    0    0  501  502  0.00000000000E+00  0.00000000000E+00  0.21397932110E+03  0.21397932110E+03  0.00000000000E+00 0. -1.
         21   -1    0    0  502  503 -0.00000000000E+00 -0.00000000000E+00 -0.14061096725E+03  0.14061096725E+03  0.00000000000E+00 0. -1.
          6    2    1    2  501    0 -0.65265432277E+01 -0.26517436382E+01  0.24755529537E+02  0.17418667858E+03  0.17227459255E+03 0.  0.
         24    2    3    3    0    0 -0.46385715527E+02 -0.56755812850E+00  0.69057833109E+02  0.11437128300E+03  0.78484707650E+02 0.  0.
         -6    2    1    2    0  503  0.65265432277E+01  0.26517436382E+01  0.48612824312E+02  0.18040360977E+03  0.17358752322E+03 0.  0.
        -24    2    5    5    0    0  0.37681948515E+02 -0.33034469168E+02  0.79762025667E+02  0.12351312016E+03  0.79889327918E+02 0.  0.
          5    1    3    3  501    0  0.39859172300E+02 -0.20841855097E+01 -0.44302303572E+02  0.59815395572E+02  0.47000000000E+01 0. -1.
        -11    1    4    4    0    0 -0.38878398434E+02  0.13993955828E+02  0.83092167022E+02  0.92799078039E+02  0.00000000000E+00 0.  1.
         12    1    4    4    0    0 -0.75073170936E+01 -0.14561513957E+02 -0.14034333913E+02  0.21572204965E+02  0.00000000000E+00 0. -1.
         -5    1    5    5    0  503 -0.31155405287E+02  0.35686212807E+02 -0.31149201356E+02  0.56890489611E+02  0.47000000000E+01 0.  1.
         13    1    6    6    0    0 -0.24320286812E+02 -0.37659479000E+01  0.29957095414E+02  0.38769656690E+02  0.00000000000E+00 0. -1.
        -14    1    6    6    0    0  0.62002235327E+02 -0.29268521268E+02  0.49804930253E+02  0.84743463467E+02  0.00000000000E+00 0.  1.
</event>
<event>
12    1  0.9017558E-003  0.1866779E+03  0.7818608E-02  0.1161937E+00
         21   -1    0    0  503  502  0.00000000000E+00  0.00000000000E+00  0.10152820101E+03  0.10152820101E+03  0.00000000000E+00 0.  1.
         21   -1    0    0  501  503 -0.00000000000E+00 -0.00000000000E+00 -0.35092701998E+03  0.35092701998E+03  0.00000000000E+00 0.  1.
          6    2    1    2  501    0 -0.14157434595E+02  0.70776751203E+02 -0.16574502490E+03  0.24963984718E+03  0.17215939869E+03 0.  0.
         24    2    3    3    0    0  0.20423059743E+02  0.27203885035E+02 -0.17288093191E+03  0.19336004243E+03  0.79643811166E+02 0.  0.
         -6    2    1    2    0  502  0.14157434595E+02 -0.70776751203E+02 -0.83653794068E+02  0.20281537381E+03  0.17007744450E+03 0.  0.
        -24    2    5    5    0    0 -0.42182381939E+02  0.20228578445E+01 -0.57145832970E+02  0.10690541601E+03  0.79872876784E+02 0.  0.
          5    1    3    3  501    0 -0.34580494337E+02  0.43572866169E+02  0.71359070100E+01  0.56279804758E+02  0.47000000000E+01 0. -1.
        -11    1    4    4    0    0 -0.29917466345E+02  0.10185482514E+02 -0.84716236477E+02  0.90419243358E+02  0.00000000000E+00 0.  1.
         12    1    4    4    0    0  0.50340526088E+02  0.17018402521E+02 -0.88164695437E+02  0.10294079907E+03  0.00000000000E+00 0. -1.
         -5    1    5    5    0  502  0.56339816534E+02 -0.72799609048E+02 -0.26507961098E+02  0.95909957805E+02  0.47000000000E+01 0.  1.
         11    1    6    6    0    0 -0.77036601270E+01 -0.24414812688E+02 -0.58053470221E+02  0.63447890924E+02  0.00000000000E+00 0. -1.
        -12    1    6    6    0    0 -0.34478721812E+02  0.26437670532E+02  0.90763725141E+00  0.43457525083E+02  0.00000000000E+00 0.  1.
</event>
<event>
12    1  0.9017558E-003  0.4396592E+03  0.7818608E-02  0.1031123E+00
         21   -1    0    0  501  502  0.00000000000E+00  0.00000000000E+00  0.20844981972E+03  0.20844981972E+03  0.00000000000E+00 0.  1.
         21   -1    0    0  502  503 -0.00000000000E+00 -0.00000000000E+00 -0.93145238906E+03  0.93145238906E+03  0.00000000000E+00 0.  1.
          6    2    1    2  501    0 -0.16071194063E+03 -0.37104084260E+03 -0.29947904842E+03  0.53196605498E+03  0.17262835360E+03 0.  0.
         24    2    3    3    0    0 -0.18666727448E+03 -0.28742550983E+03 -0.24107878495E+03  0.42661956000E+03  0.80169653634E+02 0.  0.
         -6    2    1    2    0  503  0.16071194063E+03  0.37104084260E+03 -0.42352352092E+03  0.60793615381E+03  0.16344589193E+03 0.  0.
        -24    2    5    5    0    0  0.81849366391E+02  0.32107996593E+03 -0.30953827302E+03  0.46052475143E+03  0.80482550316E+02 0.  0.
          5    1    3    3  501    0  0.25955333847E+02 -0.83615332774E+02 -0.58400263472E+02  0.10534649498E+03  0.47000000000E+01 0. -1.
        -13    1    4    4    0    0 -0.12019330729E+03 -0.24266654775E+03 -0.17191323803E+03  0.32076104178E+03  0.00000000000E+00 0.  1.
         14    1    4    4    0    0 -0.66473967187E+02 -0.44758962082E+02 -0.69165546916E+02  0.10585851822E+03  0.00000000000E+00 0. -1.
         -5    1    5    5    0  503  0.78862574239E+02  0.49960876670E+02 -0.11398524790E+03  0.14741140238E+03  0.47000000000E+01 0.  1.
         11    1    6    6    0    0  0.81386287098E+02  0.31862411350E+03 -0.31445950710E+03  0.45500531319E+03  0.00000000000E+00 0. -1.
        -12    1    6    6    0    0  0.46307929326E+00  0.24558524339E+01  0.49212340713E+01  0.55194382317E+01  0.00000000000E+00 0.  1.
</event>
<event>
12    1  0.9017558E-003  0.2064767E+03  0.7818608E-02  0.1144741E+00
         21   -1    0    0  503  502  0.00000000000E+00  0.00000000000E+00  0.63087123541E+03  0.63087123541E+03  0.00000000000E+00 0. -1.
         21   -1    0    0  501  503 -0.00000000000E+00 -0.00000000000E+00 -0.82465638964E+02  0.82465638964E+02  0.00000000000E+00 0. -1.
          6    2    1    2  501    0 -0.10526911913E+03  0.32187384279E+02  0.11884698287E+03  0.23673092263E+03  0.17262476429E+03 0.  0.
         24    2    3    3    0    0 -0.37748638677E+00 -0.21971132230E+02  0.31291211060E+02  0.89681601974E+02  0.81121986511E+02 0.  0.
         -6    2    1    2    0  502  0.10526911913E+03 -0.32187384279E+02  0.42955861358E+03  0.47660595174E+03  0.17468547618E+03 0.  0.
        -24    2    5    5    0    0  0.91264298800E+02 -0.74796048137E+02  0.21854454877E+03  0.26082676189E+03  0.79657133184E+02 0.  0.
          5    1    3    3  501    0 -0.10489163274E+03  0.54158516509E+02  0.87555771811E+02  0.14704932066E+03  0.47000000000E+01 0. -1.
        -11    1    4    4    0    0 -0.85088222047E+01  0.25166704483E+02 -0.80375671646E+01  0.27755459927E+02  0.00000000000E+00 0.  1.
         12    1    4    4    0    0  0.81313358180E+01 -0.47137836713E+02  0.39328778225E+02  0.61926142047E+02  0.00000000000E+00 0. -1.
         -5    1    5    5    0  502  0.14004820326E+02  0.42608663858E+02  0.21101406480E+03  0.21577918985E+03  0.47000000000E+01 0.  1.
         11    1    6    6    0    0  0.55104072402E+01 -0.17421575760E+02  0.10830534619E+03  0.10983589533E+03  0.00000000000E+00 0. -1.
        -12    1    6    6    0    0  0.85753891560E+02 -0.57374472376E+02  0.11023920259E+03  0.15099086656E+03  0.00000000000E+00 0.  1.
</event>
<event>
12    1  0.9017558E-003  0.2952193E+03  0.7818608E-02  0.1087714E+00
         21   -1    0    0  503  502  0.00000000000E+00  0.00000000000E+00  0.12290076757E+03  0.12290076757E+03  0.00000000000E+00 0.  1.
         21   -1    0    0  501  503 -0.00000000000E+00 -0.00000000000E+00 -0.88744588341E+03  0.88744588341E+03  0.00000000000E+00 0.  1.
          6    2    1    2  501    0  0.15990295415E+03 -0.17781161161E+03 -0.60917270477E+03  0.67673753911E+03  0.17232640145E+03 0.  0.
         24    2    3    3    0    0  0.16961819469E+03 -0.10829091340E+03 -0.51919840584E+03  0.56252292602E+03  0.79798519828E+02 0.  0.
         -6    2    1    2    0  502 -0.15990295415E+03  0.17781161161E+03 -0.15537241107E+03  0.33360911187E+03  0.17311420921E+03 0.  0.
        -24    2    5    5    0    0 -0.17126872937E+03  0.13176142814E+03 -0.78874022594E+02  0.24347646693E+03  0.79784878914E+02 0.  0.
          5    1    3    3  501    0 -0.97152405378E+01 -0.69520698204E+02 -0.89974298924E+02  0.11421461309E+03  0.47000000000E+01 0. -1.
        -11    1    4    4    0    0  0.82646705380E+02 -0.98921754427E+02 -0.30062986809E+03  0.32709984561E+03  0.00000000000E+00 0.  1.
         12    1    4    4    0    0  0.86971489309E+02 -0.93691589763E+01 -0.21856853775E+03  0.23542308041E+03  0.00000000000E+00 0. -1.
         -5    1    5    5    0  502  0.11365775218E+02  0.46050183464E+02 -0.76498388480E+02  0.90132644937E+02  0.47000000000E+01 0.  1.
         13    1    6    6    0    0 -0.46745145920E+02  0.85017996256E+02 -0.26972317474E+02  0.10070091491E+03  0.00000000000E+00 0. -1.
        -14    1    6    6    0    0 -0.12452358345E+03  0.46743431886E+02 -0.51901705120E+02  0.14277555202E+03  0.00000000000E+00 0.  1.
</event>
<event>
12    1  0.9017558E-003  0.2311024E+03  0.7818608E-02  0.1125896E+00
         21   -1    0    0  503  502  0.00000000000E+00  0.00000000000E+00  0.75096882914E+03  0.75096882914E+03  0.00000000000E+00 0. -1.
         21   -1    0    0  501  503 -0.00000000000E+00 -0.00000000000E+00 -0.76273580236E+02  0.76273580236E+02  0.00000000000E+00 0.  1.
          6    2    1    2  501    0 -0.11499883848E+03  0.10306527984E+03  0.22915717662E+03  0.32533354077E+03  0.17170240648E+03 0.  0.
         24    2    3    3    0    0 -0.80849178057E+02  0.92371102076E+02  0.70113533016E+02  0.16224603261E+03  0.79616942261E+02 0.  0.
         -6    2    1    2    0  502  0.11499883848E+03 -0.10306527984E+03  0.44553807229E+03  0.50190886861E+03  0.17193357373E+03 0.  0.
        -24    2    5    5    0    0  0.12215827377E+03 -0.30424399059E+02  0.35655863819E+03  0.38672473444E+03  0.81078171215E+02 0.  0.
          5    1    3    3  501    0 -0.34149660426E+02  0.10694177764E+02  0.15904364360E+03  0.16308750815E+03  0.47000000000E+01 0. -1.
        -11    1    4    4    0    0 -0.27949658614E+02  0.43755718705E+02 -0.11845568764E+02  0.53254707166E+02  0.00000000000E+00 0.  1.
         12    1    4    4    0    0 -0.52899519443E+02  0.48615383371E+02  0.81959101780E+02  0.10899132545E+03  0.00000000000E+00 0. -1.
         -5    1    5    5    0  502 -0.71594352844E+01 -0.72640880781E+02  0.88979434094E+02  0.11518413418E+03  0.47000000000E+01 0.  1.
         11    1    6    6    0    0  0.84044435714E+02 -0.52746290845E+02  0.18926062974E+03  0.21369423095E+03  0.00000000000E+00 0. -1.
        -12    1    6    6    0    0  0.38113838053E+02  0.22321891786E+02  0.16729800846E+03  0.17303050349E+03  0.00000000000E+00 0.  1.
</event>
<event>
12    1  0.9017558E-003  0.2307259E+03  0.7818608E-02  0.1126489E+00
         21   -1    0    0  503  502  0.00000000000E+00  0.00000000000E+00  0.36511714981E+02  0.36511714981E+02  0.00000000000E+00 0.  1.
         21   -1    0    0  501  503 -0.00000000000E+00 -0.00000000000E+00 -0.15699091542E+04  0.15699091542E+04  0.00000000000E+00 0.  1.
          6    2    1    2  501    0 -0.14585116620E+03 -0.46551762444E+02 -0.99625490227E+03  0.10226232203E+04  0.17261167724E+03 0.  0.
         24    2    3    3    0    0 -0.11879069218E+02 -0.33019705664E+02 -0.54671002592E+03  0.55332126507E+03  0.77724878143E+02 0.  0.
         -6    2    1    2    0  502  0.14585116620E+03  0.46551762444E+02 -0.53714253690E+03  0.58379764884E+03  0.16987630962E+03 0.  0.
        -24    2    5    5    0    0  0.33578424450E+02  0.30669494944E+02 -0.37547964183E+03  0.38627702560E+03  0.78465601180E+02 0.  0.
          5    1    3    3  501    0 -0.13397209699E+03 -0.13532056780E+02 -0.44954487635E+03  0.46930195523E+03  0.47000000000E+01 0. -1.
        -11    1    4    4    0    0 -0.40325676406E+02  0.11461927717E+01 -0.28949384402E+03  0.29229122406E+03  0.00000000000E+00 0.  1.
         12    1    4    4    0    0  0.28446607188E+02 -0.34165898436E+02 -0.25721618190E+03  0.26103004101E+03  0.00000000000E+00 0. -1.
         -5    1    5    5    0  502  0.11227274175E+03  0.15882267500E+02 -0.16166289508E+03  0.19752062324E+03  0.47000000000E+01 0.  1.
         13    1    6    6    0    0  0.10520021591E+02  0.52514433638E+02 -0.16662605538E+03  0.17502193841E+03  0.00000000000E+00 0. -1.
        -14    1    6    6    0    0  0.23058402859E+02 -0.21844938693E+02 -0.20885358645E+03  0.21125508718E+03  0.00000000000E+00 0.  1.
</event>
<event>
12    1  0.9017558E-003  0.2673681E+03  0.7818608E-02  0.1102830E+00
         21   -1    0    0  501  502  0.00000000000E+00  0.00000000000E+00  0.71059897866E+03  0.71059897866E+03  0.00000000000E+00 0.  1.
         21   -1    0    0  502  503 -0.00000000000E+00 -0.00000000000E+00 -0.13209344976E+03  0.13209344976E+03  0.00000000000E+00 0.  1.
          6    2    1    2  501    0  0.60732720101E+02 -0.19559748749E+03  0.49538327594E+03  0.56293008290E+03  0.17186869335E+03 0.  0.
         24    2    3    3    0    0  0.95186100934E+02 -0.10233264684E+03  0.37645189284E+03  0.40784259198E+03  0.71324524512E+02 0.  0.
         -6    2    1    2    0  503 -0.60732720101E+02  0.19559748749E+03  0.83122252952E+02  0.27976234552E+03  0.17149583269E+03 0.  0.
        -24    2    5    5    0    0 -0.31548778573E+02  0.32747113190E+02  0.66537623920E+02  0.11342207146E+03  0.79809849301E+02 0.  0.
          5    1    3    3  501    0 -0.34453380833E+02 -0.93264840655E+02  0.11893138310E+03  0.15508749092E+03  0.47000000000E+01 0. -1.
        -11    1    4    4    0    0  0.68748090944E+02 -0.10715583517E+03  0.33566277241E+03  0.35899605820E+03  0.00000000000E+00 0.  1.
         12    1    4    4    0    0  0.26438009990E+02  0.48231883314E+01  0.40789120427E+02  0.48846533788E+02  0.00000000000E+00 0. -1.
         -5    1    5    5    0  503 -0.29183941528E+02  0.16285037430E+03  0.16584629033E+02  0.16634027406E+03  0.47000000000E+01 0.  1.
         13    1    6    6    0    0  0.19957345822E+02  0.22518261882E+02  0.50021547211E+02  0.58373992118E+02  0.00000000000E+00 0. -1.
        -14    1    6    6    0    0 -0.51506124395E+02  0.10228851308E+02  0.16516076709E+02  0.55048079341E+02  0.00000000000E+00 0.  1.
</event>
<event>
12    1  0.9017558E-003  0.1853525E+03  0.7818608E-02  0.1162935E+00
         21   -1    0    0  503  502  0.00000000000E+00  0.00000000000E+00  0.38098748916E+03  0.38098748916E+03  0.00000000000E+00 0. -1.
         21   -1    0    0  501  503 -0.00000000000E+00 -0.00000000000E+00 -0.12240404089E+03  0.12240404089E+03  0.00000000000E+00 0. -1.
          6    2    1    2  501    0  0.23269168092E+02 -0.65476872213E+02 -0.51269262618E+00  0.18535321424E+03  0.17183386220E+03 0.  0.
         24    2    3    3    0    0  0.80930218472E+01  0.31277417192E+02 -0.17635372449E+00  0.87302660665E+02  0.81104559857E+02 0.  0.
         -6    2    1    2    0  502 -0.23269168092E+02  0.65476872213E+02  0.25909614089E+03  0.31803831581E+03  0.17084754935E+03 0.  0.
        -24    2    5    5    0    0 -0.50602860273E+02  0.96797421200E+02  0.23132078339E+03  0.26782210327E+03  0.79303114399E+02 0.  0.
          5    1    3    3  501    0  0.15176146245E+02 -0.96754289405E+02 -0.33633890169E+00  0.98050553578E+02  0.47000000000E+01 0. -1.
        -11    1    4    4    0    0  0.41025646864E+02 -0.85719958651E+00 -0.34111991191E+01  0.41176143229E+02  0.00000000000E+00 0.  1.
         12    1    4    4    0    0 -0.32932625017E+02  0.32134616778E+02  0.32348453946E+01  0.46126517436E+02  0.00000000000E+00 0. -1.
         -5    1    5    5    0  502  0.27333692181E+02 -0.31320548988E+02  0.27775357502E+02  0.50216212537E+02  0.47000000000E+01 0.  1.
         13    1    6    6    0    0 -0.67082417426E+02  0.76720143035E+02  0.14189456254E+03  0.17470002276E+03  0.00000000000E+00 0. -1.
        -14    1    6    6    0    0  0.16479557153E+02  0.20077278165E+02  0.89426220851E+02  0.93122080508E+02  0.00000000000E+00 0.  1.
</event>
<event>
12    1  0.9017558E-003  0.1795715E+03  0.7818608E-02  0.1168226E+00
         21   -1    0    0  501  502  0.00000000000E+00  0.00000000000E+00  0.49280114240E+03  0.49280114240E+03  0.00000000000E+00 0. -1.
         21   -1    0    0  502  503 -0.00000000000E+00 -0.00000000000E+00 -0.76802049579E+02  0.76802049579E+02  0.00000000000E+00 0. -1.
          6    2    1    2  501    0  0.43229282060E+02  0.29816445748E+02  0.31763761838E+03  0.36488295284E+03  0.17172105694E+03 0.  0.
         24    2    3    3    0    0  0.59525339306E+02 -0.22956709213E+02  0.28095702756E+03  0.29841398933E+03  0.77741759549E+02 0.  0.
         -6    2    1    2    0  503 -0.43229282060E+02 -0.29816445748E+02  0.98361474436E+02  0.20472023914E+03  0.17169043478E+03 0.  0.
        -24    2    5    5    0    0 -0.36453460037E+02  0.23514000561E+02  0.10657106427E+03  0.15013511632E+03  0.96443757928E+02 0.  0.
          5    1    3    3  501    0 -0.16296057246E+02  0.52773154961E+02  0.36680590826E+02  0.66468963506E+02  0.47000000000E+01 0. -1.
        -13    1    4    4    0    0 -0.14722108050E+02  0.22714691922E+00  0.10505427725E+03  0.10608106914E+03  0.00000000000E+00 0.  1.
         14    1    4    4    0    0  0.74247447356E+02 -0.23183856132E+02  0.17590275030E+03  0.19233292019E+03  0.00000000000E+00 0. -1.
         -5    1    5    5    0  503 -0.67758220224E+01 -0.53330446309E+02 -0.82095898326E+01  0.54585122816E+02  0.47000000000E+01 0.  1.
         13    1    6    6    0    0 -0.14720470583E+02  0.57099301385E+02  0.36209129319E+02  0.69196268100E+02  0.00000000000E+00 0. -1.
        -14    1    6    6    0    0 -0.21732989454E+02 -0.33585300824E+02  0.70361934950E+02  0.80938848225E+02  0.00000000000E+00 0.  1.
</event>
<event>
12    1  0.9017558E-003  0.2402750E+03  0.7818608E-02  0.1119720E+00
         21   -1    0    0  503  502  0.00000000000E+00  0.00000000000E+00  0.21072339364E+03  0.21072339364E+03  0.00000000000E+00 0. -1.
         21   -1    0    0  501  503 -0.00000000000E+00 -0.00000000000E+00 -0.27327566254E+03  0.27327566254E+03  0.00000000000E+00 0. -1.
          6    2    1    2  501    0  0.14139554985E+03  0.88359571986E+02 -0.27715032373E+02  0.24186809663E+03  0.17300849016E+03 0.  0.
         24    2    3    3    0    0  0.10433585571E+03  0.43729043949E+02  0.48185891537E+02  0.14622111438E+03  0.79123536805E+02 0.  0.
         -6    2    1    2    0  502 -0.14139554985E+03 -0.88359571986E+02 -0.34837236527E+02  0.24213095956E+03  0.17208617914E+03 0.  0.
        -24    2    5    5    0    0 -0.90616200127E+02 -0.12755701819E+03 -0.20199949515E+02  0.17616640606E+03  0.78386708377E+02 0.  0.
          5    1    3    3  501    0  0.37059694139E+02  0.44630528037E+02 -0.75900923910E+02  0.95646982247E+02  0.47000000000E+01 0. -1.
        -13    1    4    4    0    0  0.84612821433E+01  0.24693166247E+02  0.40487365935E+02  0.48172321463E+02  0.00000000000E+00 0.  1.
         14    1    4    4    0    0  0.95874573565E+02  0.19035877702E+02  0.76985256019E+01  0.98048792918E+02  0.00000000000E+00 0. -1.
         -5    1    5    5    0  502 -0.50779349720E+02  0.39197446204E+02 -0.14637287012E+02  0.65964553497E+02  0.47000000000E+01 0.  1.
         13    1    6    6    0    0 -0.10608944928E+02 -0.40897861206E+02  0.25871105504E+02  0.49542899226E+02  0.00000000000E+00 0. -1.
        -14    1    6    6    0    0 -0.80007255199E+02 -0.86659156984E+02 -0.46071055018E+02  0.12662350684E+03  0.00000000000E+00 0.  1.
</event>
<event>
12    1  0.9017558E-003  0.1808022E+03  0.7818608E-02  0.1167273E+00
         21   -1    0    0  501  502  0.00000000000E+00  0.00000000000E+00  0.90866418928E+02  0.90866418928E+02  0.00000000000E+00 0.  1.
         21   -1    0    0  502  503 -0.00000000000E+00 -0.00000000000E+00 -0.47566534063E+03  0.47566534063E+03  0.00000000000E+00 0.  1.
          6    2    1    2  501    0 -0.26397400312E+02  0.43335653001E+02 -0.51764644033E+02  0.18806647474E+03  0.17353564182E+03 0.  0.
         24    2    3    3    0    0  0.90950420190E+01 -0.33397647007E+02  0.58044382181E+01  0.85675058963E+02  0.78156264050E+02 0.  0.
         -6    2    1    2    0  503  0.26397400312E+02 -0.43335653001E+02 -0.33303427767E+03  0.37846528482E+03  0.17247997029E+03 0.  0.
        -24    2    5    5    0    0 -0.29820393081E+02  0.15960981129E+01 -0.26752633154E+03  0.28103488116E+03  0.80736998880E+02 0.  0.
          5    1    3    3  501    0 -0.35492442331E+02  0.76733300008E+02 -0.57569082251E+02  0.10239141577E+03  0.47000000000E+01 0. -1.
        -11    1    4    4    0    0 -0.87490966954E+01 -0.36307587174E+01 -0.32578840118E+02  0.33928010924E+02  0.00000000000E+00 0.  1.
         12    1    4    4    0    0  0.17844138714E+02 -0.29766888290E+02  0.38383278336E+02  0.51747048039E+02  0.00000000000E+00 0. -1.
         -5    1    5    5    0  503  0.56217793392E+02 -0.44931751114E+02 -0.65507946127E+02  0.97430403663E+02  0.47000000000E+01 0.  1.
         11    1    6    6    0    0 -0.56482807662E+02  0.68061556600E+01 -0.20729976019E+03  0.21496469918E+03  0.00000000000E+00 0. -1.
        -12    1    6    6    0    0  0.26662414581E+02 -0.52100575471E+01 -0.60226571350E+02  0.66070181984E+02  0.00000000000E+00 0.  1.
</event>
<event>
12    1  0.9017558E-003  0.2852294E+03  0.7818608E-02  0.1092967E+00
         21   -1    0    0  503  502  0.00000000000E+00  0.00000000000E+00  0.22156285518E+03  0.22156285518E+03  0.00000000000E+00 0.  1.
         21   -1    0    0  501  503 -0.00000000000E+00 -0.00000000000E+00 -0.37068730393E+03  0.37068730393E+03  0.00000000000E+00 0. -1.
          6    2    1    2  501    0 -0.17876656156E+03  0.13937021533E+03 -0.41972085417E+02  0.28755783274E+03  0.17189040334E+03 0.  0.
         24    2    3    3    0    0 -0.10870095888E+03  0.13018562849E+03  0.25555772481E+02  0.18970259830E+03  0.81054191552E+02 0.  0.
         -6    2    1    2    0  502  0.17876656156E+03 -0.13937021533E+03 -0.10715236333E+03  0.30469232638E+03  0.17313071458E+03 0.  0.
        -24    2    5    5    0    0  0.94430860171E+02 -0.14031971043E+02 -0.10412929202E+02  0.12524095657E+03  0.80391445713E+02 0.  0.
          5    1    3    3  501    0 -0.70065602679E+02  0.91845868423E+01 -0.67527857898E+02  0.97855234436E+02  0.47000000000E+01 0. -1.
        -13    1    4    4    0    0  0.49096099145E+01  0.15464770642E+02  0.23097967857E+02  0.28227283250E+02  0.00000000000E+00 0.  1.
         14    1    4    4    0    0 -0.11361056880E+03  0.11472085785E+03  0.24578046244E+01  0.16147531505E+03  0.00000000000E+00 0. -1.
         -5    1    5    5    0  502  0.84335701391E+02 -0.12533824429E+03 -0.96739434132E+02  0.17945136981E+03  0.47000000000E+01 0.  1.
         13    1    6    6    0    0 -0.62786029170E+01  0.17251375984E+02  0.40432426799E+01  0.18798367996E+02  0.00000000000E+00 0. -1.
        -14    1    6    6    0    0  0.10070946309E+03 -0.31283347027E+02 -0.14456171882E+02  0.10644258857E+03  0.00000000000E+00 0.  1.
</event>
<event>
12    1  0.9017558E-003  0.2187742E+03  0.7818608E-02  0.1134982E+00
         21   -1    0    0  503  502  0.00000000000E+00  0.00000000000E+00  0.22866365567E+03  0.22866365567E+03  0.00000000000E+00 0.  1.
         21   -1    0    0  501  503 -0.00000000000E+00 -0.00000000000E+00 -0.21665949120E+03  0.21665949120E+03  0.00000000000E+00 0.  1.
          6    2    1    2  501    0  0.13075527261E+03  0.36724302290E+02 -0.37513215613E+02  0.22101504391E+03  0.17027857351E+03 0.  0.
         24    2    3    3    0    0  0.59724702056E+02 -0.43463319485E+02 -0.15436014981E+01  0.10791641537E+03  0.78660471797E+02 0.  0.
         -6    2    1    2    0  502 -0.13075527261E+03 -0.36724302290E+02  0.49517380091E+02  0.22430810296E+03  0.17151250226E+03 0.  0.
        -24    2    5    5    0    0 -0.30301137713E+02 -0.18878785985E+02  0.79274071306E+02  0.11792649581E+03  0.79672533062E+02 0.  0.
          5    1    3    3  501    0  0.71030570550E+02  0.80187621775E+02 -0.35969614115E+02  0.11309862854E+03  0.47000000000E+01 0. -1.
        -13    1    4    4    0    0  0.40366058764E+02 -0.21520052586E+02 -0.39189252498E+02  0.60235611350E+02  0.00000000000E+00 0.  1.
         14    1    4    4    0    0  0.19358643292E+02 -0.21943266899E+02  0.37645650999E+02  0.47680804015E+02  0.00000000000E+00 0. -1.
         -5    1    5    5    0  502 -0.10045413489E+03 -0.17845516305E+02 -0.29756691215E+02  0.10638160716E+03  0.47000000000E+01 0.  1.
         13    1    6    6    0    0 -0.11287798030E+01 -0.22551177127E+02 -0.94351780940E+01  0.24471459281E+02  0.00000000000E+00 0. -1.
        -14    1    6    6    0    0 -0.29172357910E+02  0.36723911420E+01  0.88709249400E+02  0.93455036524E+02  0.00000000000E+00 0.  1.
</event>
<event>
12    1  0.9017558E-003  0.2161668E+03  0.7818608E-02  0.1137787E+00
         21   -1    0    0  501  502  0.00000000000E+00  0.00000000000E+00  0.14125655199E+03  0.14125655199E+03  0.00000000000E+00 0.  1.
         21   -1    0    0  502  503 -0.00000000000E+00 -0.00000000000E+00 -0.32436498727E+03  0.32436498727E+03  0.00000000000E+00 0.  1.
          6    2    1    2  501    0  0.12536538475E+03  0.31896437387E+02 -0.76639436390E+02  0.22935057546E+03  0.17318839696E+03 0.  0.
         24    2    3    3    0    0  0.40894150767E+02  0.37160182794E+02  0.21660483331E+02  0.99550496092E+02  0.79924426690E+02 0.  0.
         -6    2    1    2    0  503 -0.12536538475E+03 -0.31896437387E+02 -0.10646899889E+03  0.23627096381E+03  0.16659669325E+03 0.  0.
        -24    2    5    5    0    0 -0.15990564114E+02  0.19127324862E+01 -0.17860189447E+01  0.81072614436E+02  0.79436907427E+02 0.  0.
          5    1    3    3  501    0  0.84471233984E+02 -0.52637454070E+01 -0.98299919721E+02  0.12980007937E+03  0.47000000000E+01 0. -1.
        -11    1    4    4    0    0  0.57257607169E+02  0.72143875872E+01 -0.24581971882E+01  0.57762649701E+02  0.00000000000E+00 0.  1.
         12    1    4    4    0    0 -0.16363456403E+02  0.29945795207E+02  0.24118680519E+02  0.41787846391E+02  0.00000000000E+00 0. -1.
         -5    1    5    5    0  503 -0.10937482064E+03 -0.33809169874E+02 -0.10468297995E+03  0.15519834937E+03  0.47000000000E+01 0.  1.
         11    1    6    6    0    0 -0.25133982716E+02  0.19044567519E+02  0.30193744951E+02  0.43658617401E+02  0.00000000000E+00 0. -1.
        -12    1    6    6    0    0  0.91434186018E+01 -0.17131835033E+02 -0.31979763896E+02  0.37413997036E+02  0.00000000000E+00 0.  1.
</event>
<event>
12    1  0.9017558E-003  0.1887750E+03  0.7818608E-02  0.1159872E+00
         21   -1    0    0  503  502  0.00000000000E+00  0.00000000000E+00  0.85341114400E+03  0.85341114400E+03  0.00000000000E+00 0. -1.
         21   -1    0    0  501  503 -0.00000000000E+00 -0.00000000000E+00 -0.50860174799E+02  0.50860174799E+02  0.00000000000E+00 0. -1.
          6    2    1    2  501    0 -0.74689921509E+02  0.25815756551E+01  0.20581564495E+03  0.27838870653E+03  0.17191551213E+03 0.  0.
         24    2    3    3    0    0 -0.30732656370E+02 -0.61785156637E+02  0.95547814806E+02  0.14327245381E+03  0.81459863484E+02 0.  0.
         -6    2    1    2    0  502  0.74689921509E+02 -0.25815756551E+01  0.59673532424E+03  0.62588261226E+03  0.17335151635E+03 0.  0.
        -24    2    5    5    0    0  0.62817901505E+02  0.56003213685E+02  0.44550641771E+03  0.46320073075E+03  0.94849881668E+02 0.  0.
          5    1    3    3  501    0 -0.43957265139E+02  0.64366732292E+02  0.11026783015E+03  0.13511625272E+03  0.47000000000E+01 0. -1.
        -11    1    4    4    0    0  0.66165679599E+01 -0.29521716881E+02  0.88361356559E+02  0.93397216619E+02  0.00000000000E+00 0.  1.
         12    1    4    4    0    0 -0.37349224329E+02 -0.32263439756E+02  0.71864582467E+01  0.49875237193E+02  0.00000000000E+00 0. -1.
         -5    1    5    5    0  502  0.11872020004E+02 -0.58584789340E+02  0.15122890653E+03  0.16268188151E+03  0.47000000000E+01 0.  1.
         13    1    6    6    0    0  0.72988290658E+02  0.37252125143E+01  0.23795674690E+03  0.24892685909E+03  0.00000000000E+00 0. -1.
        -14    1    6    6    0    0 -0.10170389153E+02  0.52278001170E+02  0.20754967081E+03  0.21427387165E+03  0.00000000000E+00 0.  1.
</event>
<event>
12    1  0.9017558E-003  0.2547080E+03  0.7818608E-02  0.1110485E+00
         21   -1    0    0  503  502  0.00000000000E+00  0.00000000000E+00  0.36091914997E+02  0.36091914997E+02  0.00000000000E+00 0.  1.
         21   -1    0    0  501  503 -0.00000000000E+00 -0.00000000000E+00 -0.17952829416E+04  0.17952829416E+04  0.00000000000E+00 0. -1.
          6    2    1    2  501    0  0.79029814358E+02 -0.16885505901E+03 -0.84208197957E+03  0.87976033000E+03  0.17354663759E+03 0.  0.
         24    2    3    3    0    0  0.10437609766E+03 -0.18050902790E+03 -0.77462748084E+03  0.80661357022E+03  0.84260540432E+02 0.  0.
         -6    2    1    2    0  502 -0.79029814358E+02  0.16885505901E+03 -0.91710904706E+03  0.95161452662E+03  0.17240493196E+03 0.  0.
        -24    2    5    5    0    0 -0.45088456709E+02  0.18568228970E+03 -0.84619964524E+03  0.87108251610E+03  0.78867158048E+02 0.  0.
          5    1    3    3  501    0 -0.25346283304E+02  0.11653968884E+02 -0.67454498730E+02  0.73146759784E+02  0.47000000000E+01 0. -1.
        -13    1    4    4    0    0  0.70630139587E+02 -0.17741264929E+03 -0.66396230002E+03  0.69087611088E+03  0.00000000000E+00 0.  1.
         14    1    4    4    0    0  0.33745958076E+02 -0.30963786082E+01 -0.11066518082E+03  0.11573745933E+03  0.00000000000E+00 0. -1.
         -5    1    5    5    0  502 -0.33941357649E+02 -0.16827230684E+02 -0.70909401817E+02  0.80532010515E+02  0.47000000000E+01 0.  1.
         11    1    6    6    0    0 -0.46994222897E+02  0.42534648899E+02 -0.24369343083E+03  0.25180179025E+03  0.00000000000E+00 0. -1.
        -12    1    6    6    0    0  0.19057661880E+01  0.14314764080E+03 -0.60250621441E+03  0.61928072585E+03  0.00000000000E+00 0.  1.
</event>
<event>
12    1  0.9017558E-003  0.3679242E+03  0.7818608E-02  0.1055602E+00
         21   -1    0    0  501  502  0.00000000000E+00  0.00000000000E+00  0.18256149082E+03  0.18256149082E+03  0.00000000000E+00 0. -1.
         21   -1    0    0  502  503 -0.00000000000E+00 -0.00000000000E+00 -0.87842445784E+03  0.87842445784E+03  0.00000000000E+00 0. -1.
          6    2    1    2  501    0  0.29503149420E+03  0.13612483984E+03 -0.13623295909E+03  0.39124424543E+03  0.17011491954E+03 0.  0.
         24    2    3    3    0    0  0.15755057943E+03  0.63101957085E+02 -0.14337699131E+03  0.23533891991E+03  0.77610588953E+02 0.  0.
         -6    2    1    2    0  503 -0.29503149420E+03 -0.13612483984E+03 -0.55963000794E+03  0.66974170323E+03  0.17261126462E+03 0.  0.
        -24    2    5    5    0    0 -0.16685140047E+03 -0.87781658810E+02 -0.20292007588E+03  0.28760132953E+03  0.77414198258E+02 0.  0.
          5    1    3    3  501    0  0.13748091476E+03  0.73022882752E+02  0.71440322232E+01  0.15590532552E+03  0.47000000000E+01 0. -1.
        -13    1    4    4    0    0  0.86302088112E+02  0.52248088957E+01 -0.34906787517E+02  0.93240725304E+02  0.00000000000E+00 0.  1.
         14    1    4    4    0    0  0.71248491322E+02  0.57877148189E+02 -0.10847020379E+03  0.14209819460E+03  0.00000000000E+00 0. -1.
         -5    1    5    5    0  503 -0.12818009372E+03 -0.48343181027E+02 -0.35670993206E+03  0.38214037370E+03  0.47000000000E+01 0.  1.
         11    1    6    6    0    0 -0.10026626894E+03 -0.80919415169E+02 -0.16913239849E+03  0.21261948325E+03  0.00000000000E+00 0. -1.
        -12    1    6    6    0    0 -0.66585131532E+02 -0.68622436410E+01 -0.33787677391E+02  0.74981846285E+02  0.00000000000E+00 0.  1.
</event>
<event>
12    1  0.9017558E-003  0.1761711E+03  0.7818608E-02  0.1172349E+00
         21   -1    0    0  503  502  0.00000000000E+00  0.00000000000E+00  0.13632265503E+04  0.13632265503E+04  0.00000000000E+00 0. -1.
         21   -1    0    0  501  503 -0.00000000000E+00 -0.00000000000E+00 -0.27435142825E+02  0.27435142825E+02  0.00000000000E+00 0. -1.
          6    2    1    2  501    0 -0.35954138964E+02  0.12360571790E+01  0.97173332066E+03  0.98757374189E+03  0.17245875232E+03 0.  0.
         24    2    3    3    0    0 -0.74505895213E+02  0.25673757308E+02  0.45174121331E+03  0.46556098266E+03  0.80415387432E+02 0.  0.
         -6    2    1    2    0  502  0.35954138964E+02 -0.12360571790E+01  0.36405808682E+03  0.40308795124E+03  0.16925536301E+03 0.  0.
        -24    2    5    5    0    0  0.84535822774E+02  0.64177971284E+01  0.18565092905E+03  0.21796646293E+03  0.76522010262E+02 0.  0.
          5    1    3    3  501    0  0.38551756249E+02 -0.24437700129E+02  0.51999210734E+03  0.52201275923E+03  0.47000000000E+01 0. -1.
        -13    1    4    4    0    0 -0.50160185150E+01  0.30114614936E+02  0.25579265559E+03  0.25760809989E+03  0.00000000000E+00 0.  1.
         14    1    4    4    0    0 -0.69489876698E+02 -0.44408576285E+01  0.19594855772E+03  0.20795288277E+03  0.00000000000E+00 0. -1.
         -5    1    5    5    0  502 -0.48581683810E+02 -0.76538543074E+01  0.17840715778E+03  0.18512148831E+03  0.47000000000E+01 0.  1.
         13    1    6    6    0    0  0.11803386920E+02 -0.16289749450E+02  0.33641121098E+01  0.20395909644E+02  0.00000000000E+00 0. -1.
        -14    1    6    6    0    0  0.72732435854E+02  0.22707546578E+02  0.18228681694E+03  0.19757055328E+03  0.00000000000E+00 0.  1.
</event>
<event>
12    1  0.9017558E-003  0.2382169E+03  0.7818608E-02  0.1121204E+00
         21   -1    0    0  501  502  0.00000000000E+00  0.00000000000E+00  0.34076449879E+03  0.34076449879E+03  0.00000000000E+00 0.  1.
         21   -1    0    0  502  503 -0.00000000000E+00 -0.00000000000E+00 -0.16728569549E+03  0.16728569549E+03  0.00000000000E+00 0. -1.
          6    2    1    2  501    0 -0.40604019726E+02 -0.15701526035E+03  0.61235676050E+02  0.24471427251E+03  0.17272170897E+03 0.  0.
         24    2    3    3    0    0 -0.56737783795E+01 -0.15193231737E+03  0.94864666655E+02  0.19573512308E+03  0.78723011911E+02 0.  0.
         -6    2    1    2    0  503  0.40604019726E+02  0.15701526035E+03  0.11224312725E+03  0.26333592176E+03  0.17448441098E+03 0.  0.
        -24    2    5    5    0    0 -0.32555675531E+02  0.47276803601E+02  0.13472507286E+02  0.98494800476E+02  0.78897079162E+02 0.  0.
          5    1    3    3  501    0 -0.34930241346E+02 -0.50829429717E+01 -0.33628990606E+02  0.48979149430E+02  0.47000000000E+01 0. -1.
        -11    1    4    4    0    0  0.29781699943E+02 -0.71981197023E+02  0.70201316852E+02  0.10486404181E+03  0.00000000000E+00 0.  1.
         12    1    4    4    0    0 -0.35455478322E+02 -0.79951120351E+02  0.24663349803E+02  0.90871081274E+02  0.00000000000E+00 0. -1.
         -5    1    5    5    0  503  0.73159695257E+02  0.10973845675E+03  0.98770619966E+02  0.16484112129E+03  0.47000000000E+01 0.  1.
         11    1    6    6    0    0 -0.37274886654E+01  0.58787178550E+02 -0.97783888878E+01  0.59711334124E+02  0.00000000000E+00 0. -1.
        -12    1    6    6    0    0 -0.28828186866E+02 -0.11510374949E+02  0.23250896174E+02  0.38783466352E+02  0.00000000000E+00 0.  1.
</event>
<event>
12    1  0.9017558E-003  0.2549397E+03  0.7818608E-02  0.1110411E+00
         21   -1    0    0  503  502  0.00000000000E+00  0.00000000000E+00  0.29086743148E+03  0.29086743148E+03  0.00000000000E+00 0. -1.
         21   -1    0    0  501  503 -0.00000000000E+00 -0.00000000000E+00 -0.22528422197E+03  0.22528422197E+03  0.00000000000E+00 0.  1.
          6    2    1    2  501    0 -0.92104735437E+02 -0.16190773127E+03  0.35754332641E+01  0.25496474840E+03  0.17405988472E+03 0.  0.
         24    2    3    3    0    0 -0.89769701999E+02 -0.17134990801E+03 -0.39680675488E+02  0.21038013192E+03  0.72566201001E+02 0.  0.
         -6    2    1    2    0  502  0.92104735437E+02  0.16190773127E+03  0.62007776244E+02  0.26118690505E+03  0.17226792888E+03 0.  0.
        -24    2    5    5    0    0  0.70457152060E+02  0.14077087079E+03  0.10721556271E+03  0.20658636756E+03  0.80013136641E+02 0.  0.
          5    1    3    3  501    0 -0.23350334381E+01  0.94421767355E+01  0.43256108752E+02  0.44584616484E+02  0.47000000000E+01 0. -1.
        -13    1    4    4    0    0 -0.35301932196E+02 -0.53778236389E+02  0.20491606180E+02  0.67514672847E+02  0.00000000000E+00 0.  1.
         14    1    4    4    0    0 -0.54467769803E+02 -0.11757167162E+03 -0.60172281668E+02  0.14286545907E+03  0.00000000000E+00 0. -1.
         -5    1    5    5    0  502  0.21647583377E+02  0.21136860488E+02 -0.45207786467E+02  0.54600537494E+02  0.47000000000E+01 0.  1.
         11    1    6    6    0    0 -0.62866766554E+01  0.52402339205E+02  0.61225818794E+02  0.80833955393E+02  0.00000000000E+00 0. -1.
        -12    1    6    6    0    0  0.76743828716E+02  0.88368531581E+02  0.45989743918E+02  0.12575241216E+03  0.00000000000E+00 0.  1.
</event>
<event>
12    1  0.9017558E-003  0.1927906E+03  0.7818608E-02  0.1156215E+00
         21   -1    0    0  503  502  0.00000000000E+00  0.00000000000E+00  0.10274058121E+03  0.10274058121E+03  0.00000000000E+00 0.  1.
         21   -1    0    0  501  503 -0.00000000000E+00 -0.00000000000E+00 -0.36401551954E+03  0.36401551954E+03  0.00000000000E+00 0.  1.
          6    2    1    2  501    0 -0.83696725447E+02  0.25945153203E+02 -0.15647490933E+03  0.24829940987E+03  0.17172625560E+03 0.  0.
         24    2    3    3    0    0 -0.71296359083E+02 -0.48722387120E+02 -0.92382643212E+02  0.14900731934E+03  0.78813619547E+02 0.  0.
         -6    2    1    2    0  502  0.83696725447E+02 -0.25945153203E+02 -0.10480002900E+03  0.21845669088E+03  0.17047576627E+03 0.  0.
        -24    2    5    5    0    0  0.78273391390E+02  0.50485099291E+02 -0.61355543901E+02  0.13024949540E+03  0.67267817230E+02 0.  0.
          5    1    3    3  501    0 -0.12400366364E+02  0.74667540322E+02 -0.64092266121E+02  0.99292090522E+02  0.47000000000E+01 0. -1.
        -13    1    4    4    0    0 -0.60354879739E+02 -0.60526543997E+01 -0.84874605838E+02  0.10432183304E+03  0.00000000000E+00 0.  1.
         14    1    4    4    0    0 -0.10941479344E+02 -0.42669732720E+02 -0.75080373739E+01  0.44685486300E+02  0.00000000000E+00 0. -1.
         -5    1    5    5    0  502  0.54233340570E+01 -0.76430252493E+02 -0.43444485094E+02  0.88207195475E+02  0.47000000000E+01 0.  1.
         11    1    6    6    0    0  0.38507187505E+01 -0.12795573744E+02 -0.20256601738E+02  0.24266945756E+02  0.00000000000E+00 0. -1.
        -12    1    6    6    0    0  0.74422672640E+02  0.63280673035E+02 -0.41098942163E+02  0.10598254965E+03  0.00000000000E+00 0.  1.
</event>
<event>
12    1  0.9017558E-003  0.1842523E+03  0.7818608E-02  0.1165561E+00
         21   -1    0    0  503  502  0.00000000000E+00  0.00000000000E+00  0.35949392165E+03  0.35949392165E+03  0.00000000000E+00 0.  1.
         21   -1    0    0  501  503 -0.00000000000E+00 -0.00000000000E+00 -0.97130830226E+02  0.97130830226E+02  0.00000000000E+00 0.  1.
          6    2    1    2  501    0 -0.32341132326E+02  0.55633907712E+02  0.74585561695E+02  0.19877606104E+03  0.17264945961E+03 0.  0.
         24    2    3    3    0    0 -0.70361735283E+02 -0.37308743495E+01  0.19257016180E+02  0.10903709767E+03  0.80954078223E+02 0.  0.
         -6    2    1    2    0  502  0.32341132326E+02 -0.55633907712E+02  0.18777752973E+03  0.25784869083E+03  0.16457358890E+03 0.  0.
        -24    2    5    5    0    0 -0.25296936130E+02  0.25508198923E+01  0.50016416161E+02  0.97512095280E+02  0.79752900766E+02 0.  0.
          5    1    3    3  501    0  0.38020602957E+02  0.59364782061E+02  0.55328545515E+02  0.89738963372E+02  0.47000000000E+01 0. -1.
        -11    1    4    4    0    0 -0.60453115550E+02  0.30291949965E+02 -0.21219386931E+01  0.67651193901E+02  0.00000000000E+00 0.  1.
         12    1    4    4    0    0 -0.99086197327E+01 -0.34022824315E+02  0.21378954873E+02  0.41385903770E+02  0.00000000000E+00 0. -1.
         -5    1    5    5    0  502  0.57638068456E+02 -0.58184727604E+02  0.13776111357E+03  0.16033659555E+03  0.47000000000E+01 0.  1.
         11    1    6    6    0    0 -0.48838813013E+01 -0.13483358582E+02 -0.18983413036E+02  0.23791242626E+02  0.00000000000E+00 0. -1.
        -12    1    6    6    0    0 -0.20413054828E+02  0.16034178474E+02  0.68999829197E+02  0.73720852654E+02  0.00000000000E+00 0.  1.
</event>
<event>
12    1  0.9017558E-003  0.1958231E+03  0.7818608E-02  0.1153740E+00
         21   -1    0    0  501  502  0.00000000000E+00  0.00000000000E+00  0.12566354299E+04  0.12566354299E+04  0.00000000000E+00 0. -1.
         21   -1    0    0  502  503 -0.00000000000E+00 -0.00000000000E+00 -0.31182908841E+02  0.31182908841E+02  0.00000000000E+00 0.  1.
          6    2    1    2  501    0 -0.80770549146E+02 -0.46731607944E+02  0.72947701792E+03  0.75530350948E+03  0.17215965547E+03 0.  0.
         24    2    3    3    0    0 -0.98459741845E+02 -0.85412194312E+02  0.59112887042E+03  0.61048847153E+03  0.79203969131E+02 0.  0.
         -6    2    1    2    0  503  0.80770549146E+02  0.46731607944E+02  0.49597550310E+03  0.53251482922E+03  0.16991944820E+03 0.  0.
        -24    2    5    5    0    0  0.66682483788E+02  0.30687781779E+01  0.46483880412E+03  0.47686862259E+03  0.82901136044E+02 0.  0.
          5    1    3    3  501    0  0.17689192699E+02  0.38680586368E+02  0.13834814751E+03  0.14481503796E+03  0.47000000000E+01 0. -1.
        -11    1    4    4    0    0 -0.77519291445E+02 -0.75664848789E+02  0.56633800605E+03  0.57660484475E+03  0.00000000000E+00 0.  1.
         12    1    4    4    0    0 -0.20940450400E+02 -0.97473455233E+01  0.24790864363E+02  0.33883626777E+02  0.00000000000E+00 0. -1.
         -5    1    5    5    0  503  0.14088065358E+02  0.43662829766E+02  0.31136698986E+02  0.55646206631E+02  0.47000000000E+01 0.  1.
         13    1    6    6    0    0  0.20542366163E+02 -0.25838864811E+02  0.32705917370E+03  0.32872076120E+03  0.00000000000E+00 0. -1.
        -14    1    6    6    0    0  0.46140117625E+02  0.28907642989E+02  0.13777963042E+03  0.14814786139E+03  0.00000000000E+00 0.  1.
</event>
<event>
12    1  0.9017558E-003  0.3024315E+03  0.7818608E-02  0.1084069E+00
         21   -1    0    0  503  502  0.00000000000E+00  0.00000000000E+00  0.11685826816E+03  0.11685826816E+03  0.00000000000E+00 0. -1.
         21   -1    0    0  501  503 -0.00000000000E+00 -0.00000000000E+00 -0.78652750023E+03  0.78652750023E+03  0.00000000000E+00 0.  1.
          6    2    1    2  501    0 -0.11869808962E+03 -0.21843466152E+03 -0.36929307334E+03  0.47713390253E+03  0.17168706735E+03 0.  0.
         24    2    3    3    0    0 -0.96105357087E+02 -0.24020960385E+03 -0.32838633356E+03  0.42536488635E+03  0.78490821289E+02 0.  0.
         -6    2    1    2    0  502  0.11869808962E+03  0.21843466152E+03 -0.30037615872E+03  0.42625186586E+03  0.17222624243E+03 0.  0.
        -24    2    5    5    0    0  0.39488717785E+02  0.19955797258E+03 -0.19792900398E+03  0.29530163299E+03  0.81513315344E+02 0.  0.
          5    1    3    3  501    0 -0.22592732531E+02  0.21774942332E+02 -0.40906739781E+02  0.51769016181E+02  0.47000000000E+01 0. -1.
        -13    1    4    4    0    0 -0.13530995107E+02  0.15834642160E+01 -0.27055806841E+02  0.30292109061E+02  0.00000000000E+00 0.  1.
         14    1    4    4    0    0 -0.82574361980E+02 -0.24179306807E+03 -0.30133052672E+03  0.39507277729E+03  0.00000000000E+00 0. -1.
         -5    1    5    5    0  502  0.79209371833E+02  0.18876688940E+02 -0.10244715475E+03  0.13095023286E+03  0.47000000000E+01 0.  1.
         11    1    6    6    0    0  0.96505836647E+01 -0.57184220947E+01 -0.61204567744E+01  0.12778658280E+02  0.00000000000E+00 0. -1.
        -12    1    6    6    0    0  0.29838134121E+02  0.20527639468E+03 -0.19180854720E+03  0.28252297471E+03  0.00000000000E+00 0.  1.
</event>
<event>
12    1  0.9017558E-003  0.1981615E+03  0.7818608E-02  0.1151622E+00
         21   -1    0    0  501  502  0.00000000000E+00  0.00000000000E+00  0.29851179236E+02  0.29851179236E+02  0.00000000000E+00 0. -1.
         21   -1    0    0  502  503 -0.00000000000E+00 -0.00000000000E+00 -0.26913051772E+04  0.26913051772E+04  0.00000000000E+00 0. -1.
          6    2    1    2  501    0  0.36101666062E+02  0.90070850665E+02 -0.35686316052E+03  0.40819025956E+03  0.17277697832E+03 0.  0.
         24    2    3    3    0    0  0.83383409288E+02  0.65009525256E+02 -0.17959424587E+03  0.22296069558E+03  0.79236022774E+02 0.  0.
         -6    2    1    2    0  503 -0.36101666062E+02 -0.90070850665E+02 -0.23045908374E+04  0.23129660969E+04  0.17104721220E+03 0.  0.
        -24    2    5    5    0    0  0.12446006920E+02 -0.11487124211E+03 -0.17022741535E+04  0.17081690948E+04  0.82183072251E+02 0.  0.
          5    1    3    3  501    0 -0.47281743226E+02  0.25061325409E+02 -0.17726891464E+03  0.18522956398E+03  0.47000000000E+01 0. -1.
        -11    1    4    4    0    0 -0.65702475633E+01  0.19198352470E+01 -0.60652551403E+02  0.61037577869E+02  0.00000000000E+00 0.  1.
         12    1    4    4    0    0  0.89953656851E+02  0.63089690009E+02 -0.11894169447E+03  0.16192311771E+03  0.00000000000E+00 0. -1.
         -5    1    5    5    0  503 -0.48547672982E+02  0.24800391447E+02 -0.60231668392E+03  0.60479700206E+03  0.47000000000E+01 0.  1.
         11    1    6    6    0    0  0.99144690059E+01 -0.16361528320E+02 -0.85027180041E+03  0.85048699630E+03  0.00000000000E+00 0. -1.
        -12    1    6    6    0    0  0.25315379141E+01 -0.98509713792E+02 -0.85200235311E+03  0.85768209851E+03  0.00000000000E+00 0.  1.
</event>
<event>
12    1  0.9017558E-003  0.1923666E+03  0.7818608E-02  0.1156609E+00
         21   -1    0    0  501  502  0.00000000000E+00  0.00000000000E+00  0.37219996412E+03  0.37219996412E+03  0.00000000000E+00 0.  1.
         21   -1    0    0  502  503 -0.00000000000E+00 -0.00000000000E+00 -0.10352448787E+03  0.10352448787E+03  0.00000000000E+00 0.  1.
          6    2    1    2  501    0 -0.67784084760E+02 -0.51377082439E+02  0.18551389261E+03  0.26724576198E+03  0.17254160714E+03 0.  0.
         24    2    3    3    0    0 -0.74072641477E+02 -0.29956283199E+00  0.18656589748E+03  0.21555770079E+03  0.78558527945E+02 0.  0.
         -6    2    1    2    0  503  0.67784084760E+02  0.51377082439E+02  0.83161583637E+02  0.20847869001E+03  0.17121106404E+03 0.  0.
        -24    2    5    5    0    0  0.28347401788E+01 -0.26341298276E+01  0.93724514735E+02  0.12321853563E+03  0.79897111766E+02 0.  0.
          5    1    3    3  501    0  0.62885567167E+01 -0.51077519607E+02 -0.10520048745E+01  0.51688061185E+02  0.47000000000E+01 0. -1.
        -13    1    4    4    0    0 -0.16123222214E+02 -0.36232817939E+02  0.73751650887E+02  0.83738171695E+02  0.00000000000E+00 0.  1.
         14    1    4    4    0    0 -0.57949419263E+02  0.35933255107E+02  0.11281424660E+03  0.13181952910E+03  0.00000000000E+00 0. -1.
         -5    1    5    5    0  503  0.64949344581E+02  0.54011212266E+02 -0.10562931097E+02  0.85260154383E+02  0.47000000000E+01 0.  1.
         11    1    6    6    0    0 -0.23299043388E+02 -0.16614355636E+02  0.42089323527E+01  0.28923992593E+02  0.00000000000E+00 0. -1.
        -12    1    6    6    0    0  0.26133783567E+02  0.13980225808E+02  0.89515582382E+02  0.94294543036E+02  0.00000000000E+00 0.  1.
</event>
<event>
12    1  0.9017558E-003  0.1854339E+03  0.7818608E-02  0.1162916E+00
         21   -1    0    0  501  502  0.00000000000E+00  0.00000000000E+00  0.26421297849E+03  0.26421297849E+03  0.00000000000E+00 0. -1.
         21   -1    0    0  502  503 -0.00000000000E+00 -0.00000000000E+00 -0.13855710708E+03  0.13855710708E+03  0.00000000000E+00 0. -1.
          6    2    1    2  501    0  0.32960754247E+02 -0.56825408569E+02  0.11047186646E+02  0.18576271289E+03  0.17340763186E+03 0.  0.
         24    2    3    3    0    0  0.84076218292E+02 -0.16644255857E+02  0.21385874026E+02  0.11976048449E+03  0.80866410216E+02 0.  0.
         -6    2    1    2    0  503 -0.32960754247E+02  0.56825408569E+02  0.11460868476E+03  0.21700737268E+03  0.17216710138E+03 0.  0.
        -24    2    5    5    0    0  0.71219169059E+01  0.96866071565E+02  0.99048186277E+02  0.15806592434E+03  0.75766323070E+02 0.  0.
          5    1    3    3  501    0 -0.51115464045E+02 -0.40181152713E+02 -0.10338687380E+02  0.66002228406E+02  0.47000000000E+01 0. -1.
        -11    1    4    4    0    0  0.57943000568E+02  0.23540675110E+02  0.32603329882E+02  0.70530360972E+02  0.00000000000E+00 0.  1.
         12    1    4    4    0    0  0.26133217724E+02 -0.40184930966E+02 -0.11217455856E+02  0.49230123515E+02  0.00000000000E+00 0. -1.
         -5    1    5    5    0  503 -0.40082671153E+02 -0.40040662996E+02  0.15560498486E+02  0.58941448345E+02  0.47000000000E+01 0.  1.
         11    1    6    6    0    0 -0.24307820006E+02  0.36241479514E+02  0.72860737854E+02  0.84929394625E+02  0.00000000000E+00 0. -1.
        -12    1    6    6    0    0  0.31429736912E+02  0.60624592051E+02  0.26187448423E+02  0.73136529714E+02  0.00000000000E+00 0.  1.
</event>
<event>
12    1  0.9017558E-003  0.2083708E+03  0.7818608E-02  0.1144994E+00
         21   -1    0    0  501  502  0.00000000000E+00  0.00000000000E+00  0.26587321710E+03  0.26587321710E+03  0.00000000000E+00 0.  1.
         21   -1    0    0  502  503 -0.00000000000E+00 -0.00000000000E+00 -0.15586702588E+03  0.15586702588E+03  0.00000000000E+00 0.  1.
          6    2    1    2  501    0 -0.49428536999E+02 -0.85575161035E+02  0.40653408420E+02  0.20213106085E+03  0.17157499144E+03 0.  0.
         24    2    3    3    0    0 -0.84214699101E+02 -0.10188518817E+03  0.50633965216E+02  0.16215862568E+03  0.79113300619E+02 0.  0.
         -6    2    1    2    0  503  0.49428536999E+02  0.85575161035E+02  0.69352782795E+02  0.21960918214E+03  0.18344507609E+03 0.  0.
        -24    2    5    5    0    0 -0.24018843445E+02  0.49008975131E+02  0.92837558923E+02  0.13413855353E+03  0.79972212120E+02 0.  0.
          5    1    3    3  501    0  0.34786162103E+02  0.16310027140E+02 -0.99805567965E+01  0.39972435166E+02  0.47000000000E+01 0. -1.
        -11    1    4    4    0    0 -0.60735478796E+02 -0.21445377696E+02  0.30772456179E+00  0.64411158222E+02  0.00000000000E+00 0.  1.
         12    1    4    4    0    0 -0.23479220305E+02 -0.80439810479E+02  0.50326240654E+02  0.97747467458E+02  0.00000000000E+00 0. -1.
         -5    1    5    5    0  503  0.73447380443E+02  0.36566185904E+02 -0.23484776128E+02  0.85470628612E+02  0.47000000000E+01 0.  1.
         11    1    6    6    0    0 -0.23255659926E+01  0.67873243449E+02  0.68688206402E+02  0.96593245790E+02  0.00000000000E+00 0. -1.
        -12    1    6    6    0    0 -0.21693277452E+02 -0.18864268318E+02  0.24149352520E+02  0.37545307736E+02  0.00000000000E+00 0.  1.
</event>
<event>
12    1  0.9017558E-003  0.2094493E+03  0.7818608E-02  0.1142022E+00
         21   -1    0    0  501  502  0.00000000000E+00  0.00000000000E+00  0.19140054937E+03  0.19140054937E+03  0.00000000000E+00 0.  1.
         21   -1    0    0  502  503 -0.00000000000E+00 -0.00000000000E+00 -0.39061444902E+03  0.39061444902E+03  0.00000000000E+00 0. -1.
          6    2    1    2  501    0  0.10469223078E+03  0.57621302519E+02  0.87535705709E+02  0.22691734571E+03  0.17189620217E+03 0.  0.
         24    2    3    3    0    0  0.13536253144E+03  0.57739238316E+02  0.99955055854E+02  0.19349562359E+03  0.76109845622E+02 0.  0.
         -6    2    1    2    0  503 -0.10469223078E+03 -0.57621302519E+02 -0.28674960536E+03  0.35509765269E+03  0.17201258408E+03 0.  0.
        -24    2    5    5    0    0 -0.12719066693E+03 -0.87650886982E+01 -0.24269518719E+03  0.28541271158E+03  0.79405097500E+02 0.  0.
          5    1    3    3  501    0 -0.30670300656E+02 -0.11793579662E+00 -0.12419350145E+02  0.33421722116E+02  0.47000000000E+01 0. -1.
        -11    1    4    4    0    0  0.10068223472E+03  0.38326370884E+01  0.51575073626E+02  0.11318829319E+03  0.00000000000E+00 0.  1.
         12    1    4    4    0    0  0.34680296714E+02  0.53906601227E+02  0.48379982228E+02  0.80307330403E+02  0.00000000000E+00 0. -1.
         -5    1    5    5    0  503  0.22498436146E+02 -0.48856213821E+02 -0.44054418167E+02  0.69684941113E+02  0.47000000000E+01 0.  1.
         13    1    6    6    0    0 -0.98329282199E+02 -0.38662857060E+02 -0.14650416662E+03  0.18062927529E+03  0.00000000000E+00 0. -1.
        -14    1    6    6    0    0 -0.28861384727E+02  0.29897768362E+02 -0.96191020575E+02  0.10478343629E+03  0.00000000000E+00 0.  1.
</event>
<event>
12    1  0.9017558E-003  0.2097511E+03  0.7818608E-02  0.1142036E+00
         21   -1    0    0  501  502  0.00000000000E+00  0.00000000000E+00  0.27605274898E+03  0.27605274898E+03  0.00000000000E+00 0. -1.
         21   -1    0    0  502  503 -0.00000000000E+00 -0.00000000000E+00 -0.16912065386E+03  0.16912065386E+03  0.00000000000E+00 0. -1.
          6    2    1    2  501    0 -0.13383196640E+02  0.11522207394E+03  0.10984114233E+03  0.23677115587E+03  0.17475773925E+03 0.  0.
         24    2    3    3    0    0 -0.36530923252E+02  0.37819337580E+02  0.12193809474E+03  0.15494556634E+03  0.79839958236E+02 0.  0.
         -6    2    1    2    0  503  0.13383196640E+02 -0.11522207394E+03 -0.29090472132E+01  0.20840224697E+03  0.17311209580E+03 0.  0.
        -24    2    5    5    0    0  0.41187797963E+02 -0.11252985351E+03  0.48361360310E+02  0.14982675215E+03  0.75827645732E+02 0.  0.
          5    1    3    3  501    0  0.23147726612E+02  0.77402736362E+02 -0.12096952411E+02  0.81825589526E+02  0.47000000000E+01 0. -1.
        -13    1    4    4    0    0  0.16426524137E+02 -0.49903419458E+01  0.23492811283E+01  0.17327819534E+02  0.00000000000E+00 0.  1.
         14    1    4    4    0    0 -0.52957447390E+02  0.42809679526E+02  0.11958881362E+03  0.13761774681E+03  0.00000000000E+00 0. -1.
         -5    1    5    5    0  503 -0.27804601322E+02 -0.26922204307E+01 -0.51270407523E+02  0.58575494818E+02  0.47000000000E+01 0.  1.
         11    1    6    6    0    0  0.47597760952E+01  0.75803911253E+01 -0.82174762065E+01  0.12150914093E+02  0.00000000000E+00 0. -1.
        -12    1    6    6    0    0  0.36428021868E+02 -0.12011024464E+03  0.56578836517E+02  0.13767583806E+03  0.00000000000E+00 0.  1.
</event>
<event>
12    1  0.9017558E-003  0.1909440E+03  0.7818608E-02  0.1157945E+00
         21   -1    0    0  501  502  0.00000000000E+00  0.00000000000E+00  0.32954943338E+03  0.32954943338E+03  0.00000000000E+00 0.  1.
         21   -1    0    0  502  503 -0.00000000000E+00 -0.00000000000E+00 -0.20993716948E+03  0.20993716948E+03  0.00000000000E+00 0.  1.
          6    2    1    2  501    0 -0.77278044294E+02  0.21637993305E+02  0.24599788575E+03  0.31050423441E+03  0.17163280838E+03 0.  0.
         24    2    3    3    0    0 -0.11265034127E+03  0.14403242845E+02  0.23468363349E+03  0.27237755988E+03  0.78838914893E+02 0.  0.
         -6    2    1    2    0  503  0.77278044294E+02 -0.21637993305E+02 -0.12638562185E+03  0.22898236845E+03  0.17326136547E+03 0.  0.
        -24    2    5    5    0    0  0.60818969036E+02  0.15788378238E+00  0.26152831411E+01  0.97038119213E+02  0.75568412400E+02 0.  0.
          5    1    3    3  501    0  0.35372296973E+02  0.72347504592E+01  0.11314252252E+02  0.38126674538E+02  0.47000000000E+01 0. -1.
        -13    1    4    4    0    0 -0.19080649921E+02  0.36859577244E+02  0.81888213089E+02  0.91806203924E+02  0.00000000000E+00 0.  1.
         14    1    4    4    0    0 -0.93569691346E+02 -0.22456334399E+02  0.15279542041E+03  0.18057135595E+03  0.00000000000E+00 0. -1.
         -5    1    5    5    0  503  0.16459075258E+02 -0.21795877087E+02 -0.12900090499E+03  0.13194424923E+03  0.47000000000E+01 0.  1.
         11    1    6    6    0    0  0.28008480884E+02  0.37518650607E+02 -0.34485277975E+01  0.46946953988E+02  0.00000000000E+00 0. -1.
        -12    1    6    6    0    0  0.32810488152E+02 -0.37360766825E+02  0.60638109387E+01  0.50091165225E+02  0.00000000000E+00 0.  1.
</event>
<event>
12    1  0.9017558E-003  0.1730458E+03  0.7818608E-02  0.1175448E+00
         21   -1    0    0  501  502  0.00000000000E+00  0.00000000000E+00  0.66227699224E+02  0.66227699224E+02  0.00000000000E+00 0. -1.
         21   -1    0    0  502  503 -0.00000000000E+00 -0.00000000000E+00 -0.46681594821E+03  0.46681594821E+03  0.00000000000E+00 0. -1.
          6    2    1    2  501    0 -0.12628548240E+02 -0.36220758041E+01 -0.14063116083E+03  0.22075768934E+03  0.16965917111E+03 0.  0.
         24    2    3    3    0    0 -0.64249331997E+02 -0.35861544488E+02 -0.10068690485E+03  0.14780755403E+03  0.79342253455E+02 0.  0.
         -6    2    1    2    0  503  0.12628548240E+02  0.36220758041E+01 -0.25995708816E+03  0.31228595810E+03  0.17254631922E+03 0.  0.
        -24    2    5    5    0    0  0.58404261094E+02 -0.17650725696E+02 -0.10109704412E+03  0.14553299241E+03  0.85068406122E+02 0.  0.
          5    1    3    3  501    0  0.51620783756E+02  0.32239468684E+02 -0.39944255973E+02  0.72950135311E+02  0.47000000000E+01 0. -1.
        -11    1    4    4    0    0 -0.16672005236E+02 -0.42098471925E+02 -0.86723924717E+02  0.97832899452E+02  0.00000000000E+00 0.  1.
         12    1    4    4    0    0 -0.47577326761E+02  0.62369274368E+01 -0.13962980137E+02  0.49974654574E+02  0.00000000000E+00 0. -1.
         -5    1    5    5    0  503 -0.45775712854E+02  0.21272801500E+02 -0.15886004404E+03  0.16675296568E+03  0.47000000000E+01 0.  1.
         13    1    6    6    0    0  0.48365709085E+02  0.28154658420E+02 -0.68348356352E+02  0.88336993508E+02  0.00000000000E+00 0. -1.
        -14    1    6    6    0    0  0.10038552009E+02 -0.45805384116E+02 -0.32748687764E+02  0.57195998905E+02  0.00000000000E+00 0.  1.
</event>
<event>
12    1  0.9017558E-003  0.1925901E+03  0.7818608E-02  0.1156284E+00
         21   -1    0    0  503  502  0.00000000000E+00  0.00000000000E+00  0.14602418322E+03  0.14602418322E+03  0.00000000000E+00 0. -1.
         21   -1    0    0  501  503 -0.00000000000E+00 -0.00000000000E+00 -0.33051179714E+03  0.33051179714E+03  0.00000000000E+00 0. -1.
          6    2    1    2  501    0 -0.33386423896E+02  0.79916053935E+02 -0.20737896706E+03  0.28259023636E+03  0.17131834907E+03 0.  0.
         24    2    3    3    0    0 -0.52718818856E+02  0.27305332331E+02 -0.20365456354E+03  0.22622011391E+03  0.78584372827E+02 0.  0.
         -6    2    1    2    0  502  0.33386423896E+02 -0.79916053935E+02  0.22891353143E+02  0.19394574401E+03  0.17201659394E+03 0.  0.
        -24    2    5    5    0    0  0.82557515826E+02 -0.22930482970E+02  0.22468618881E+02  0.11853075687E+03  0.78760085209E+02 0.  0.
          5    1    3    3  501    0  0.19332394960E+02  0.52610721604E+02 -0.37244035184E+01  0.56370122443E+02  0.47000000000E+01 0. -1.
        -13    1    4    4    0    0  0.27506917654E+01  0.19081760512E+02 -0.14027938164E+03  0.14159796892E+03  0.00000000000E+00 0.  1.
         14    1    4    4    0    0 -0.55469510622E+02  0.82235718183E+01 -0.63375181903E+02  0.84622144994E+02  0.00000000000E+00 0. -1.
         -5    1    5    5    0  502 -0.49171091930E+02 -0.56985570965E+02  0.42273426219E+00  0.75414987131E+02  0.47000000000E+01 0.  1.
         11    1    6    6    0    0  0.39570323679E+02 -0.40368673504E+02  0.39665345622E+02  0.69056353508E+02  0.00000000000E+00 0. -1.
        -12    1    6    6    0    0  0.42987192147E+02  0.17438190534E+02 -0.17196726741E+02  0.49474403366E+02  0.00000000000E+00 0.  1.
</event>
<event>
12    1  0.9017558E-003  0.4453750E+03  0.7818608E-02  0.1029273E+00
         21   -1    0    0  501  502  0.00000000000E+00  0.00000000000E+00  0.54787650610E+03  0.54787650610E+03  0.00000000000E+00 0.  1.
         21   -1    0    0  502  503 -0.00000000000E+00 -0.00000000000E+00 -0.40181565572E+03  0.40181565572E+03  0.00000000000E+00 0. -1.
          6    2    1    2  501    0 -0.31669159372E+02  0.40940236362E+03  0.22581665127E+03  0.49935161843E+03  0.17246926639E+03 0.  0.
         24    2    3    3    0    0 -0.19144619518E+02  0.39288405714E+03  0.16285976693E+03  0.43290330895E+03  0.78470200730E+02 0.  0.
         -6    2    1    2    0  503  0.31669159372E+02 -0.40940236362E+03 -0.79755800883E+02  0.45034054339E+03  0.16683041166E+03 0.  0.
        -24    2    5    5    0    0 -0.81238573783E+01 -0.27480476605E+03  0.50461438922E+01  0.28628732857E+03  0.79695134307E+02 0.  0.
          5    1    3    3  501    0 -0.12524539854E+02  0.16518306476E+02  0.62956884337E+02  0.66448309480E+02  0.47000000000E+01 0. -1.
        -11    1    4    4    0    0  0.25889173307E+02  0.21320015802E+03  0.10333524472E+03  0.23833323200E+03  0.00000000000E+00 0.  1.
         12    1    4    4    0    0 -0.45033792825E+02  0.17968389913E+03  0.59524522210E+02  0.19457007695E+03  0.00000000000E+00 0. -1.
         -5    1    5    5    0  503  0.39793016750E+02 -0.13459759757E+03 -0.84801944775E+02  0.16405321482E+03  0.47000000000E+01 0.  1.
         13    1    6    6    0    0 -0.64499540299E+01 -0.26401486704E+03  0.23191564575E+02  0.26510997829E+03  0.00000000000E+00 0. -1.
        -14    1    6    6    0    0 -0.16739033484E+01 -0.10789899010E+02 -0.18145420683E+02  0.21177350279E+02  0.00000000000E+00 0.  1.
</event>
<event>
12    1  0.9017558E-003  0.1923649E+03  0.7818608E-02  0.1156387E+00
         21   -1    0    0  503  502  0.00000000000E+00  0.00000000000E+00  0.28716521877E+02  0.28716521877E+02  0.00000000000E+00 0.  1.
         21   -1    0    0  501  503 -0.00000000000E+00 -0.00000000000E+00 -0.12937520118E+04  0.12937520118E+04  0.00000000000E+00 0.  1.
          6    2    1    2  501    0 -0.61079992334E+02  0.58892889561E+02 -0.67936923611E+03  0.70607847676E+03  0.17264158959E+03 0.  0.
         24    2    3    3    0    0 -0.10815575800E+03  0.57650694671E+02 -0.50837208641E+03  0.52865303899E+03  0.77527974331E+02 0.  0.
         -6    2    1    2    0  502  0.61079992334E+02 -0.58892889561E+02 -0.58566625379E+03  0.61639005690E+03  0.17243144583E+03 0.  0.
        -24    2    5    5    0    0 -0.11685114117E+02 -0.64746473720E+02 -0.46737786280E+03  0.47731001302E+03  0.71092433754E+02 0.  0.
          5    1    3    3  501    0  0.47075765668E+02  0.12421948910E+01 -0.17099714970E+03  0.17742543777E+03  0.47000000000E+01 0. -1.
        -13    1    4    4    0    0 -0.13352112010E+02  0.47075769195E+02 -0.19771015929E+03  0.20367551160E+03  0.00000000000E+00 0.  1.
         14    1    4    4    0    0 -0.94803645991E+02  0.10574925475E+02 -0.31066192712E+03  0.32497752739E+03  0.00000000000E+00 0. -1.
         -5    1    5    5    0  502  0.72765106451E+02  0.58535841586E+01 -0.11828839099E+03  0.13908004388E+03  0.47000000000E+01 0.  1.
         13    1    6    6    0    0 -0.29827656511E+02 -0.19204521333E+02 -0.32071419839E+03  0.32267026480E+03  0.00000000000E+00 0. -1.
        -14    1    6    6    0    0  0.18142542394E+02 -0.45541952387E+02 -0.14666366441E+03  0.15463974822E+03  0.00000000000E+00 0.  1.
</event>
<event>
12    1  0.9017558E-003  0.2362460E+03  0.7818608E-02  0.1122352E+00
         21   -1    0    0  503  502  0.00000000000E+00  0.00000000000E+00  0.24424206722E+03  0.24424206722E+03  0.00000000000E+00 0. -1.
         21   -1    0    0  501  503 -0.00000000000E+00 -0.00000000000E+00 -0.25284354047E+03  0.25284354047E+03  0.00000000000E+00 0.  1.
          6    2    1    2  501    0 -0.13472746100E+03  0.88743274047E+02 -0.81693775492E+02  0.24979093220E+03  0.17232173229E+03 0.  0.
         24    2    3    3    0    0 -0.85622364046E+02  0.63793051108E+02 -0.12299340265E+03  0.18078677744E+03  0.78458519017E+02 0.  0.
         -6    2    1    2    0  502  0.13472746100E+03 -0.88743274047E+02  0.73092302249E+02  0.24729467549E+03  0.17258422420E+03 0.  0.
        -24    2    5    5    0    0  0.12948599106E+03 -0.85130548664E+01  0.29820354181E+02  0.15586758669E+03  0.81033061613E+02 0.  0.
          5    1    3    3  501    0 -0.49105096951E+02  0.24950222939E+02  0.41299627155E+02  0.69004154762E+02  0.47000000000E+01 0. -1.
        -11    1    4    4    0    0 -0.17198882478E+02  0.60323411671E+02 -0.71272870689E+02  0.94944919034E+02  0.00000000000E+00 0.  1.
         12    1    4    4    0    0 -0.68423481569E+02  0.34696394363E+01 -0.51720531957E+02  0.85841858401E+02  0.00000000000E+00 0. -1.
         -5    1    5    5    0  502  0.52414699377E+01 -0.80230219181E+02  0.43271948068E+02  0.91427088800E+02  0.47000000000E+01 0.  1.
         11    1    6    6    0    0  0.77282487877E+02  0.25009000645E+02  0.43782037539E+02  0.92276215011E+02  0.00000000000E+00 0. -1.
        -12    1    6    6    0    0  0.52203503182E+02 -0.33522055511E+02 -0.13961683358E+02  0.63591371682E+02  0.00000000000E+00 0.  1.
</event>
<event>
12    1  0.9017558E-003  0.2446536E+03  0.7818608E-02  0.1116864E+00
         21   -1    0    0  503  502  0.00000000000E+00  0.00000000000E+00  0.90050707781E+03  0.90050707781E+03  0.00000000000E+00 0.  1.
         21   -1    0    0  501  503 -0.00000000000E+00 -0.00000000000E+00 -0.10320172393E+03  0.10320172393E+03  0.00000000000E+00 0.  1.
          6    2    1    2  501    0  0.79743287562E+02 -0.15293257003E+03  0.97910597181E+02  0.26275777066E+03  0.17235950254E+03 0.  0.
         24    2    3    3    0    0  0.11443232739E+03 -0.91363508951E+02  0.94263845126E+02  0.19183903148E+03  0.80464235419E+02 0.  0.
         -6    2    1    2    0  502 -0.79743287562E+02  0.15293257003E+03  0.69939475669E+03  0.74095103107E+03  0.17351669047E+03 0.  0.
        -24    2    5    5    0    0 -0.84208168759E+02  0.10389139370E+03  0.29881932862E+03  0.33733272659E+03  0.81338428181E+02 0.  0.
          5    1    3    3  501    0 -0.34689039832E+02 -0.61569061080E+02  0.36467520548E+01  0.70918739183E+02  0.47000000000E+01 0. -1.
        -13    1    4    4    0    0  0.10481886571E+03 -0.48518641824E+02  0.40445078583E+02  0.12237997220E+03  0.00000000000E+00 0.  1.
         14    1    4    4    0    0  0.96134616838E+01 -0.42844867127E+02  0.53818766544E+02  0.69459059286E+02  0.00000000000E+00 0. -1.
         -5    1    5    5    0  502  0.44648811966E+01  0.49041176330E+02  0.40057542808E+03  0.40361830449E+03  0.47000000000E+01 0.  1.
         13    1    6    6    0    0  0.25734505360E+01 -0.45413359241E+00 -0.44050534139E+01  0.51218532349E+01  0.00000000000E+00 0. -1.
        -14    1    6    6    0    0 -0.86781619295E+02  0.10434552729E+03  0.30322438203E+03  0.33221087335E+03  0.00000000000E+00 0.  1.
</event>
<event>
12    1  0.9017558E-003  0.1872977E+03  0.7818608E-02  0.1161380E+00
         21   -1    0    0  503  502  0.00000000000E+00  0.00000000000E+00  0.21122599121E+03  0.21122599121E+03  0.00000000000E+00 0. -1.
         21   -1    0    0  501  503 -0.00000000000E+00 -0.00000000000E+00 -0.17202300880E+03  0.17202300880E+03  0.00000000000E+00 0. -1.
          6    2    1    2  501    0 -0.37631566709E+02 -0.65400499430E+02  0.60233912227E+02  0.19674489745E+03  0.17142657423E+03 0.  0.
         24    2    3    3    0    0 -0.63788398314E+02 -0.98941193231E+02  0.60280622457E+02  0.15395178864E+03  0.78797717625E+02 0.  0.
         -6    2    1    2    0  502  0.37631566709E+02  0.65400499430E+02 -0.21030929817E+02  0.18650410255E+03  0.16925755558E+03 0.  0.
        -24    2    5    5    0    0 -0.65630439557E+01  0.72075592769E+02 -0.63012125458E+02  0.12500425483E+03  0.80109744420E+02 0.  0.
          5    1    3    3  501    0  0.26156831605E+02  0.33540693801E+02 -0.46710230867E-01  0.42793108815E+02  0.47000000000E+01 0. -1.
        -11    1    4    4    0    0 -0.49485842973E+02 -0.47259164805E+02 -0.60061346788E+01  0.68690253797E+02  0.00000000000E+00 0.  1.
         12    1    4    4    0    0 -0.14302555340E+02 -0.51682028426E+02  0.66286757136E+02  0.85261534839E+02  0.00000000000E+00 0. -1.
         -5    1    5    5    0  502  0.44194610665E+02 -0.66750933387E+01  0.41981195641E+02  0.61499847726E+02  0.47000000000E+01 0.  1.
         11    1    6    6    0    0 -0.10442355678E+02  0.37537069131E+02 -0.77972673522E+02  0.87165429885E+02  0.00000000000E+00 0. -1.
        -12    1    6    6    0    0  0.38793117221E+01  0.34538523638E+02  0.14960548063E+02  0.37838824941E+02  0.00000000000E+00 0.  1.
</event>
<event>
12    1  0.9017558E-003  0.1922804E+03  0.7818608E-02  0.1157479E+00
         21   -1    0    0  501  502  0.00000000000E+00  0.00000000000E+00  0.16197107197E+03  0.16197107197E+03  0.00000000000E+00 0.  1.
         21   -1    0    0  502  503 -0.00000000000E+00 -0.00000000000E+00 -0.25620584442E+03  0.25620584442E+03  0.00000000000E+00 0.  1.
          6    2    1    2  501    0  0.81502650065E+02  0.34969739944E+01  0.27973135501E+02  0.19430453152E+03  0.17411732787E+03 0.  0.
         24    2    3    3    0    0  0.38641595040E+02  0.15991092268E+02 -0.49417581585E+02  0.10483617890E+03  0.82459924430E+02 0.  0.
         -6    2    1    2    0  503 -0.81502650065E+02 -0.34969739944E+01 -0.12220790795E+03  0.22387238487E+03  0.16890577594E+03 0.  0.
        -24    2    5    5    0    0 -0.76364174809E+02 -0.15234563159E+02 -0.11175190510E+02  0.11200402800E+03  0.79727274480E+02 0.  0.
          5    1    3    3  501    0  0.42861055025E+02 -0.12494118273E+02  0.77390717087E+02  0.89468352620E+02  0.47000000000E+01 0. -1.
        -11    1    4    4    0    0  0.34277701164E+00 -0.29428566863E+02 -0.32781596856E+01  0.29612571226E+02  0.00000000000E+00 0.  1.
         12    1    4    4    0    0  0.38298818028E+02  0.45419659131E+02 -0.46139421900E+02  0.75223607672E+02  0.00000000000E+00 0. -1.
         -5    1    5    5    0  503 -0.51384752557E+01  0.11737589164E+02 -0.11103271744E+03  0.11186835687E+03  0.47000000000E+01 0.  1.
         13    1    6    6    0    0 -0.79056150236E+02 -0.23210515985E+02 -0.32889708664E+02  0.88714913506E+02  0.00000000000E+00 0. -1.
        -14    1    6    6    0    0  0.26919754269E+01  0.79759528260E+01  0.21714518153E+02  0.23289114492E+02  0.00000000000E+00 0.  1.
</event>
<event>
12    1  0.9017558E-003  0.2939023E+03  0.7818608E-02  0.1089672E+00
         21   -1    0    0  501  502  0.00000000000E+00  0.00000000000E+00  0.45577193258E+03  0.45577193258E+03  0.00000000000E+00 0.  1.
         21   -1    0    0  502  503 -0.00000000000E+00 -0.00000000000E+00 -0.18341318553E+03  0.18341318553E+03  0.00000000000E+00 0.  1.
          6    2    1    2  501    0  0.59388076312E+02  0.21716737321E+03  0.12265843055E+03  0.31847076204E+03  0.18891777071E+03 0.  0.
         24    2    3    3    0    0  0.51687315686E+02  0.16466574403E+03  0.16386621961E+03  0.25112171111E+03  0.80147301893E+02 0.  0.
         -6    2    1    2    0  503 -0.59388076312E+02 -0.21716737321E+03  0.14970031650E+03  0.32071435607E+03  0.17250768630E+03 0.  0.
        -24    2    5    5    0    0 -0.67851669167E+02 -0.50384759841E+02  0.66454303982E+02  0.13405943080E+03  0.80082978440E+02 0.  0.
          5    1    3    3  501    0  0.77007606255E+01  0.52501629183E+02 -0.41207789064E+02  0.67349050926E+02  0.47000000000E+01 0. -1.
        -13    1    4    4    0    0 -0.89159161471E+01  0.19883824343E+02 -0.30487053992E+01  0.22003514170E+02  0.00000000000E+00 0.  1.
         14    1    4    4    0    0  0.60603231833E+02  0.14478191969E+03  0.16691492501E+03  0.22911819694E+03  0.00000000000E+00 0. -1.
         -5    1    5    5    0  503  0.84635928551E+01 -0.16678261337E+03  0.83246012522E+02  0.18665492527E+03  0.47000000000E+01 0.  1.
         13    1    6    6    0    0  0.17340915756E+02 -0.36316988512E+01  0.18774787962E+02  0.25814516436E+02  0.00000000000E+00 0. -1.
        -14    1    6    6    0    0 -0.85192584923E+02 -0.46753060990E+02  0.47679516020E+02  0.10824491436E+03  0.00000000000E+00 0.  1.
</event>
<event>
12    1  0.9017558E-003  0.1809706E+03  0.7818608E-02  0.1167536E+00
         21   -1    0    0  503  502  0.00000000000E+00  0.00000000000E+00  0.39898235793E+03  0.39898235793E+03  0.00000000000E+00 0. -1.
         21   -1    0    0  501  503 -0.00000000000E+00 -0.00000000000E+00 -0.80959467118E+02  0.80959467118E+02  0.00000000000E+00 0. -1.
          6    2    1    2  501    0 -0.53240445743E+02 -0.37410071063E+01  0.15089888868E+03  0.23562857997E+03  0.17292140670E+03 0.  0.
         24    2    3    3    0    0  0.34245637581E+02 -0.19409106542E+02  0.75132790345E+02  0.11874446740E+03  0.83101355235E+02 0.  0.
         -6    2    1    2    0  502  0.53240445743E+02  0.37410071063E+01  0.16712400214E+03  0.24431324509E+03  0.17002937815E+03 0.  0.
        -24    2    5    5    0    0  0.25302893581E+02  0.66476927677E+02  0.11995071131E+03  0.16086438699E+03  0.80185781277E+02 0.  0.
          5    1    3    3  501    0 -0.87486083324E+02  0.15668099436E+02  0.75766098332E+02  0.11688411257E+03  0.47000000000E+01 0. -1.
        -13    1    4    4    0    0  0.51502505417E+02 -0.44929334611E+01  0.80161922520E+02  0.95386730405E+02  0.00000000000E+00 0.  1.
         14    1    4    4    0    0 -0.17256867835E+02 -0.14916173081E+02 -0.50291321755E+01  0.23357736990E+02  0.00000000000E+00 0. -1.
         -5    1    5    5    0  502  0.27937552162E+02 -0.62735920570E+02  0.47173290827E+02  0.83448858099E+02  0.47000000000E+01 0.  1.
         13    1    6    6    0    0 -0.12506105860E+02  0.20938608875E+02 -0.28390374435E+01  0.24553780951E+02  0.00000000000E+00 0. -1.
        -14    1    6    6    0    0  0.37808999440E+02  0.45538318802E+02  0.12278974876E+03  0.13631060604E+03  0.00000000000E+00 0.  1.
</event>
<event>
12    1  0.9017558E-003  0.2695694E+03  0.7818608E-02  0.1101570E+00
         21   -1    0    0  503  502  0.00000000000E+00  0.00000000000E+00  0.24508385245E+03  0.24508385245E+03  0.00000000000E+00 0. -1.
         21   -1    0    0  501  503 -0.00000000000E+00 -0.00000000000E+00 -0.33010294342E+03  0.33010294342E+03  0.00000000000E+00 0.  1.
          6    2    1    2  501    0 -0.14976621656E+03  0.14431842882E+03  0.49720899908E+02  0.27381906437E+03  0.17101749503E+03 0.  0.
         24    2    3    3    0    0 -0.53022724715E+02  0.45884574607E+02 -0.28343653909E+02  0.11518523623E+03  0.86876190091E+02 0.  0.
         -6    2    1    2    0  502  0.14976621656E+03 -0.14431842882E+03 -0.13473999088E+03  0.30136773150E+03  0.17149319499E+03 0.  0.
        -24    2    5    5    0    0  0.93158628352E+02 -0.14405637288E+03 -0.15224825339E+03  0.24192770313E+03  0.76933180616E+02 0.  0.
          5    1    3    3  501    0 -0.96743491841E+02  0.98433854213E+02  0.78064553817E+02  0.15863382814E+03  0.47000000000E+01 0. -1.
        -13    1    4    4    0    0 -0.69075745672E+02  0.28713451161E+02 -0.44146253393E+02  0.86860880760E+02  0.00000000000E+00 0.  1.
         14    1    4    4    0    0  0.16053020957E+02  0.17171123446E+02  0.15802599484E+02  0.28324355468E+02  0.00000000000E+00 0. -1.
         -5    1    5    5    0  502  0.56607588205E+02 -0.26205593780E+00  0.17508262509E+02  0.59440028363E+02  0.47000000000E+01 0.  1.
         13    1    6    6    0    0  0.10038120293E+03 -0.12871229348E+03 -0.11117791923E+03  0.19749372172E+03  0.00000000000E+00 0. -1.
        -14    1    6    6    0    0 -0.72225745824E+01 -0.15344079404E+02 -0.41070334158E+02  0.44433981413E+02  0.00000000000E+00 0.  1.
</event>
<event>
12    1  0.9017558E-003  0.2453404E+03  0.7818608E-02  0.1116506E+00
         21   -1    0    0  503  502  0.00000000000E+00  0.00000000000E+00  0.16333310198E+04  0.16333310198E+04  0.00000000000E+00 0. -1.
         21   -1    0    0  501  503 -0.00000000000E+00 -0.00000000000E+00 -0.42709715449E+02  0.42709715449E+02  0.00000000000E+00 0.  1.
          6    2    1    2  501    0  0.66241027892E+02 -0.16010306110E+03  0.48151056940E+03  0.54041129132E+03  0.17369821930E+03 0.  0.
         24    2    3    3    0    0  0.88985126323E+02 -0.88356066739E+02  0.41172684648E+03  0.43766508361E+03  0.79413991608E+02 0.  0.
         -6    2    1    2    0  502 -0.66241027892E+02  0.16010306110E+03  0.11091107350E+04  0.11356294440E+04  0.17177528226E+03 0.  0.
        -24    2    5    5    0    0 -0.84574457424E+02  0.18021335448E+03  0.10144433222E+04  0.10370163232E+04  0.81718472258E+02 0.  0.
          5    1    3    3  501    0 -0.22744098431E+02 -0.71746994362E+02  0.69783722917E+02  0.10274620770E+03  0.47000000000E+01 0. -1.
        -11    1    4    4    0    0  0.18865371309E+02 -0.74496450792E+02  0.22159042872E+03  0.23453771875E+03  0.00000000000E+00 0.  1.
         12    1    4    4    0    0  0.70119755014E+02 -0.13859615947E+02  0.19013641777E+03  0.20312736487E+03  0.00000000000E+00 0. -1.
         -5    1    5    5    0  502  0.18333429532E+02 -0.20110293376E+02  0.94667412806E+02  0.98613120757E+02  0.47000000000E+01 0.  1.
         11    1    6    6    0    0 -0.27145764113E+02  0.70741186018E+02  0.21258498976E+03  0.22568470435E+03  0.00000000000E+00 0. -1.
        -12    1    6    6    0    0 -0.57428693311E+02  0.10947216846E+03  0.80185833243E+03  0.81133161886E+03  0.00000000000E+00 0.  1.
</event>
<event>
12    1  0.9017558E-003  0.1814131E+03  0.7818608E-02  0.1166564E+00
         21   -1    0    0  501  502  0.00000000000E+00  0.00000000000E+00  0.10954240065E+03  0.10954240065E+03  0.00000000000E+00 0.  1.
         21   -1    0    0  502  503 -0.00000000000E+00 -0.00000000000E+00 -0.34390085391E+03  0.34390085391E+03  0.00000000000E+00 0.  1.
          6    2    1    2  501    0  0.11707130737E+02 -0.59201981929E+02 -0.35947489169E+02  0.18494037590E+03  0.17108123534E+03 0.  0.
         24    2    3    3    0    0  0.38763961799E+02 -0.74297020039E+02 -0.64950978360E+02  0.14224114092E+03  0.94822047324E+02 0.  0.
         -6    2    1    2    0  503 -0.11707130737E+02  0.59201981929E+02 -0.19841096410E+03  0.26850287866E+03  0.17054311361E+03 0.  0.
        -24    2    5    5    0    0  0.36545249480E+02  0.15692215828E+02 -0.38572552189E+02  0.95899866335E+02  0.78276060731E+02 0.  0.
          5    1    3    3  501    0 -0.27056831062E+02  0.15095038110E+02  0.29003489191E+02  0.42699234981E+02  0.47000000000E+01 0. -1.
        -11    1    4    4    0    0  0.30168861315E+02 -0.10132056581E+02  0.18354564952E+02  0.36738383445E+02  0.00000000000E+00 0.  1.
         12    1    4    4    0    0  0.85951004835E+01 -0.64164963458E+02 -0.83305543311E+02  0.10550275747E+03  0.00000000000E+00 0. -1.
         -5    1    5    5    0  503 -0.48252380217E+02  0.43509766101E+02 -0.15983841191E+03  0.17260301233E+03  0.47000000000E+01 0.  1.
         11    1    6    6    0    0  0.93184565837E+01 -0.26784268292E+02  0.55240343531E+01  0.28891964567E+02  0.00000000000E+00 0. -1.
        -12    1    6    6    0    0  0.27226792896E+02  0.42476484120E+02 -0.44096586542E+02  0.67007901767E+02  0.00000000000E+00 0.  1.
</event>
<event>
12    1  0.9017558E-003  0.2416366E+03  0.7818608E-02  0.1120294E+00
         21   -1    0    0  501  502  0.00000000000E+00  0.00000000000E+00  0.26127664161E+03  0.26127664161E+03  0.00000000000E+00 0.  1.
         21   -1    0    0  502  503 -0.00000000000E+00 -0.00000000000E+00 -0.21808567288E+03  0.21808567288E+03  0.00000000000E+00 0. -1.
          6    2    1    2  501    0  0.17021368034E+03  0.85931684216E+01  0.51191392439E+02  0.24699962089E+03  0.17129423383E+03 0.  0.
         24    2    3    3    0    0  0.16470448074E+03  0.29808350487E+02  0.86671481038E+02  0.20503103839E+03  0.80682571483E+02 0.  0.
         -6    2    1    2    0  503 -0.17021368034E+03 -0.85931684216E+01 -0.80004237129E+01  0.23236269360E+03  0.15773989692E+03 0.  0.
        -24    2    5    5    0    0 -0.27397216358E+02 -0.13644328493E+02 -0.18660209384E+02  0.88982856695E+02  0.81443048857E+02 0.  0.
          5    1    3    3  501    0  0.55091995929E+01 -0.21215182065E+02 -0.35480088599E+02  0.41968582502E+02  0.47000000000E+01 0. -1.
        -13    1    4    4    0    0  0.90776279529E+02  0.55161646968E+02  0.62398120420E+02  0.12319361044E+03  0.00000000000E+00 0.  1.
         14    1    4    4    0    0  0.73928201215E+02 -0.25353296481E+02  0.24273360618E+02  0.81837427948E+02  0.00000000000E+00 0. -1.
         -5    1    5    5    0  503 -0.14281646398E+03  0.50511600714E+01  0.10659785672E+02  0.14337983691E+03  0.47000000000E+01 0.  1.
         13    1    6    6    0    0 -0.39959348445E+01 -0.44588894698E+02  0.24126001859E+01  0.44832551404E+02  0.00000000000E+00 0. -1.
        -14    1    6    6    0    0 -0.23401281514E+02  0.30944566205E+02 -0.21072809570E+02  0.44150305291E+02  0.00000000000E+00 0.  1.
</event>
<event>
12    1  0.9017558E-003  0.1763037E+03  0.7818608E-02  0.1172109E+00
         21   -1    0    0  501  502  0.00000000000E+00  0.00000000000E+00  0.89012614681E+03  0.89012614681E+03  0.00000000000E+00 0. -1.
         21   -1    0    0  502  503 -0.00000000000E+00 -0.00000000000E+00 -0.47893057450E+02  0.47893057450E+02  0.00000000000E+00 0.  1.
          6    2    1    2  501    0 -0.94043440511E+01  0.21737374189E+02  0.67254093335E+03  0.69526562974E+03  0.17470556301E+03 0.  0.
         24    2    3    3    0    0 -0.71881831801E+02  0.37316400496E+02  0.46016918786E+03  0.47329718419E+03  0.75465433290E+02 0.  0.
         -6    2    1    2    0  503  0.94043440511E+01 -0.21737374189E+02  0.16969215601E+03  0.24275357452E+03  0.17196777316E+03 0.  0.
        -24    2    5    5    0    0 -0.22979687267E+02 -0.69803351331E+02  0.75163630234E+02  0.13177251384E+03  0.79459739561E+02 0.  0.
          5    1    3    3  501    0  0.62477487749E+02 -0.15579026307E+02  0.21237174549E+03  0.22196844554E+03  0.47000000000E+01 0. -1.
        -13    1    4    4    0    0 -0.60210915539E+01  0.10214843341E+02  0.54768589284E+01  0.13061108364E+02  0.00000000000E+00 0.  1.
         14    1    4    4    0    0 -0.65860740247E+02  0.27101557155E+02  0.45469232893E+03  0.46023607583E+03  0.00000000000E+00 0. -1.
         -5    1    5    5    0  503  0.32384031318E+02  0.48065977142E+02  0.94528525774E+02  0.11098106067E+03  0.47000000000E+01 0.  1.
         13    1    6    6    0    0 -0.38233650835E+02 -0.52207727264E+02  0.84715207008E+02  0.10660265072E+03  0.00000000000E+00 0. -1.
        -14    1    6    6    0    0  0.15253963568E+02 -0.17595624067E+02 -0.95515767736E+01  0.25169863124E+02  0.00000000000E+00 0.  1.
</event>
<event>
12    1  0.9017558E-003  0.1819373E+03  0.7818608E-02  0.1166243E+00
         21   -1    0    0  503  502  0.00000000000E+00  0.00000000000E+00  0.16895017531E+03  0.16895017531E+03  0.00000000000E+00 0. -1.
         21   -1    0    0  501  503 -0.00000000000E+00 -0.00000000000E+00 -0.23336291847E+03  0.23336291847E+03  0.00000000000E+00 0. -1.
          6    2    1    2  501    0 -0.12815799483E+02 -0.52813932456E+02 -0.11413175862E+03  0.21370460082E+03  0.17230798562E+03 0.  0.
         24    2    3    3    0    0  0.45707526668E+02 -0.92891800030E+01 -0.20245677366E+02  0.94725316773E+02  0.79922032797E+02 0.  0.
         -6    2    1    2    0  502  0.12815799483E+02  0.52813932456E+02  0.49719015465E+02  0.18860849296E+03  0.17363072004E+03 0.  0.
        -24    2    5    5    0    0  0.33766946664E+02  0.79353535529E+02  0.80689295267E+02  0.14251565913E+03  0.79766913184E+02 0.  0.
          5    1    3    3  501    0 -0.58523326151E+02 -0.43524752453E+02 -0.93886081252E+02  0.11897928405E+03  0.47000000000E+01 0. -1.
        -11    1    4    4    0    0  0.34395239199E+01  0.29834043270E+02  0.72637081526E+01  0.30897603770E+02  0.00000000000E+00 0.  1.
         12    1    4    4    0    0  0.42268002748E+02 -0.39123223273E+02 -0.27509385518E+02  0.63827713003E+02  0.00000000000E+00 0. -1.
         -5    1    5    5    0  502 -0.20951147181E+02 -0.26539603073E+02 -0.30970279802E+02  0.46092833830E+02  0.47000000000E+01 0.  1.
         11    1    6    6    0    0  0.38144790723E+02  0.25621071566E+02  0.57843321228E+00  0.45954313752E+02  0.00000000000E+00 0. -1.
        -12    1    6    6    0    0 -0.43778440586E+01  0.53732463963E+02  0.80110862055E+02  0.96561345379E+02  0.00000000000E+00 0.  1.
</event>
<event>
12    1  0.9017558E-003  0.1768663E+03  0.7818608E-02  0.1171690E+00
         21   -1    0    0  501  502  0.00000000000E+00  0.00000000000E+00  0.23875396706E+03  0.23875396706E+03  0.00000000000E+00 0.  1.
         21   -1    0    0  502  503 -0.00000000000E+00 -0.00000000000E+00 -0.12883797482E+03  0.12883797482E+03  0.00000000000E+00 0.  1.
          6    2    1    2  501    0  0.36562311285E+01 -0.20337750099E+02  0.63312556806E+02  0.18785681182E+03  0.17565508758E+03 0.  0.
         24    2    3    3    0    0 -0.33857683277E+02  0.42555533150E+02  0.77720469266E+01  0.95825854584E+02  0.78516708889E+02 0.  0.
         -6    2    1    2    0  503 -0.36562311285E+01  0.20337750099E+02  0.46603435441E+02  0.17973513006E+03  0.17235383569E+03 0.  0.
        -24    2    5    5    0    0 -0.61539206684E+02 -0.59416750692E+01  0.57734450062E+02  0.11502781569E+03  0.77947124368E+02 0.  0.
          5    1    3    3  501    0  0.37513914405E+02 -0.62893283248E+02  0.55540509879E+02  0.92030957234E+02  0.47000000000E+01 0. -1.
        -11    1    4    4    0    0 -0.22516422686E+01  0.13804303456E+02 -0.33573071611E+02  0.36370040201E+02  0.00000000000E+00 0.  1.
         12    1    4    4    0    0 -0.31606041008E+02  0.28751229694E+02  0.41345118537E+02  0.59455814383E+02  0.00000000000E+00 0. -1.
         -5    1    5    5    0  503  0.57882975556E+02  0.26279425168E+02 -0.11131014621E+02  0.64707314369E+02  0.47000000000E+01 0.  1.
         11    1    6    6    0    0 -0.57659607666E+02  0.27904494583E+02  0.28397703307E+02  0.70069399364E+02  0.00000000000E+00 0. -1.
        -12    1    6    6    0    0 -0.38795990186E+01 -0.33846169653E+02  0.29336746755E+02  0.44958416329E+02  0.00000000000E+00 0.  1.
</event>
<event>
12    1  0.9017558E-003  0.1941955E+03  0.7818608E-02  0.1154874E+00
         21   -1    0    0  503  502  0.00000000000E+00  0.00000000000E+00  0.11844158738E+03  0.11844158738E+03  0.00000000000E+00 0. -1.
         21   -1    0    0  501  503 -0.00000000000E+00 -0.00000000000E+00 -0.33471998527E+03  0.33471998527E+03  0.00000000000E+00 0. -1.
          6    2    1    2  501    0  0.53919926295E+02 -0.70711694866E+02 -0.15995096437E+03  0.25158740039E+03  0.17263952847E+03 0.  0.
         24    2    3    3    0    0 -0.33777699984E+02 -0.13124584461E+02 -0.88294613355E+02  0.12445018483E+03  0.79866901922E+02 0.  0.
         -6    2    1    2    0  502 -0.53919926295E+02  0.70711694866E+02 -0.56327433512E+02  0.20157417226E+03  0.17190655867E+03 0.  0.
        -24    2    5    5    0    0 -0.82908482376E+02  0.12233059927E+02 -0.73843789163E+02  0.13383201520E+03  0.73720003324E+02 0.  0.
          5    1    3    3  501    0  0.87697626279E+02 -0.57587110404E+02 -0.71656351015E+02  0.12713721556E+03  0.47000000000E+01 0. -1.
        -13    1    4    4    0    0 -0.16000827335E+02 -0.46860686986E+02 -0.52021818645E+02  0.71820749615E+02  0.00000000000E+00 0.  1.
         14    1    4    4    0    0 -0.17776872649E+02  0.33736102524E+02 -0.36272794710E+02  0.52629435212E+02  0.00000000000E+00 0. -1.
         -5    1    5    5    0  502  0.28988556080E+02  0.58478634939E+02  0.17516355651E+02  0.67742157061E+02  0.47000000000E+01 0.  1.
         13    1    6    6    0    0 -0.49654063236E+02  0.13942310762E+02 -0.84391392121E+02  0.98903089382E+02  0.00000000000E+00 0. -1.
        -14    1    6    6    0    0 -0.33254419140E+02 -0.17092508349E+01  0.10547602959E+02  0.34928925820E+02  0.00000000000E+00 0.  1.
</event>
<event>
12    1  0.9017558E-003  0.1812246E+03  0.7818608E-02  0.1166643E+00
         21   -1    0    0  501  502  0.00000000000E+00  0.00000000000E+00  0.17640615787E+03  0.17640615787E+03  0.00000000000E+00 0.  1.
         21   -1    0    0  502  503 -0.00000000000E+00 -0.00000000000E+00 -0.26890602459E+03  0.26890602459E+03  0.00000000000E+00 0.  1.
          6    2    1    2  501    0 -0.55819371096E+02 -0.15646264992E+02  0.77322734008E+02  0.19695342238E+03  0.17161362882E+03 0.  0.
         24    2    3    3    0    0  0.47405505245E+01  0.10991665160E+02  0.98520024842E+02  0.12732226148E+03  0.79758845601E+02 0.  0.
         -6    2    1    2    0  503  0.55819371096E+02  0.15646264992E+02 -0.16982260073E+03  0.24835876008E+03  0.17170250490E+03 0.  0.
        -24    2    5    5    0    0  0.36783907900E+02  0.48765146837E+02 -0.32833413171E+02  0.10606562355E+03  0.80254520446E+02 0.  0.
          5    1    3    3  501    0 -0.60559921621E+02 -0.26637930152E+02 -0.21197290834E+02  0.69631160899E+02  0.47000000000E+01 0. -1.
        -11    1    4    4    0    0  0.26641689907E+02 -0.18128977944E+02  0.80422036616E+02  0.86638002377E+02  0.00000000000E+00 0.  1.
         12    1    4    4    0    0 -0.21901139382E+02  0.29120643104E+02  0.18097988226E+02  0.40684259105E+02  0.00000000000E+00 0. -1.
         -5    1    5    5    0  503  0.19035463196E+02 -0.33118881845E+02 -0.13698918756E+03  0.14229313653E+03  0.47000000000E+01 0.  1.
         11    1    6    6    0    0  0.67296875034E+01 -0.18866401686E+02  0.79653099000E+01  0.21556344038E+02  0.00000000000E+00 0. -1.
        -12    1    6    6    0    0  0.30054220397E+02  0.67631548523E+02 -0.40798723071E+02  0.84509279512E+02  0.00000000000E+00 0.  1.
</event>
<event>
12    1  0.9017558E-003  0.2113693E+03  0.7818608E-02  0.1143261E+00
         21   -1    0    0  501  502  0.00000000000E+00  0.00000000000E+00  0.47649846745E+03  0.47649846745E+03  0.00000000000E+00 0.  1.
         21   -1    0    0  502  503 -0.00000000000E+00 -0.00000000000E+00 -0.91351635783E+02  0.91351635783E+02  0.00000000000E+00 0.  1.
          6    2    1    2  501    0 -0.17087821208E+02  0.91385722084E+02  0.25464102328E+03  0.33093660997E+03  0.18982530190E+03 0.  0.
         24    2    3    3    0    0 -0.84967792553E+02  0.25096273236E+02  0.15699356618E+03  0.19470483167E+03  0.73577462257E+02 0.  0.
         -6    2    1    2    0  503  0.17087821208E+02 -0.91385722084E+02  0.13050580838E+03  0.23691349327E+03  0.17450757415E+03 0.  0.
        -24    2    5    5    0    0  0.44109776965E+02  0.48737681227E+01  0.55992129510E+02  0.11213186847E+03  0.86423441959E+02 0.  0.
          5    1    3    3  501    0  0.67879971345E+02  0.66289448848E+02  0.97647457100E+02  0.13623177829E+03  0.47000000000E+01 0. -1.
        -11    1    4    4    0    0 -0.46544873172E+02  0.90287707182E+01  0.14318106747E+03  0.15082692731E+03  0.00000000000E+00 0.  1.
         12    1    4    4    0    0 -0.38422919381E+02  0.16067502518E+02  0.13812498716E+02  0.43877904368E+02  0.00000000000E+00 0. -1.
         -5    1    5    5    0  503 -0.27021955757E+02 -0.96259490207E+02  0.74513678871E+02  0.12478162480E+03  0.47000000000E+01 0.  1.
         11    1    6    6    0    0 -0.59921820789E+00 -0.28581917660E+02  0.47795494199E+02  0.55692857220E+02  0.00000000000E+00 0. -1.
        -12    1    6    6    0    0  0.44708995173E+02  0.33455685783E+02  0.81966353115E+01  0.56439011251E+02  0.00000000000E+00 0.  1.
</event>
<event>
12    1  0.9017558E-003  0.1793419E+03  0.7818608E-02  0.1168830E+00
         21   -1    0    0  503  502  0.00000000000E+00  0.00000000000E+00  0.52396098147E+03  0.52396098147E+03  0.00000000000E+00 0.  1.
         21   -1    0    0  501  503 -0.00000000000E+00 -0.00000000000E+00 -0.80081431016E+02  0.80081431016E+02  0.00000000000E+00 0.  1.
          6    2    1    2  501    0 -0.25639253308E+02 -0.42543669995E+02  0.73151393927E+02  0.19221368510E+03  0.17066821362E+03 0.  0.
         24    2    3    3    0    0 -0.69550982032E+02 -0.37019231500E+02  0.11752607372E+02  0.11638057669E+03  0.84844282359E+02 0.  0.
         -6    2    1    2    0  502  0.25639253308E+02  0.42543669995E+02  0.37072815653E+03  0.41182872739E+03  0.17232585265E+03 0.  0.
        -24    2    5    5    0    0  0.64828410970E+02  0.72248156920E+02  0.22000577512E+03  0.25321765312E+03  0.79335488404E+02 0.  0.
          5    1    3    3  501    0  0.43911728724E+02 -0.55244384948E+01  0.61398786555E+02  0.75833108407E+02  0.47000000000E+01 0. -1.
        -13    1    4    4    0    0 -0.57873213841E+02  0.57908545613E+01  0.33333236297E+02  0.67036911615E+02  0.00000000000E+00 0.  1.
         14    1    4    4    0    0 -0.11677768191E+02 -0.42810086062E+02 -0.21580628925E+02  0.49343665078E+02  0.00000000000E+00 0. -1.
         -5    1    5    5    0  502 -0.39189157662E+02 -0.29704486924E+02  0.15072238141E+03  0.15861107427E+03  0.47000000000E+01 0.  1.
         13    1    6    6    0    0  0.37746947043E+01  0.47306123764E+01  0.11116080644E+03  0.11132543242E+03  0.00000000000E+00 0. -1.
        -14    1    6    6    0    0  0.61053716265E+02  0.67517544543E+02  0.10884496867E+03  0.14189222070E+03  0.00000000000E+00 0.  1.
</event>
<event>
12    1  0.9017558E-003  0.1778534E+03  0.7818608E-02  0.1170307E+00
         21   -1    0    0  503  502  0.00000000000E+00  0.00000000000E+00  0.10937859731E+03  0.10937859731E+03  0.00000000000E+00 0. -1.
         21   -1    0    0  501  503 -0.00000000000E+00 -0.00000000000E+00 -0.39360906682E+03  0.39360906682E+03  0.00000000000E+00 0. -1.
          6    2    1    2  501    0  0.27564957208E+02  0.35756767119E+02 -0.27379147665E+03  0.32648674017E+03  0.17202745583E+03 0.  0.
         24    2    3    3    0    0  0.11390692597E+02 -0.22074322228E+02 -0.55439173188E+02  0.99978770868E+02  0.79405472864E+02 0.  0.
         -6    2    1    2    0  502 -0.27564957208E+02 -0.35756767119E+02 -0.10438992853E+02  0.17650092396E+03  0.17030921973E+03 0.  0.
        -24    2    5    5    0    0  0.99370310389E+01 -0.29392790894E+02  0.59550250292E+02  0.96704411051E+02  0.69590445211E+02 0.  0.
          5    1    3    3  501    0  0.16174264611E+02  0.57831089348E+02 -0.21835230346E+03  0.22650796930E+03  0.47000000000E+01 0. -1.
        -13    1    4    4    0    0 -0.10102220270E+02 -0.37523907476E+02 -0.61570759975E+02  0.72808357835E+02  0.00000000000E+00 0.  1.
         14    1    4    4    0    0  0.21492912868E+02  0.15449585248E+02  0.61315867871E+01  0.27170413033E+02  0.00000000000E+00 0. -1.
         -5    1    5    5    0  502 -0.37501988247E+02 -0.63639762256E+01 -0.69989243145E+02  0.79796512905E+02  0.47000000000E+01 0.  1.
         13    1    6    6    0    0 -0.22726306767E+02  0.10161313269E+02  0.19128791209E+02  0.31395030813E+02  0.00000000000E+00 0. -1.
        -14    1    6    6    0    0  0.32663337806E+02 -0.39554104162E+02  0.40421459082E+02  0.65309380238E+02  0.00000000000E+00 0.  1.
</event>
<event>
12    1  0.9017558E-003  0.1784445E+03  0.7818608E-02  0.1169758E+00
         21   -1    0    0  503  502  0.00000000000E+00  0.00000000000E+00  0.10038672432E+03  0.10038672432E+03  0.00000000000E+00 0. -1.
         21   -1    0    0  501  503 -0.00000000000E+00 -0.00000000000E+00 -0.32835241362E+03  0.32835241362E+03  0.00000000000E+00 0. -1.
          6    2    1    2  501    0  0.45520253239E+02 -0.35539599785E-01 -0.15932255267E+03  0.23921977113E+03  0.17254080211E+03 0.  0.
         24    2    3    3    0    0 -0.11471243343E+02 -0.40799226133E+02 -0.12544354011E+03  0.16124806912E+03  0.92025495179E+02 0.  0.
         -6    2    1    2    0  502 -0.45520253239E+02  0.35539599785E-01 -0.68643136630E+02  0.18951936681E+03  0.17068572135E+03 0.  0.
        -24    2    5    5    0    0 -0.53936601744E+02 -0.59919742478E+02 -0.31860747351E+02  0.11852285329E+03  0.80827142621E+02 0.  0.
          5    1    3    3  501    0  0.56991496581E+02  0.40763686533E+02 -0.33879012560E+02  0.77971702010E+02  0.47000000000E+01 0. -1.
        -11    1    4    4    0    0 -0.10550717362E+02 -0.18492766735E+02  0.10320696093E+02  0.23660448563E+02  0.00000000000E+00 0.  1.
         12    1    4    4    0    0 -0.92052598051E+00 -0.22306459398E+02 -0.13576423620E+03  0.13758762056E+03  0.00000000000E+00 0. -1.
         -5    1    5    5    0  502  0.84163485050E+01  0.59955282077E+02 -0.36782389279E+02  0.70996513522E+02  0.47000000000E+01 0.  1.
         11    1    6    6    0    0 -0.43462170285E+02  0.16115753133E+01 -0.35295599754E+02  0.56011934289E+02  0.00000000000E+00 0. -1.
        -12    1    6    6    0    0 -0.10474431459E+02 -0.61531317791E+02  0.34348524026E+01  0.62510919002E+02  0.00000000000E+00 0.  1.
</event>
<event>
12    1  0.9017558E-003  0.2202207E+03  0.7818608E-02  0.1133879E+00
         21   -1    0    0  503  502  0.00000000000E+00  0.00000000000E+00  0.22929375636E+03  0.22929375636E+03  0.00000000000E+00 0.  1.
         21   -1    0    0  501  503 -0.00000000000E+00 -0.00000000000E+00 -0.57236600788E+03  0.57236600788E+03  0.00000000000E+00 0. -1.
          6    2    1    2  501    0  0.19105822721E+02  0.13395386873E+03 -0.49029171083E+03  0.53747846599E+03  0.17374829001E+03 0.  0.
         24    2    3    3    0    0  0.30620158557E+02  0.16526704797E+03 -0.42181305475E+03  0.46115997896E+03  0.80569732406E+02 0.  0.
         -6    2    1    2    0  502 -0.19105822721E+02 -0.13395386873E+03  0.14721945931E+03  0.26418129825E+03  0.17265433020E+03 0.  0.
        -24    2    5    5    0    0  0.57003804398E+02 -0.81969912731E+02  0.76926560230E+02  0.14817186466E+03  0.77901896626E+02 0.  0.
          5    1    3    3  501    0 -0.11514335835E+02 -0.31313179239E+02 -0.68478656076E+02  0.76318487025E+02  0.47000000000E+01 0. -1.
        -13    1    4    4    0    0 -0.67806650630E+01  0.40917777282E+01  0.14586997879E+00  0.79209432345E+01  0.00000000000E+00 0.  1.
         14    1    4    4    0    0  0.37400823620E+02  0.16117527025E+03 -0.42195892473E+03  0.45323903573E+03  0.00000000000E+00 0. -1.
         -5    1    5    5    0  502 -0.76109627120E+02 -0.51983956003E+02  0.70292899077E+02  0.11600943359E+03  0.47000000000E+01 0.  1.
         11    1    6    6    0    0  0.68571230438E+01  0.22443704953E+01 -0.13184811118E+02  0.15029856273E+02  0.00000000000E+00 0. -1.
        -12    1    6    6    0    0  0.50146681354E+02 -0.84214283226E+02  0.90111371348E+02  0.13314200838E+03  0.00000000000E+00 0.  1.
</event>
<event>
12    1  0.9017558E-003  0.1766043E+03  0.7818608E-02  0.1171639E+00
         21   -1    0    0  503  502  0.00000000000E+00  0.00000000000E+00  0.51847778263E+02  0.51847778263E+02  0.00000000000E+00 0.  1.
         21   -1    0    0  501  503 -0.00000000000E+00 -0.00000000000E+00 -0.61228162654E+03  0.61228162654E+03  0.00000000000E+00 0. -1.
          6    2    1    2  501    0  0.27826384667E+02 -0.18615586721E+02 -0.22542525062E+03  0.28636624057E+03  0.17340193876E+03 0.  0.
         24    2    3    3    0    0  0.60755977622E+02 -0.63322091514E+02 -0.11495067288E+03  0.16263365800E+03  0.74398074077E+02 0.  0.
         -6    2    1    2    0  502 -0.27826384667E+02  0.18615586721E+02 -0.33500859765E+03  0.37776316423E+03  0.17132833974E+03 0.  0.
        -24    2    5    5    0    0 -0.19562680883E+02 -0.72244783473E+01 -0.34011485154E+03  0.34976027881E+03  0.78862214187E+02 0.  0.
          5    1    3    3  501    0 -0.32929592955E+02  0.44706504794E+02 -0.11047457774E+03  0.12373258257E+03  0.47000000000E+01 0. -1.
        -11    1    4    4    0    0  0.77403176608E+02 -0.59640614195E+02 -0.10174225347E+03  0.14106644091E+03  0.00000000000E+00 0.  1.
         12    1    4    4    0    0 -0.16647198986E+02 -0.36814773190E+01 -0.13208419414E+02  0.21567217084E+02  0.00000000000E+00 0. -1.
         -5    1    5    5    0  502 -0.82637037846E+01  0.25840065068E+02  0.51062538901E+01  0.28002885418E+02  0.47000000000E+01 0.  1.
         13    1    6    6    0    0 -0.35644089361E+02  0.26362757825E+02 -0.18538637727E+03  0.19061375864E+03  0.00000000000E+00 0. -1.
        -14    1    6    6    0    0  0.16081408479E+02 -0.33587236173E+02 -0.15472847427E+03  0.15914652017E+03  0.00000000000E+00 0.  1.
</event>
<event>
12    1  0.9017558E-003  0.1916833E+03  0.7818608E-02  0.1157151E+00
         21   -1    0    0  501  502  0.00000000000E+00  0.00000000000E+00  0.12974543270E+03  0.12974543270E+03  0.00000000000E+00 0.  1.
         21   -1    0    0  502  503 -0.00000000000E+00 -0.00000000000E+00 -0.28670796328E+03  0.28670796328E+03  0.00000000000E+00 0. -1.
          6    2    1    2  501    0 -0.64602910075E+02 -0.54169875886E+02 -0.51262978220E+02  0.19755874530E+03  0.17115388825E+03 0.  0.
         24    2    3    3    0    0 -0.80675884683E+02 -0.92798370664E+02 -0.49651324375E+02  0.15542575882E+03  0.81066494462E+02 0.  0.
         -6    2    1    2    0  503  0.64602910075E+02  0.54169875886E+02 -0.10569955236E+03  0.21889465069E+03  0.17214691774E+03 0.  0.
        -24    2    5    5    0    0  0.20335706611E+02 -0.67247004457E+00 -0.12093884622E+03  0.14663405086E+03  0.80382505361E+02 0.  0.
          5    1    3    3  501    0  0.16072974608E+02  0.38628494778E+02 -0.16116538450E+01  0.42132986479E+02  0.47000000000E+01 0. -1.
        -13    1    4    4    0    0  0.11322923427E+02  0.46949516302E+01 -0.94570040283E+01  0.15481798698E+02  0.00000000000E+00 0.  1.
         14    1    4    4    0    0 -0.91998808109E+02 -0.97493322295E+02 -0.40194320347E+02  0.13994396012E+03  0.00000000000E+00 0. -1.
         -5    1    5    5    0  503  0.44267203464E+02  0.54842345931E+02  0.15239293865E+02  0.72260599826E+02  0.47000000000E+01 0.  1.
         11    1    6    6    0    0 -0.10904098301E+02  0.22402828281E+02 -0.64498350422E+01  0.25736869406E+02  0.00000000000E+00 0. -1.
        -12    1    6    6    0    0  0.31239804912E+02 -0.23075298326E+02 -0.11448901118E+03  0.12089718146E+03  0.00000000000E+00 0.  1.
</event>
<event>
12    1  0.9017558E-003  0.2475224E+03  0.7818608E-02  0.1115258E+00
         21   -1    0    0  503  502  0.00000000000E+00  0.00000000000E+00  0.88084918407E+03  0.88084918407E+03  0.00000000000E+00 0.  1.
         21   -1    0    0  501  503 -0.00000000000E+00 -0.00000000000E+00 -0.72345366947E+02  0.72345366947E+02  0.00000000000E+00 0. -1.
          6    2    1    2  501    0 -0.10753126457E+03 -0.13631273947E+03  0.29837598330E+03  0.38618685806E+03  0.17311246669E+03 0.  0.
         24    2    3    3    0    0 -0.16261042895E+02 -0.24238278534E+01  0.87301202205E+02  0.12004564135E+03  0.80741313108E+02 0.  0.
         -6    2    1    2    0  502  0.10753126457E+03  0.13631273947E+03  0.51012783382E+03  0.56700769296E+03  0.17641763300E+03 0.  0.
        -24    2    5    5    0    0  0.51201503203E+02  0.11020666246E+02  0.30842842801E+03  0.32292597318E+03  0.80062724980E+02 0.  0.
          5    1    3    3  501    0 -0.91270221672E+02 -0.13388891161E+03  0.21107478109E+03  0.26614121671E+03  0.47000000000E+01 0. -1.
        -13    1    4    4    0    0  0.60520108025E+01 -0.46973259841E+01  0.95766682807E+02  0.96072624831E+02  0.00000000000E+00 0.  1.
         14    1    4    4    0    0 -0.22313053698E+02  0.22734981307E+01 -0.84654806014E+01  0.23973016516E+02  0.00000000000E+00 0. -1.
         -5    1    5    5    0  502  0.56329761364E+02  0.12529207322E+03  0.20169940581E+03  0.24408171978E+03  0.47000000000E+01 0.  1.
         13    1    6    6    0    0 -0.12823289214E+02 -0.50490380089E+01  0.93607283579E+01  0.16659914960E+02  0.00000000000E+00 0. -1.
        -14    1    6    6    0    0  0.64024792418E+02  0.16069704254E+02  0.29906769965E+03  0.30626605822E+03  0.00000000000E+00 0.  1.
</event>
<event>
12    1  0.9017558E-003  0.1885162E+03  0.7818608E-02  0.1160618E+00
         21   -1    0    0  501  502  0.00000000000E+00  0.00000000000E+00  0.95363263448E+03  0.95363263448E+03  0.00000000000E+00 0.  1.
         21   -1    0    0  502  503 -0.00000000000E+00 -0.00000000000E+00 -0.37527854771E+02  0.37527854771E+02  0.00000000000E+00 0.  1.
          6    2    1    2  501    0 -0.15650022191E+02  0.68474636011E+02  0.54135758726E+03  0.57324201717E+03  0.17494191605E+03 0.  0.
         24    2    3    3    0    0  0.16572513346E+02  0.83186876525E+02  0.51721455065E+03  0.53011756895E+03  0.79492395110E+02 0.  0.
         -6    2    1    2    0  503  0.15650022191E+02 -0.68474636011E+02  0.37474719244E+03  0.41791847208E+03  0.17113355045E+03 0.  0.
        -24    2    5    5    0    0 -0.32175716542E+02  0.11317231831E+01  0.26550321958E+03  0.27975667514E+03  0.82068752566E+02 0.  0.
          5    1    3    3  501    0 -0.32222535537E+02 -0.14712240514E+02  0.24143036613E+02  0.43124448220E+02  0.47000000000E+01 0. -1.
        -13    1    4    4    0    0  0.26721731108E+02  0.87695771788E+02  0.32781852150E+03  0.34039621376E+03  0.00000000000E+00 0.  1.
         14    1    4    4    0    0 -0.10149217762E+02 -0.45088952628E+01  0.18939602915E+03  0.18972135519E+03  0.00000000000E+00 0. -1.
         -5    1    5    5    0  503  0.47825738733E+02 -0.69606359194E+02  0.10924397286E+03  0.13816179694E+03  0.47000000000E+01 0.  1.
         11    1    6    6    0    0  0.24213694948E+02  0.12907439738E+02  0.12354881669E+03  0.12655913689E+03  0.00000000000E+00 0. -1.
        -12    1    6    6    0    0 -0.56389411490E+02 -0.11775716555E+02  0.14195440289E+03  0.15319753826E+03  0.00000000000E+00 0.  1.
</event>
<event>
12    1  0.9017558E-003  0.2264827E+03  0.7818608E-02  0.1129287E+00
         21   -1    0    0  503  502  0.00000000000E+00  0.00000000000E+00  0.12194291468E+03  0.12194291468E+03  0.00000000000E+00 0. -1.
         21   -1    0    0  501  503 -0.00000000000E+00 -0.00000000000E+00 -0.46484550856E+03  0.46484550856E+03  0.00000000000E+00 0. -1.
          6    2    1    2  501    0 -0.13937279836E+03  0.50025784427E+02 -0.26373795217E+03  0.34763792993E+03  0.17136822017E+03 0.  0.
         24    2    3    3    0    0 -0.57620388097E+02 -0.35500540156E+02 -0.15521158726E+03  0.18701952918E+03  0.79405730263E+02 0.  0.
         -6    2    1    2    0  502  0.13937279836E+03 -0.50025784427E+02 -0.79164641710E+02  0.23915049330E+03  0.17028964126E+03 0.  0.
        -24    2    5    5    0    0  0.28427669164E+02 -0.49456477790E+01 -0.86848168280E+02  0.11905816635E+03  0.76155438642E+02 0.  0.
          5    1    3    3  501    0 -0.81752410263E+02  0.85526324584E+02 -0.10852636491E+03  0.16061840076E+03  0.47000000000E+01 0. -1.
        -13    1    4    4    0    0  0.15204004483E+02 -0.19225408687E+02 -0.67768611238E+02  0.72064989840E+02  0.00000000000E+00 0.  1.
         14    1    4    4    0    0 -0.72824392580E+02 -0.16275131469E+02 -0.87442976020E+02  0.11495453934E+03  0.00000000000E+00 0. -1.
         -5    1    5    5    0  502  0.11094512920E+03 -0.45080136649E+02  0.76835265697E+01  0.12009232695E+03  0.47000000000E+01 0.  1.
         11    1    6    6    0    0  0.41633994863E+02  0.24520623966E+02 -0.43571777276E+02  0.65062664432E+02  0.00000000000E+00 0. -1.
        -12    1    6    6    0    0 -0.13206325699E+02 -0.29466271745E+02 -0.43276391003E+02  0.53995501917E+02  0.00000000000E+00 0.  1.
</event>
<event>
12    1  0.9017558E-003  0.2169146E+03  0.7818608E-02  0.1136261E+00
         21   -1    0    0  501  502  0.00000000000E+00  0.00000000000E+00  0.51179157656E+02  0.51179157656E+02  0.00000000000E+00 0. -1.
         21   -1    0    0  502  503 -0.00000000000E+00 -0.00000000000E+00 -0.10530367932E+04  0.10530367932E+04  0.00000000000E+00 0.  1.
          6    2    1    2  501    0  0.19044013681E+02 -0.13016246537E+03 -0.69826875275E+03  0.73109643468E+03  0.17209823902E+03 0.  0.
         24    2    3    3    0    0  0.14528964312E+02 -0.39995262466E+01 -0.37053777292E+03  0.37985982209E+03  0.82268804917E+02 0.  0.
         -6    2    1    2    0  503 -0.19044013681E+02  0.13016246537E+03 -0.30358888276E+03  0.37311951615E+03  0.17247324937E+03 0.  0.
        -24    2    5    5    0    0 -0.29264130483E+02  0.12282043247E+03 -0.31951713283E+03  0.35228312048E+03  0.77916306610E+02 0.  0.
          5    1    3    3  501    0  0.45150493687E+01 -0.12616293912E+03 -0.32773097984E+03  0.35123661259E+03  0.47000000000E+01 0. -1.
        -13    1    4    4    0    0  0.47248802502E+02  0.13061452589E+01 -0.26681198874E+03  0.27096640509E+03  0.00000000000E+00 0.  1.
         14    1    4    4    0    0 -0.32719838190E+02 -0.53056715055E+01 -0.10372578418E+03  0.10889341700E+03  0.00000000000E+00 0. -1.
         -5    1    5    5    0  503  0.10220116802E+02  0.73420329040E+01  0.15928250067E+02  0.20836395677E+02  0.47000000000E+01 0.  1.
         13    1    6    6    0    0 -0.55193745568E+02  0.97974069305E+02 -0.24289627089E+03  0.26766371853E+03  0.00000000000E+00 0. -1.
        -14    1    6    6    0    0  0.25929615085E+02  0.24846363161E+02 -0.76620861940E+02  0.84619401944E+02  0.00000000000E+00 0.  1.
</event>
<event>
12    1  0.9017558E-003  0.1862583E+03  0.7818608E-02  0.1162246E+00
         21   -1    0    0  501  502  0.00000000000E+00  0.00000000000E+00  0.28320521497E+03  0.28320521497E+03  0.00000000000E+00 0.  1.
         21   -1    0    0  502  503 -0.00000000000E+00 -0.00000000000E+00 -0.12198544541E+03  0.12198544541E+03  0.00000000000E+00 0.  1.
          6    2    1    2  501    0  0.48805672409E+02  0.47583760673E+02  0.67722831468E+02  0.19818814207E+03  0.17333767569E+03 0.  0.
         24    2    3    3    0    0  0.64400857309E+02  0.27918981267E+02 -0.18515512681E+02  0.10824896627E+03  0.80299903811E+02 0.  0.
         -6    2    1    2    0  503 -0.48805672409E+02 -0.47583760673E+02  0.93496938093E+02  0.20700251831E+03  0.17164544042E+03 0.  0.
        -24    2    5    5    0    0 -0.58327095913E+02  0.22258544251E+02  0.16817862915E+02  0.10274142474E+03  0.79846521118E+02 0.  0.
          5    1    3    3  501    0 -0.15595184900E+02  0.19664779405E+02  0.86238344149E+02  0.89939175795E+02  0.47000000000E+01 0. -1.
        -13    1    4    4    0    0  0.52113816953E+02 -0.41691345460E+01  0.20593460353E+02  0.56190054365E+02  0.00000000000E+00 0.  1.
         14    1    4    4    0    0  0.12287040356E+02  0.32088115813E+02 -0.39108973034E+02  0.52058911907E+02  0.00000000000E+00 0. -1.
         -5    1    5    5    0  503  0.95214235048E+01 -0.69842304924E+02  0.76679075178E+02  0.10426109357E+03  0.47000000000E+01 0.  1.
         11    1    6    6    0    0  0.14686080981E+01 -0.23731367147E+02  0.13253684186E+02  0.27221218579E+02  0.00000000000E+00 0. -1.
        -12    1    6    6    0    0 -0.59795704012E+02  0.45989911398E+02  0.35641787283E+01  0.75520206161E+02  0.00000000000E+00 0.  1.
</event>
<event>
12    1  0.9017558E-003  0.2646831E+03  0.7818608E-02  0.1104456E+00
         21   -1    0    0  503  502  0.00000000000E+00  0.00000000000E+00  0.36364426404E+03  0.36364426404E+03  0.00000000000E+00 0.  1.
         21   -1    0    0  501  503 -0.00000000000E+00 -0.00000000000E+00 -0.31676378037E+03  0.31676378037E+03  0.00000000000E+00 0.  1.
          6    2    1    2  501    0 -0.20050946536E+03 -0.18017550988E+02 -0.18992795696E+03  0.32525262216E+03  0.17084484641E+03 0.  0.
         24    2    3    3    0    0 -0.15896155205E+03 -0.51409287054E+02 -0.76090897128E+02  0.19946628216E+03  0.78008225655E+02 0.  0.
         -6    2    1    2    0  502  0.20050946536E+03  0.18017550988E+02  0.23680844063E+03  0.35515542226E+03  0.17183846650E+03 0.  0.
        -24    2    5    5    0    0  0.18233796000E+03  0.68604332171E+02  0.18099867774E+03  0.27752781332E+03  0.79419643472E+02 0.  0.
          5    1    3    3  501    0 -0.41547913312E+02  0.33391736066E+02 -0.11383705983E+03  0.12578633999E+03  0.47000000000E+01 0. -1.
        -13    1    4    4    0    0 -0.11798355055E+03  0.81708785436E+00 -0.47571410781E+02  0.12721566318E+03  0.00000000000E+00 0.  1.
         14    1    4    4    0    0 -0.40978001493E+02 -0.52226374908E+02 -0.28519486347E+02  0.72250618987E+02  0.00000000000E+00 0. -1.
         -5    1    5    5    0  502  0.18171505356E+02 -0.50586781183E+02  0.55809762885E+02  0.77627608946E+02  0.47000000000E+01 0.  1.
         13    1    6    6    0    0  0.10811077298E+03  0.59165763184E+02  0.15563393223E+03  0.19852064786E+03  0.00000000000E+00 0. -1.
        -14    1    6    6    0    0  0.74227187026E+02  0.94385689879E+01  0.25364745517E+02  0.79007165457E+02  0.00000000000E+00 0.  1.
</event>
<event>
12    1  0.9017558E-003  0.1829598E+03  0.7818608E-02  0.1165381E+00
         21   -1    0    0  501  502  0.00000000000E+00  0.00000000000E+00  0.30818731170E+02  0.30818731170E+02  0.00000000000E+00 0.  1.
         21   -1    0    0  502  503 -0.00000000000E+00 -0.00000000000E+00 -0.10759246819E+04  0.10759246819E+04  0.00000000000E+00 0.  1.
          6    2    1    2  501    0 -0.29622845571E+02  0.48510475878E+02 -0.51820303505E+03  0.54897914131E+03  0.17208408644E+03 0.  0.
         24    2    3    3    0    0  0.37590867740E+02  0.93641102950E+01 -0.36445235312E+03  0.37660894844E+03  0.86648845640E+02 0.  0.
         -6    2    1    2    0  503  0.29622845571E+02 -0.48510475878E+02 -0.52690291571E+03  0.55776427180E+03  0.17390664466E+03 0.  0.
        -24    2    5    5    0    0 -0.37670486465E+01 -0.96101789870E+02 -0.34095201716E+03  0.36288060169E+03  0.78640373874E+02 0.  0.
          5    1    3    3  501    0 -0.67213713311E+02  0.39146365583E+02 -0.15375068194E+03  0.17237019287E+03  0.47000000000E+01 0. -1.
        -11    1    4    4    0    0 -0.11198917663E+02 -0.17569515949E+02 -0.24690230518E+02  0.32306518391E+02  0.00000000000E+00 0.  1.
         12    1    4    4    0    0  0.48789785403E+02  0.26933626244E+02 -0.33976212260E+03  0.34430243005E+03  0.00000000000E+00 0. -1.
         -5    1    5    5    0  503  0.33389894218E+02  0.47591313992E+02 -0.18595089855E+03  0.19488367011E+03  0.47000000000E+01 0.  1.
         11    1    6    6    0    0 -0.23712619553E+02 -0.15134686961E+02 -0.30794801148E+02  0.41709313747E+02  0.00000000000E+00 0. -1.
        -12    1    6    6    0    0  0.19945570907E+02 -0.80967102908E+02 -0.31015721602E+03  0.32117128794E+03  0.00000000000E+00 0.  1.
</event>
<event>
12    1  0.9017558E-003  0.3218772E+03  0.7818608E-02  0.1074890E+00
         21   -1    0    0  503  502  0.00000000000E+00  0.00000000000E+00  0.31408129084E+03  0.31408129084E+03  0.00000000000E+00 0. -1.
         21   -1    0    0  501  503 -0.00000000000E+00 -0.00000000000E+00 -0.42070980865E+03  0.42070980865E+03  0.00000000000E+00 0. -1.
          6    2    1    2  501    0  0.10643884987E+03  0.24943130475E+03 -0.22483218289E+03  0.39189603596E+03  0.17172008617E+03 0.  0.
         24    2    3    3    0    0 -0.18166568866E+01  0.16388519527E+03 -0.13295460038E+03  0.22606186651E+03  0.81027058814E+02 0.  0.
         -6    2    1    2    0  502 -0.10643884987E+03 -0.24943130475E+03  0.11820366507E+03  0.34289506353E+03  0.17337737340E+03 0.  0.
        -24    2    5    5    0    0 -0.12099843434E+03 -0.21621680996E+03  0.50193448430E+02  0.26567677728E+03  0.81697231880E+02 0.  0.
          5    1    3    3  501    0  0.10825550675E+03  0.85546109479E+02 -0.91877582512E+02  0.16583416945E+03  0.47000000000E+01 0. -1.
        -13    1    4    4    0    0  0.17966947596E+02  0.13362359194E+03 -0.66328598117E+02  0.15025830578E+03  0.00000000000E+00 0.  1.
         14    1    4    4    0    0 -0.19783604483E+02  0.30261603327E+02 -0.66626002258E+02  0.75803560729E+02  0.00000000000E+00 0. -1.
         -5    1    5    5    0  502  0.14559584471E+02 -0.33214494784E+02  0.68010216642E+02  0.77218286250E+02  0.47000000000E+01 0.  1.
         11    1    6    6    0    0 -0.90127200079E+02 -0.18566696576E+03  0.70010922561E+02  0.21793729292E+03  0.00000000000E+00 0. -1.
        -12    1    6    6    0    0 -0.30871234260E+02 -0.30549844199E+02 -0.19817474131E+02  0.47739484353E+02  0.00000000000E+00 0.  1.
</event>
<event>
12    1  0.9017558E-003  0.2038782E+03  0.7818608E-02  0.1148279E+00
         21   -1    0    0  501  502  0.00000000000E+00  0.00000000000E+00  0.19704829650E+03  0.19704829650E+03  0.00000000000E+00 0. -1.
         21   -1    0    0  502  503 -0.00000000000E+00 -0.00000000000E+00 -0.24891879189E+03  0.24891879189E+03  0.00000000000E+00 0. -1.
          6    2    1    2  501    0  0.96771550943E+02  0.17098824206E+02 -0.12283493910E+03  0.23802259846E+03  0.17863155447E+03 0.  0.
         24    2    3    3    0    0  0.13860414472E+03  0.15374682138E+02 -0.10484636875E+03  0.19221193124E+03  0.80654669339E+02 0.  0.
         -6    2    1    2    0  503 -0.96771550943E+02 -0.17098824206E+02  0.70964443704E+02  0.20794448993E+03  0.16896110724E+03 0.  0.
        -24    2    5    5    0    0 -0.54901131339E+02 -0.66552395161E+02  0.94011058086E+01  0.11844073419E+03  0.80600689829E+02 0.  0.
          5    1    3    3  501    0 -0.41832593778E+02  0.17241420678E+01 -0.17988570349E+02  0.45810667221E+02  0.47000000000E+01 0. -1.
        -13    1    4    4    0    0  0.43497803905E+02 -0.31766718487E+02 -0.24981072453E+02  0.59373709072E+02  0.00000000000E+00 0.  1.
         14    1    4    4    0    0  0.95106340816E+02  0.47141400625E+02 -0.79865296294E+02  0.13283822217E+03  0.00000000000E+00 0. -1.
         -5    1    5    5    0  503 -0.41870419605E+02  0.49453570955E+02  0.61563337895E+02  0.89503755736E+02  0.47000000000E+01 0.  1.
         13    1    6    6    0    0 -0.63323287625E+02 -0.49862678481E+02  0.34057317356E+02  0.87498721856E+02  0.00000000000E+00 0. -1.
        -14    1    6    6    0    0  0.84221562865E+01 -0.16689716680E+02 -0.24656211547E+02  0.30942012333E+02  0.00000000000E+00 0.  1.
</event>
<event>
12    1  0.9017558E-003  0.1923799E+03  0.7818608E-02  0.1156631E+00
         21   -1    0    0  503  502  0.00000000000E+00  0.00000000000E+00  0.30346548064E+03  0.30346548064E+03  0.00000000000E+00 0.  1.
         21   -1    0    0  501  503 -0.00000000000E+00 -0.00000000000E+00 -0.14759088059E+03  0.14759088059E+03  0.00000000000E+00 0.  1.
          6    2    1    2  501    0  0.79465371516E+02  0.30970414076E+02  0.17324341868E+03  0.25789394573E+03  0.17094470834E+03 0.  0.
         24    2    3    3    0    0  0.94065892725E+02  0.26063449088E+02  0.19378436893E+03  0.23179271661E+03  0.81533957811E+02 0.  0.
         -6    2    1    2    0  502 -0.79465371516E+02 -0.30970414076E+02 -0.17368818633E+02  0.19316241549E+03  0.17244167442E+03 0.  0.
        -24    2    5    5    0    0 -0.66322478909E+02  0.26360937363E+02  0.36559444997E+02  0.11322514570E+03  0.79936039256E+02 0.  0.
          5    1    3    3  501    0 -0.14600521209E+02  0.49069649881E+01 -0.20540950248E+02  0.26101229129E+02  0.47000000000E+01 0. -1.
        -13    1    4    4    0    0  0.58133203362E+02  0.28885604547E+02  0.45705639847E+02  0.79390509489E+02  0.00000000000E+00 0.  1.
         14    1    4    4    0    0  0.35932689364E+02 -0.28221554594E+01  0.14807872909E+03  0.15240220712E+03  0.00000000000E+00 0. -1.
         -5    1    5    5    0  502 -0.13142892607E+02 -0.57331351439E+02 -0.53928263629E+02  0.79937269793E+02  0.47000000000E+01 0.  1.
         11    1    6    6    0    0 -0.80670033855E+02  0.53381212760E+01  0.21519444267E+02  0.83661439042E+02  0.00000000000E+00 0. -1.
        -12    1    6    6    0    0  0.14347554946E+02  0.21022816087E+02  0.15040000729E+02  0.29563706654E+02  0.00000000000E+00 0.  1.
</event>
<event>
12    1  0.9017558E-003  0.1986542E+03  0.7818608E-02  0.1153367E+00
         21   -1    0    0  501  502  0.00000000000E+00  0.00000000000E+00  0.55863902028E+02  0.55863902028E+02  0.00000000000E+00 0.  1.
         21   -1    0    0  502  503 -0.00000000000E+00 -0.00000000000E+00 -0.67671052083E+03  0.67671052083E+03  0.00000000000E+00 0. -1.
          6    2    1    2  501    0  0.46157350666E+02  0.56017697670E+02 -0.34595958125E+03  0.39341901605E+03  0.17269049441E+03 0.  0.
         24    2    3    3    0    0  0.15751786299E+02 -0.21575925946E+02 -0.86471413464E+02  0.12083605989E+03  0.80065027760E+02 0.  0.
         -6    2    1    2    0  503 -0.46157350666E+02 -0.56017697670E+02 -0.27488703756E+03  0.33915540682E+03  0.18491896355E+03 0.  0.
        -24    2    5    5    0    0 -0.67002822308E+02 -0.10102777594E+03 -0.17494962116E+03  0.22748617189E+03  0.80290713939E+02 0.  0.
          5    1    3    3  501    0  0.30405564367E+02  0.77593623615E+02 -0.25948816778E+03  0.27258295616E+03  0.47000000000E+01 0. -1.
        -13    1    4    4    0    0 -0.90207235781E+01  0.11659750898E+02  0.86378139104E+01  0.17086107632E+02  0.00000000000E+00 0.  1.
         14    1    4    4    0    0  0.24772509877E+02 -0.33235676844E+02 -0.95109227375E+02  0.10374995225E+03  0.00000000000E+00 0. -1.
         -5    1    5    5    0  503  0.20845471642E+02  0.45010078272E+02 -0.99937416397E+02  0.11166923493E+03  0.47000000000E+01 0.  1.
         13    1    6    6    0    0 -0.25112661189E+02  0.73782730626E+01 -0.52512808110E+02  0.58674352838E+02  0.00000000000E+00 0. -1.
        -14    1    6    6    0    0 -0.41890161119E+02 -0.10840604900E+03 -0.12243681305E+03  0.16881181905E+03  0.00000000000E+00 0.  1.
</event>
<event>
12    1  0.9017558E-003  0.1924685E+03  0.7818608E-02  0.1157704E+00
         21   -1    0    0  501  502  0.00000000000E+00  0.00000000000E+00  0.26395194935E+03  0.26395194935E+03  0.00000000000E+00 0. -1.
         21   -1    0    0  502  503 -0.00000000000E+00 -0.00000000000E+00 -0.22065803528E+03  0.22065803528E+03  0.00000000000E+00 0. -1.
          6    2    1    2  501    0 -0.19198263912E+02 -0.67264774824E+02  0.17221180366E+03  0.25826545148E+03  0.17930704068E+03 0.  0.
         24    2    3    3    0    0 -0.58308041926E+02 -0.99397801939E+02  0.11715716718E+03  0.18333075213E+03  0.81268764438E+02 0.  0.
         -6    2    1    2    0  503  0.19198263912E+02  0.67264774824E+02 -0.12891788958E+03  0.22634453315E+03  0.17239171142E+03 0.  0.
        -24    2    5    5    0    0  0.47070090684E+02  0.68057809715E+02 -0.15081061257E+03  0.19058353552E+03  0.82041356921E+02 0.  0.
          5    1    3    3  501    0  0.39109778015E+02  0.32133027115E+02  0.55054636477E+02  0.74934699342E+02  0.47000000000E+01 0. -1.
        -13    1    4    4    0    0 -0.40774757479E+02 -0.27215554987E+01  0.48732995583E+02  0.63599469890E+02  0.00000000000E+00 0.  1.
         14    1    4    4    0    0 -0.17533284447E+02 -0.96676246440E+02  0.68424171596E+02  0.11973128224E+03  0.00000000000E+00 0. -1.
         -5    1    5    5    0  503 -0.27871826772E+02 -0.79303489071E+00  0.21892722992E+02  0.35760997636E+02  0.47000000000E+01 0.  1.
         13    1    6    6    0    0  0.36292420462E+02 -0.80456527742E+01 -0.68690671066E+02  0.78104293115E+02  0.00000000000E+00 0. -1.
        -14    1    6    6    0    0  0.10777670222E+02  0.76103462489E+02 -0.82119941508E+02  0.11247924240E+03  0.00000000000E+00 0.  1.
</event>
<event>
12    1  0.9017558E-003  0.2534650E+03  0.7818608E-02  0.1111957E+00
         21   -1    0    0  501  502  0.00000000000E+00  0.00000000000E+00  0.19797966039E+03  0.19797966039E+03  0.00000000000E+00 0. -1.
         21   -1    0    0  502  503 -0.00000000000E+00 -0.00000000000E+00 -0.31799097315E+03  0.31799097315E+03  0.00000000000E+00 0. -1.
          6    2    1    2  501    0  0.17870854196E+03  0.19064376728E+02 -0.66502133123E+02  0.26204400380E+03  0.17872977589E+03 0.  0.
         24    2    3    3    0    0  0.14093491088E+03  0.65347605947E+02 -0.48027305573E+01  0.17603301155E+03  0.82653470738E+02 0.  0.
         -6    2    1    2    0  503 -0.17870854196E+03 -0.19064376728E+02 -0.53509179629E+02  0.25392662974E+03  0.17121713570E+03 0.  0.
        -24    2    5    5    0    0 -0.89990873509E+02  0.31486773574E+02 -0.80755475041E+02  0.14814055265E+03  0.79588958823E+02 0.  0.
          5    1    3    3  501    0  0.37773631071E+02 -0.46283229218E+02 -0.61699402566E+02  0.86010992252E+02  0.47000000000E+01 0. -1.
        -13    1    4    4    0    0  0.13796347986E+02 -0.55827703549E+01  0.23407985337E+02  0.27738787286E+02  0.00000000000E+00 0.  1.
         14    1    4    4    0    0  0.12713856290E+03  0.70930376302E+02 -0.28210715894E+02  0.14829422426E+03  0.00000000000E+00 0. -1.
         -5    1    5    5    0  503 -0.88717668447E+02 -0.50551150303E+02  0.27246295412E+02  0.10578607709E+03  0.47000000000E+01 0.  1.
         13    1    6    6    0    0 -0.55013639758E+02  0.62444764459E+01  0.13618943350E+01  0.55383651032E+02  0.00000000000E+00 0. -1.
        -14    1    6    6    0    0 -0.34977233751E+02  0.25242297128E+02 -0.82117369376E+02  0.92756901622E+02  0.00000000000E+00 0.  1.
</event>
<event>
12    1  0.9017558E-003  0.1733384E+03  0.7818608E-02  0.1174468E+00
         21   -1    0    0  503  502  0.00000000000E+00  0.00000000000E+00  0.10417668924E+03  0.10417668924E+03  0.00000000000E+00 0.  1.
         21   -1    0    0  501  503 -0.00000000000E+00 -0.00000000000E+00 -0.31814028551E+03  0.31814028551E+03  0.00000000000E+00 0.  1.
          6    2    1    2  501    0 -0.25944629059E+00 -0.19011902379E+02 -0.17199224943E+03  0.24418750819E+03  0.17229244193E+03 0.  0.
         24    2    3    3    0    0  0.32289394012E+02  0.34168899596E+02 -0.46878253347E+02  0.10431890299E+03  0.80465795336E+02 0.  0.
         -6    2    1    2    0  502  0.25944629059E+00  0.19011902379E+02 -0.41971346835E+02  0.17812946657E+03  0.17206682760E+03 0.  0.
        -24    2    5    5    0    0  0.17589672744E+01  0.22762204823E+02  0.42647011538E+02  0.93284490844E+02  0.79762251126E+02 0.  0.
          5    1    3    3  501    0 -0.32548840303E+02 -0.53180801975E+02 -0.12511399608E+03  0.13986860520E+03  0.47000000000E+01 0. -1.
        -11    1    4    4    0    0  0.43296115325E+02 -0.64813097229E+01 -0.44058722564E+02  0.62110643307E+02  0.00000000000E+00 0.  1.
         12    1    4    4    0    0 -0.11006721313E+02  0.40650209319E+02 -0.28195307834E+01  0.42208259684E+02  0.00000000000E+00 0. -1.
         -5    1    5    5    0  502 -0.14995209838E+01 -0.37503024441E+01 -0.84618358373E+02  0.84844975722E+02  0.47000000000E+01 0.  1.
         13    1    6    6    0    0  0.23351208321E+01  0.93537815838E+01 -0.23704112429E+02  0.25589665204E+02  0.00000000000E+00 0. -1.
        -14    1    6    6    0    0 -0.57615355766E+00  0.13408423240E+02  0.66351123967E+02  0.67694825640E+02  0.00000000000E+00 0.  1.
</event>
<event>
12    1  0.9017558E-003  0.1895570E+03  0.7818608E-02  0.1159435E+00
         21   -1    0    0  501  502  0.00000000000E+00  0.00000000000E+00  0.59496566073E+02  0.59496566073E+02  0.00000000000E+00 0.  1.
         21   -1    0    0  502  503 -0.00000000000E+00 -0.00000000000E+00 -0.61180466950E+03  0.61180466950E+03  0.00000000000E+00 0.  1.
          6    2    1    2  501    0  0.70602702720E+02 -0.14037077128E+02 -0.32840097602E+03  0.37793071082E+03  0.17263441130E+03 0.  0.
         24    2    3    3    0    0  0.13172341683E+02 -0.59000039967E+02 -0.11065565624E+03  0.14824608208E+03  0.77959677344E+02 0.  0.
         -6    2    1    2    0  503 -0.70602702720E+02  0.14037077128E+02 -0.22390712741E+03  0.29337052475E+03  0.17535701276E+03 0.  0.
        -24    2    5    5    0    0 -0.87384472338E+01 -0.52463692135E+02 -0.88665765769E+02  0.13039244550E+03  0.79446663686E+02 0.  0.
          5    1    3    3  501    0  0.57430361038E+02  0.44962962839E+02 -0.21774531978E+03  0.22968462874E+03  0.47000000000E+01 0. -1.
        -13    1    4    4    0    0 -0.72187596978E+01 -0.69898292663E+02 -0.10133948497E+03  0.12331898889E+03  0.00000000000E+00 0.  1.
         14    1    4    4    0    0  0.20391101381E+02  0.10898252695E+02 -0.93161712746E+01  0.24927093183E+02  0.00000000000E+00 0. -1.
         -5    1    5    5    0  503 -0.61864255487E+02  0.66500769263E+02 -0.13524136164E+03  0.16297807926E+03  0.47000000000E+01 0.  1.
         13    1    6    6    0    0  0.32440967093E+02 -0.23360458745E+02 -0.18661836539E+02  0.44117927442E+02  0.00000000000E+00 0. -1.
        -14    1    6    6    0    0 -0.41179414327E+02 -0.29103233389E+02 -0.70003929230E+02  0.86274518055E+02  0.00000000000E+00 0.  1.
</event>
<event>
12    1  0.9017558E-003  0.1791706E+03  0.7818608E-02  0.1169160E+00
         21   -1    0    0  501  502  0.00000000000E+00  0.00000000000E+00  0.95689570049E+02  0.95689570049E+02  0.00000000000E+00 0. -1.
         21   -1    0    0  502  503 -0.00000000000E+00 -0.00000000000E+00 -0.34536792229E+03  0.34536792229E+03  0.00000000000E+00 0. -1.
          6    2    1    2  501    0  0.31467260768E+02 -0.37965819013E+02 -0.79539627873E+02  0.19397594583E+03  0.16990739608E+03 0.  0.
         24    2    3    3    0    0  0.18685345541E+02 -0.72270695430E+02 -0.10333003461E+03  0.15006381362E+03  0.79182425761E+02 0.  0.
         -6    2    1    2    0  503 -0.31467260768E+02  0.37965819013E+02 -0.17013872437E+03  0.24708154651E+03  0.17225130822E+03 0.  0.
        -24    2    5    5    0    0  0.39778803991E+02  0.86451339712E+01 -0.13737193289E+03  0.16322776342E+03  0.78199509054E+02 0.  0.
          5    1    3    3  501    0  0.12781915227E+02  0.34304876417E+02  0.23790406733E+02  0.43912132212E+02  0.47000000000E+01 0. -1.
        -11    1    4    4    0    0 -0.32732500723E-01 -0.22818086280E+02 -0.93547235101E+02  0.96289933679E+02  0.00000000000E+00 0.  1.
         12    1    4    4    0    0  0.18718078041E+02 -0.49452609150E+02 -0.97827995049E+01  0.53773879937E+02  0.00000000000E+00 0. -1.
         -5    1    5    5    0  503 -0.71246064759E+02  0.29320685042E+02 -0.32766791473E+02  0.83853783089E+02  0.47000000000E+01 0.  1.
         13    1    6    6    0    0 -0.46450975235E+01 -0.14979931637E+02 -0.98246890795E+02  0.99490837938E+02  0.00000000000E+00 0. -1.
        -14    1    6    6    0    0  0.44423901514E+02  0.23625065609E+02 -0.39125042100E+02  0.63736925483E+02  0.00000000000E+00 0.  1.
</event>
<event>
12    1  0.9017558E-003  0.2361013E+03  0.7818608E-02  0.1122753E+00
         21   -1    0    0  503  502  0.00000000000E+00  0.00000000000E+00  0.35346968289E+03  0.35346968289E+03  0.00000000000E+00 0. -1.
         21   -1    0    0  501  503 -0.00000000000E+00 -0.00000000000E+00 -0.24070168932E+03  0.24070168932E+03  0.00000000000E+00 0. -1.
          6    2    1    2  501    0  0.12857534191E+03 -0.96923836345E+02 -0.11928376415E+03  0.26452304688E+03  0.17267882713E+03 0.  0.
         24    2    3    3    0    0  0.16252272642E+02 -0.74547153054E+02 -0.17870783685E+02  0.11147445835E+03  0.79282883142E+02 0.  0.
         -6    2    1    2    0  502 -0.12857534191E+03  0.96923836345E+02  0.23205175772E+03  0.32964832534E+03  0.16998279777E+03 0.  0.
        -24    2    5    5    0    0 -0.14683096363E+03  0.45422610296E+02  0.14385783839E+03  0.22579313088E+03  0.81638929925E+02 0.  0.
          5    1    3    3  501    0  0.11232306926E+03 -0.22376683291E+02 -0.10141298047E+03  0.15304858853E+03  0.47000000000E+01 0. -1.
        -13    1    4    4    0    0 -0.16960029294E+02 -0.20688926014E+02 -0.36737976614E+02  0.45446156922E+02  0.00000000000E+00 0.  1.
         14    1    4    4    0    0  0.33212301936E+02 -0.53858227040E+02  0.18867192929E+02  0.66028301424E+02  0.00000000000E+00 0. -1.
         -5    1    5    5    0  502  0.18255621726E+02  0.51501226049E+02  0.88193919330E+02  0.10385519446E+03  0.47000000000E+01 0.  1.
         13    1    6    6    0    0 -0.88918200296E+02  0.63451781846E+02  0.11504206871E+03  0.15864190032E+03  0.00000000000E+00 0. -1.
        -14    1    6    6    0    0 -0.57912763336E+02 -0.18029171550E+02  0.28815769684E+02  0.67151230565E+02  0.00000000000E+00 0.  1.
</event>
<event>
12    1  0.9017558E-003  0.2377452E+03  0.7818608E-02  0.1121307E+00
         21   -1    0    0  503  502  0.00000000000E+00  0.00000000000E+00  0.22179758743E+04  0.22179758743E+04  0.00000000000E+00 0.  1.
         21   -1    0    0  501  503 -0.00000000000E+00 -0.00000000000E+00 -0.27873267231E+02  0.27873267231E+02  0.00000000000E+00 0.  1.
          6    2    1    2  501    0  0.16309583423E+03  0.16169119689E+02  0.76618006154E+03  0.80221858760E+03  0.17222393566E+03 0.  0.
         24    2    3    3    0    0  0.13983228929E+03 -0.38527384543E+02  0.64886508161E+03  0.67062149563E+03  0.87577781324E+02 0.  0.
         -6    2    1    2    0  502 -0.16309583423E+03 -0.16169119689E+02  0.14239225456E+04  0.14436305540E+04  0.17219776133E+03 0.  0.
        -24    2    5    5    0    0 -0.83301253856E+02 -0.73538498670E+02  0.87321129991E+03  0.88419924738E+03  0.83446540329E+02 0.  0.
          5    1    3    3  501    0  0.23263544936E+02  0.54696504233E+02  0.11731497993E+03  0.13159709197E+03  0.47000000000E+01 0. -1.
        -11    1    4    4    0    0  0.12146305022E+03 -0.30328400684E+02  0.36170834195E+03  0.38276103392E+03  0.00000000000E+00 0.  1.
         12    1    4    4    0    0  0.18369239074E+02 -0.81989838594E+01  0.28715673966E+03  0.28786046171E+03  0.00000000000E+00 0. -1.
         -5    1    5    5    0  502 -0.79794580375E+02  0.57369378981E+02  0.55071124565E+03  0.55943130658E+03  0.47000000000E+01 0.  1.
         11    1    6    6    0    0 -0.29724444625E+02  0.11852300511E+02  0.34303625026E+03  0.34452559938E+03  0.00000000000E+00 0. -1.
        -12    1    6    6    0    0 -0.53576809231E+02 -0.85390799182E+02  0.53017504966E+03  0.53967364800E+03  0.00000000000E+00 0.  1.
</event>
<event>
12    1  0.9017558E-003  0.2659931E+03  0.7818608E-02  0.1103797E+00
         21   -1    0    0  501  502  0.00000000000E+00  0.00000000000E+00  0.82253509445E+02  0.82253509445E+02  0.00000000000E+00 0. -1.
         21   -1    0    0  502  503 -0.00000000000E+00 -0.00000000000E+00 -0.91189432111E+03  0.91189432111E+03  0.00000000000E+00 0.  1.
          6    2    1    2  501    0  0.52018459371E+02 -0.19488199030E+03 -0.29244637518E+03  0.39531915141E+03  0.17339965067E+03 0.  0.
         24    2    3    3    0    0  0.76334583689E+01 -0.33218582472E+02 -0.31928826985E+02  0.85486021055E+02  0.71600739486E+02 0.  0.
         -6    2    1    2    0  503 -0.52018459371E+02  0.19488199030E+03 -0.53719443648E+03  0.59882867915E+03  0.17126883583E+03 0.  0.
        -24    2    5    5    0    0 -0.38136788580E+02  0.86122597622E+02 -0.42169760425E+03  0.43950851553E+03  0.80419831701E+02 0.  0.
          5    1    3    3  501    0  0.44385001002E+02 -0.16166340783E+03 -0.26051754820E+03  0.30983313035E+03  0.47000000000E+01 0. -1.
        -11    1    4    4    0    0 -0.20976613225E+02 -0.39861004512E+02 -0.44465119948E+01  0.45262450795E+02  0.00000000000E+00 0.  1.
         12    1    4    4    0    0  0.28610071594E+02  0.66424220395E+01 -0.27482314990E+02  0.40223570259E+02  0.00000000000E+00 0. -1.
         -5    1    5    5    0  503 -0.13881670791E+02  0.10875939268E+03 -0.11549683223E+03  0.15932016362E+03  0.47000000000E+01 0.  1.
         11    1    6    6    0    0 -0.22518968220E+02  0.84311710418E+01 -0.23930404799E+02  0.33924222153E+02  0.00000000000E+00 0. -1.
        -12    1    6    6    0    0 -0.15617820360E+02  0.77691426580E+02 -0.39776719945E+03  0.40558429338E+03  0.00000000000E+00 0.  1.
</event>
<event>
12    1  0.9017558E-003  0.1829464E+03  0.7818608E-02  0.1165103E+00
         21   -1    0    0  503  502  0.00000000000E+00  0.00000000000E+00  0.42344550522E+03  0.42344550522E+03  0.00000000000E+00 0.  1.
         21   -1    0    0  501  503 -0.00000000000E+00 -0.00000000000E+00 -0.94943492021E+02  0.94943492021E+02  0.00000000000E+00 0. -1.
          6    2    1    2  501    0  0.53752531161E+02  0.29047001123E+02  0.57630186379E+02  0.19180885910E+03  0.17244227198E+03 0.  0.
         24    2    3    3    0    0  0.60493030638E+02  0.75327175914E+02  0.21363240803E+02  0.13243992570E+03  0.88036104376E+02 0.  0.
         -6    2    1    2    0  502 -0.53752531161E+02 -0.29047001123E+02  0.27087182682E+03  0.32658013814E+03  0.17190106801E+03 0.  0.
        -24    2    5    5    0    0 -0.80925045795E+02 -0.51406276203E+02  0.12631290505E+03  0.17772566358E+03  0.80249568492E+02 0.  0.
          5    1    3    3  501    0 -0.67404994765E+01 -0.46280174792E+02  0.36266945576E+02  0.59368933403E+02  0.47000000000E+01 0. -1.
        -11    1    4    4    0    0 -0.48314041034E+00  0.25509097658E+02  0.43691718340E+02  0.50595590119E+02  0.00000000000E+00 0.  1.
         12    1    4    4    0    0  0.60976171048E+02  0.49818078257E+02 -0.22328477537E+02  0.81844335577E+02  0.00000000000E+00 0. -1.
         -5    1    5    5    0  502  0.27172514634E+02  0.22359275080E+02  0.14455892178E+03  0.14885447457E+03  0.47000000000E+01 0.  1.
         11    1    6    6    0    0  0.19445829608E+01 -0.41314129018E+02  0.46448508080E+02  0.62194071762E+02  0.00000000000E+00 0. -1.
        -12    1    6    6    0    0 -0.82869628756E+02 -0.10092147185E+02  0.79864396966E+02  0.11553159182E+03  0.00000000000E+00 0.  1.
</event>
<event>
12    1  0.9017558E-003  0.1738605E+03  0.7818608E-02  0.1174059E+00
         21   -1    0    0  503  502  0.00000000000E+00  0.00000000000E+00  0.24705343568E+03  0.24705343568E+03  0.00000000000E+00 0.  1.
         21   -1    0    0  501  503 -0.00000000000E+00 -0.00000000000E+00 -0.14543672375E+03  0.14543672375E+03  0.00000000000E+00 0.  1.
          6    2    1    2  501    0 -0.10411044941E+02 -0.82199176952E+01 -0.28121212515E+02  0.17612003950E+03  0.17335371014E+03 0.  0.
         24    2    3    3    0    0  0.15747474336E+02 -0.64002297119E+02 -0.42744947004E+02  0.11262290890E+03  0.80700137110E+02 0.  0.
         -6    2    1    2    0  502  0.10411044941E+02  0.82199176952E+01  0.12973792444E+03  0.21637011993E+03  0.17265034856E+03 0.  0.
        -24    2    5    5    0    0 -0.25158386182E+02  0.61766915543E+02  0.52494984818E+02  0.11576680423E+03  0.78728224156E+02 0.  0.
          5    1    3    3  501    0 -0.26158519276E+02  0.55782379424E+02  0.14623734489E+02  0.63497130607E+02  0.47000000000E+01 0. -1.
        -11    1    4    4    0    0 -0.41814596246E+01 -0.55438192766E+02  0.91808667780E+01  0.56348612553E+02  0.00000000000E+00 0.  1.
         12    1    4    4    0    0  0.19928933960E+02 -0.85641043524E+01 -0.51925813782E+02  0.56274296344E+02  0.00000000000E+00 0. -1.
         -5    1    5    5    0  502  0.35569431123E+02 -0.53546997848E+02  0.77242939622E+02  0.10060331570E+03  0.47000000000E+01 0.  1.
         11    1    6    6    0    0 -0.34465896500E+02  0.99862277828E+01  0.51968818232E+02  0.63153628837E+02  0.00000000000E+00 0. -1.
        -12    1    6    6    0    0  0.93075103183E+01  0.51780687760E+02  0.52616658668E+00  0.52613175389E+02  0.00000000000E+00 0.  1.
</event>
<event>
12    1  0.9017558E-003  0.2007288E+03  0.7818608E-02  0.1151791E+00
         21   -1    0    0  501  502  0.00000000000E+00  0.00000000000E+00  0.17494880598E+03  0.17494880598E+03  0.00000000000E+00 0. -1.
         21   -1    0    0  502  503 -0.00000000000E+00 -0.00000000000E+00 -0.32686361237E+03  0.32686361237E+03  0.00000000000E+00 0. -1.
          6    2    1    2  501    0  0.28661131132E+02  0.68259537988E+02  0.68242112815E+02  0.21201183808E+03  0.18657762074E+03 0.  0.
         24    2    3    3    0    0 -0.65857400541E+01  0.25158873995E+02  0.11557424020E+03  0.13878322722E+03  0.72298258949E+02 0.  0.
         -6    2    1    2    0  503 -0.28661131132E+02 -0.68259537988E+02 -0.22015691921E+03  0.28980058028E+03  0.17330459397E+03 0.  0.
        -24    2    5    5    0    0  0.56997612803E+01 -0.74767553903E+02 -0.66573903974E+02  0.13221613382E+03  0.86176255178E+02 0.  0.
          5    1    3    3  501    0  0.35246871187E+02  0.43100663992E+02 -0.47332127386E+02  0.73228610856E+02  0.47000000000E+01 0. -1.
        -13    1    4    4    0    0  0.26192711844E+02 -0.71324696395E+01  0.23723027606E+02  0.36051523070E+02  0.00000000000E+00 0.  1.
         14    1    4    4    0    0 -0.32778451898E+02  0.32291343635E+02  0.91851212595E+02  0.10273170415E+03  0.00000000000E+00 0. -1.
         -5    1    5    5    0  503 -0.34360892413E+02  0.65080159151E+01 -0.15358301523E+03  0.15758444646E+03  0.47000000000E+01 0.  1.
         11    1    6    6    0    0 -0.25001640020E+02  0.22916977283E+01 -0.35832913216E+02  0.43753074768E+02  0.00000000000E+00 0. -1.
        -12    1    6    6    0    0  0.30701401301E+02 -0.77059251631E+02 -0.30740990758E+02  0.88463059050E+02  0.00000000000E+00 0.  1.
</event>
<event>
12    1  0.9017558E-003  0.2003811E+03  0.7818608E-02  0.1150512E+00
         21   -1    0    0  503  502  0.00000000000E+00  0.00000000000E+00  0.33633591161E+03  0.33633591161E+03  0.00000000000E+00 0.  1.
         21   -1    0    0  501  503 -0.00000000000E+00 -0.00000000000E+00 -0.12227965890E+03  0.12227965890E+03  0.00000000000E+00 0.  1.
          6    2    1    2  501    0  0.57172758360E+02  0.87536801850E+02  0.15885191824E+03  0.25570786015E+03  0.17094198384E+03 0.  0.
         24    2    3    3    0    0 -0.30768368763E+02  0.38321097123E+02  0.43764545926E+02  0.10266204774E+03  0.78796964182E+02 0.  0.
         -6    2    1    2    0  502 -0.57172758360E+02 -0.87536801850E+02  0.55204334474E+02  0.20290771036E+03  0.16490180230E+03 0.  0.
        -24    2    5    5    0    0  0.22443926594E+02 -0.10888660632E+02  0.37323640692E+02  0.90856100438E+02  0.78990404867E+02 0.  0.
          5    1    3    3  501    0  0.87941127123E+02  0.49215704727E+02  0.11508737231E+03  0.15304581242E+03  0.47000000000E+01 0. -1.
        -11    1    4    4    0    0 -0.16109696156E+02 -0.14107465879E+02  0.43204378227E+02  0.48219925360E+02  0.00000000000E+00 0.  1.
         12    1    4    4    0    0 -0.14658672606E+02  0.52428563002E+02  0.56016769948E+00  0.54442122377E+02  0.00000000000E+00 0. -1.
         -5    1    5    5    0  502 -0.79616684954E+02 -0.76648141218E+02  0.17880693782E+02  0.11205160992E+03  0.47000000000E+01 0.  1.
         13    1    6    6    0    0  0.41535524492E+02 -0.32379334833E+02  0.31989194727E+02  0.61619231562E+02  0.00000000000E+00 0. -1.
        -14    1    6    6    0    0 -0.19091597898E+02  0.21490674201E+02  0.53344459654E+01  0.29236868876E+02  0.00000000000E+00 0.  1.
</event>
<event>
12    1  0.9017558E-003  0.1803081E+03  0.7818608E-02  0.1167687E+00
         21   -1    0    0  503  502  0.00000000000E+00  0.00000000000E+00  0.11568202549E+04  0.11568202549E+04  0.00000000000E+00 0.  1.
         21   -1    0    0  501  503 -0.00000000000E+00 -0.00000000000E+00 -0.44081424949E+02  0.44081424949E+02  0.00000000000E+00 0.  1.
          6    2    1    2  501    0 -0.41568660809E+02  0.37210240169E+02  0.19281664473E+03  0.26347550649E+03  0.17067081913E+03 0.  0.
         24    2    3    3    0    0 -0.18881018839E+02  0.20253037130E+01  0.18515332522E+02  0.84155272589E+02  0.79866749268E+02 0.  0.
         -6    2    1    2    0  502  0.41568660809E+02 -0.37210240169E+02  0.91992218526E+03  0.93742617339E+03  0.17145975647E+03 0.  0.
        -24    2    5    5    0    0 -0.24018001734E+02 -0.10450190101E+02  0.22836770565E+03  0.24223742287E+03  0.76427018611E+02 0.  0.
          5    1    3    3  501    0 -0.22687641970E+02  0.35184936456E+02  0.17430131220E+03  0.17932023390E+03  0.47000000000E+01 0. -1.
        -13    1    4    4    0    0 -0.37261539708E+02 -0.20237335743E+02  0.31177320231E+02  0.52630764731E+02  0.00000000000E+00 0.  1.
         14    1    4    4    0    0  0.18380520869E+02  0.22262639456E+02 -0.12661987708E+02  0.31524507858E+02  0.00000000000E+00 0. -1.
         -5    1    5    5    0  502  0.65586662542E+02 -0.26760050068E+02  0.69155447961E+03  0.69518875052E+03  0.47000000000E+01 0.  1.
         13    1    6    6    0    0 -0.31508488836E+01 -0.41254506335E+02  0.14800744671E+03  0.15368170491E+03  0.00000000000E+00 0. -1.
        -14    1    6    6    0    0 -0.20867152850E+02  0.30804316234E+02  0.80360258935E+02  0.88555717957E+02  0.00000000000E+00 0.  1.
</event>
<event>
12    1  0.9017558E-003  0.2263405E+03  0.7818608E-02  0.1129628E+00
         21   -1    0    0  503  502  0.00000000000E+00  0.00000000000E+00  0.31077773259E+03  0.31077773259E+03  0.00000000000E+00 0.  1.
         21   -1    0    0  501  503 -0.00000000000E+00 -0.00000000000E+00 -0.17231250239E+03  0.17231250239E+03  0.00000000000E+00 0.  1.
          6    2    1    2  501    0 -0.42926375448E+02  0.13960767657E+03  0.14283365394E+02  0.22679074619E+03  0.17290763709E+03 0.  0.
         24    2    3    3    0    0 -0.75436195020E+02  0.12530735342E+03  0.52730427160E+02  0.17423930311E+03  0.78652936759E+02 0.  0.
         -6    2    1    2    0  502  0.42926375448E+02 -0.13960767657E+03  0.12418186480E+03  0.25629948880E+03  0.17010383695E+03 0.  0.
        -24    2    5    5    0    0 -0.34592322466E+02 -0.78204844896E+02  0.10064004143E+03  0.15453621590E+03  0.80252087487E+02 0.  0.
          5    1    3    3  501    0  0.32509819573E+02  0.14300323147E+02 -0.38447061766E+02  0.52551443075E+02  0.47000000000E+01 0. -1.
        -13    1    4    4    0    0 -0.16981441607E+02  0.17927924839E+02 -0.20179738077E+02  0.31890463730E+02  0.00000000000E+00 0.  1.
         14    1    4    4    0    0 -0.58454753413E+02  0.10737942858E+03  0.72910165237E+02  0.14234883938E+03  0.00000000000E+00 0. -1.
         -5    1    5    5    0  502  0.77518697913E+02 -0.61402831669E+02  0.23541823370E+02  0.10176327290E+03  0.47000000000E+01 0.  1.
         11    1    6    6    0    0  0.69724002759E+01  0.95083803748E+01 -0.33782085593E+01  0.12265233631E+02  0.00000000000E+00 0. -1.
        -12    1    6    6    0    0 -0.41564722742E+02 -0.87713225271E+02  0.10401824999E+03  0.14227098227E+03  0.00000000000E+00 0.  1.
</event>
<event>
12    1  0.9017558E-003  0.2225392E+03  0.7818608E-02  0.1132293E+00
         21   -1    0    0  501  502  0.00000000000E+00  0.00000000000E+00  0.72649613876E+03  0.72649613876E+03  0.00000000000E+00 0. -1.
         21   -1    0    0  502  503 -0.00000000000E+00 -0.00000000000E+00 -0.69461026422E+02  0.69461026422E+02  0.00000000000E+00 0. -1.
          6    2    1    2  501    0 -0.13317516343E+03 -0.45560492365E+02  0.39321123172E+03  0.45181718001E+03  0.17237258708E+03 0.  0.
         24    2    3    3    0    0 -0.10033338180E+03 -0.67287707953E+02  0.38458470756E+03  0.41123194332E+03  0.81313533760E+02 0.  0.
         -6    2    1    2    0  503  0.13317516343E+03  0.45560492365E+02  0.26382388061E+03  0.34413998517E+03  0.17034643170E+03 0.  0.
        -24    2    5    5    0    0  0.16175889756E+03  0.33839963339E+02  0.19092314083E+03  0.26482410707E+03  0.79806503012E+02 0.  0.
          5    1    3    3  501    0 -0.32841781629E+02  0.21727215588E+02  0.86265241629E+01  0.40585236687E+02  0.47000000000E+01 0. -1.
        -13    1    4    4    0    0 -0.12224763640E+02  0.15860628549E+02  0.26542816736E+02  0.33249443669E+02  0.00000000000E+00 0.  1.
         14    1    4    4    0    0 -0.88108618159E+02 -0.83148336503E+02  0.35804189082E+03  0.37798249965E+03  0.00000000000E+00 0. -1.
         -5    1    5    5    0  503 -0.28583734135E+02  0.11720529026E+02  0.72900739784E+02  0.79315878100E+02  0.47000000000E+01 0.  1.
         13    1    6    6    0    0  0.58897101192E+02 -0.26143592985E+02  0.65795039704E+02  0.92094208465E+02  0.00000000000E+00 0. -1.
        -14    1    6    6    0    0  0.10286179637E+03  0.59983556324E+02  0.12512810113E+03  0.17272989861E+03  0.00000000000E+00 0.  1.
</event>
<event>
12    1  0.9017558E-003  0.2220056E+03  0.7818608E-02  0.1132496E+00
         21   -1    0    0  501  502  0.00000000000E+00  0.00000000000E+00  0.19935359190E+02  0.19935359190E+02  0.00000000000E+00 0. -1.
         21   -1    0    0  502  503 -0.00000000000E+00 -0.00000000000E+00 -0.27428507428E+04  0.27428507428E+04  0.00000000000E+00 0. -1.
          6    2    1    2  501    0 -0.12209596109E+03 -0.68656950285E+02 -0.17986034516E+04  0.18121867910E+04  0.17153830178E+03 0.  0.
         24    2    3    3    0    0 -0.84388994817E+02  0.23458318171E+02 -0.11297260868E+04  0.11359279226E+04  0.79871265367E+02 0.  0.
         -6    2    1    2    0  503  0.12209596109E+03  0.68656950285E+02 -0.92431193201E+03  0.95059931095E+03  0.17223618025E+03 0.  0.
        -24    2    5    5    0    0  0.34765098902E+02  0.95569470538E+02 -0.57562568392E+03  0.59010638059E+03  0.80860847248E+02 0.  0.
          5    1    3    3  501    0 -0.37706966271E+02 -0.92115268456E+02 -0.66887736477E+03  0.67625886840E+03  0.47000000000E+01 0. -1.
        -11    1    4    4    0    0 -0.12176418042E+02 -0.13107798290E+01 -0.19151113853E+02  0.22732102013E+02  0.00000000000E+00 0.  1.
         12    1    4    4    0    0 -0.72212576776E+02  0.24769098000E+02 -0.11105749730E+04  0.11131958206E+04  0.00000000000E+00 0. -1.
         -5    1    5    5    0  503  0.87330862186E+02 -0.26912520252E+02 -0.34868624809E+03  0.36049293036E+03  0.47000000000E+01 0.  1.
         11    1    6    6    0    0  0.57922628726E+02  0.44958991671E+02 -0.29147267213E+03  0.30055392270E+03  0.00000000000E+00 0. -1.
        -12    1    6    6    0    0 -0.23157529825E+02  0.50610478867E+02 -0.28415301179E+03  0.28955245789E+03  0.00000000000E+00 0.  1.
</event>
<event>
12    1  0.9017558E-003  0.2458205E+03  0.7818608E-02  0.1116057E+00
         21   -1    0    0  503  502  0.00000000000E+00  0.00000000000E+00  0.67241831534E+02  0.67241831534E+02  0.00000000000E+00 0.  1.
         21   -1    0    0  501  503 -0.00000000000E+00 -0.00000000000E+00 -0.94094083194E+03  0.94094083194E+03  0.00000000000E+00 0. -1.
          6    2    1    2  501    0 -0.18415024581E+02  0.17538666479E+03 -0.32723378899E+03  0.40897321943E+03  0.17052139525E+03 0.  0.
         24    2    3    3    0    0 -0.16676526947E+02  0.15797911869E+03 -0.15511417143E+03  0.23590300887E+03  0.79713956877E+02 0.  0.
         -6    2    1    2    0  502  0.18415024581E+02 -0.17538666479E+03 -0.54646521141E+03  0.59920944404E+03  0.17125459184E+03 0.  0.
        -24    2    5    5    0    0  0.30002816497E+02 -0.19850747297E+03 -0.51353311647E+03  0.55707321770E+03  0.79428724960E+02 0.  0.
          5    1    3    3  501    0 -0.17384976344E+01  0.17407546096E+02 -0.17211961757E+03  0.17307021057E+03  0.47000000000E+01 0. -1.
        -11    1    4    4    0    0 -0.29794079662E+02  0.15347342022E+03 -0.15739782075E+03  0.22184646014E+03  0.00000000000E+00 0.  1.
         12    1    4    4    0    0  0.13117552715E+02  0.45056984697E+01  0.22836493259E+01  0.14056548729E+02  0.00000000000E+00 0. -1.
         -5    1    5    5    0  502 -0.11587791916E+02  0.23120808184E+02 -0.32932094940E+02  0.42136226334E+02  0.47000000000E+01 0.  1.
         13    1    6    6    0    0 -0.10535130690E+02 -0.98714607286E+02 -0.16798992531E+03  0.19513118069E+03  0.00000000000E+00 0. -1.
        -14    1    6    6    0    0  0.40537947188E+02 -0.99792865685E+02 -0.34554319116E+03  0.36194203701E+03  0.00000000000E+00 0.  1.
</event>
<event>
12    1  0.9017558E-003  0.2643067E+03  0.7818608E-02  0.1104659E+00
         21   -1    0    0  501  502  0.00000000000E+00  0.00000000000E+00  0.43363187682E+03  0.43363187682E+03  0.00000000000E+00 0.  1.
         21   -1    0    0  502  503 -0.00000000000E+00 -0.00000000000E+00 -0.19950807593E+03  0.19950807593E+03  0.00000000000E+00 0. -1.
          6    2    1    2  501    0  0.77292347670E+02 -0.18439358833E+03 -0.22497801618E+02  0.26474794737E+03  0.17207621024E+03 0.  0.
         24    2    3    3    0    0  0.97572407647E+02 -0.66977318546E+02  0.14878073007E+01  0.14311217681E+03  0.80452132644E+02 0.  0.
         -6    2    1    2    0  503 -0.77292347670E+02  0.18439358833E+03  0.25662160251E+03  0.36839200538E+03  0.17286677044E+03 0.  0.
        -24    2    5    5    0    0 -0.14273743650E+02  0.14297247848E+02  0.81167176359E+02  0.11598270453E+03  0.80347533736E+02 0.  0.
          5    1    3    3  501    0 -0.20280059976E+02 -0.11741626979E+03 -0.23985608919E+02  0.12163577056E+03  0.47000000000E+01 0. -1.
        -13    1    4    4    0    0 -0.13302404215E+02 -0.15814622433E-01 -0.24493678949E+01  0.13526034566E+02  0.00000000000E+00 0.  1.
         14    1    4    4    0    0  0.11087481186E+03 -0.66961503923E+02  0.39371751956E+01  0.12958614224E+03  0.00000000000E+00 0. -1.
         -5    1    5    5    0  503 -0.63018604020E+02  0.17009634049E+03  0.17545442615E+03  0.25240930085E+03  0.47000000000E+01 0.  1.
         11    1    6    6    0    0 -0.13908108411E+02  0.44628171307E+02  0.27220957043E+02  0.54093342068E+02  0.00000000000E+00 0. -1.
        -12    1    6    6    0    0 -0.36563523857E+00 -0.30330923459E+02  0.53946219316E+02  0.61889362458E+02  0.00000000000E+00 0.  1.
</event>
<event>
12    1  0.9017558E-003  0.2198461E+03  0.7818608E-02  0.1134170E+00
         21   -1    0    0  503  502  0.00000000000E+00  0.00000000000E+00  0.11274637493E+04  0.11274637493E+04  0.00000000000E+00 0.  1.
         21   -1    0    0  501  503 -0.00000000000E+00 -0.00000000000E+00 -0.42970265141E+02  0.42970265141E+02  0.00000000000E+00 0.  1.
          6    2    1    2  501    0  0.37279552341E+00  0.13611448109E+03  0.49602880383E+03  0.54256508283E+03  0.17264125791E+03 0.  0.
         24    2    3    3    0    0  0.42838217939E+02  0.14043014368E+03  0.45381575037E+03  0.48234906397E+03  0.71806309337E+02 0.  0.
         -6    2    1    2    0  502 -0.37279552341E+00 -0.13611448109E+03  0.58846468031E+03  0.62786893160E+03  0.17146843544E+03 0.  0.
        -24    2    5    5    0    0  0.57785938592E+01  0.11117027817E+01  0.25643811176E+03  0.26851868831E+03  0.79417584797E+02 0.  0.
          5    1    3    3  501    0 -0.42465422415E+02 -0.43156625854E+01  0.42213053463E+02  0.60216018858E+02  0.47000000000E+01 0. -1.
        -11    1    4    4    0    0  0.37072289313E+02  0.24517805165E+02  0.88369795383E+02  0.98917633115E+02  0.00000000000E+00 0.  1.
         12    1    4    4    0    0  0.57659286261E+01  0.11591233851E+03  0.36544595499E+03  0.38343143086E+03  0.00000000000E+00 0. -1.
         -5    1    5    5    0  502 -0.61513893826E+01 -0.13722618387E+03  0.33202656855E+03  0.35935024329E+03  0.47000000000E+01 0.  1.
         11    1    6    6    0    0  0.14276140899E+02  0.15704403697E+02  0.13848399080E+02  0.25341954375E+02  0.00000000000E+00 0. -1.
        -12    1    6    6    0    0 -0.84975470400E+01 -0.14592700916E+02  0.24258971268E+03  0.24317673393E+03  0.00000000000E+00 0.  1.
</event>
<event>
12    1  0.9017558E-003  0.1775022E+03  0.7818608E-02  0.1171584E+00
         21   -1    0    0  501  502  0.00000000000E+00  0.00000000000E+00  0.12101738999E+03  0.12101738999E+03  0.00000000000E+00 0.  1.
         21   -1    0    0  502  503 -0.00000000000E+00 -0.00000000000E+00 -0.27326595153E+03  0.27326595153E+03  0.00000000000E+00 0.  1.
          6    2    1    2  501    0  0.33647775912E+02 -0.16293505681E+02 -0.20777721238E+02  0.17339510786E+03  0.16803719404E+03 0.  0.
         24    2    3    3    0    0  0.80317420730E+02 -0.32974927868E+02  0.51689492879E+01  0.11725559143E+03  0.78637915442E+02 0.  0.
         -6    2    1    2    0  503 -0.33647775912E+02  0.16293505681E+02 -0.13147084030E+03  0.22088823365E+03  0.17352054278E+03 0.  0.
        -24    2    5    5    0    0 -0.38882793594E+02 -0.10068964896E+02 -0.76391995546E+01  0.94086220596E+02  0.84738443722E+02 0.  0.
          5    1    3    3  501    0 -0.46669644818E+02  0.16681422187E+02 -0.25946670526E+02  0.56139516430E+02  0.47000000000E+01 0. -1.
        -13    1    4    4    0    0  0.47828376774E+02 -0.37179185351E+02 -0.31337948935E+02  0.68204930113E+02  0.00000000000E+00 0.  1.
         14    1    4    4    0    0  0.32489043955E+02  0.42042574832E+01  0.36506898223E+02  0.49050661321E+02  0.00000000000E+00 0. -1.
         -5    1    5    5    0  503  0.52350176819E+01  0.26362470576E+02 -0.12383164075E+03  0.12680201306E+03  0.47000000000E+01 0.  1.
         13    1    6    6    0    0 -0.30035885164E+02  0.25719417109E+02  0.23353141883E+02  0.45923981206E+02  0.00000000000E+00 0. -1.
        -14    1    6    6    0    0 -0.88469084298E+01 -0.35788382005E+02 -0.30992341437E+02  0.48162239390E+02  0.00000000000E+00 0.  1.
</event>
<event>
12    1  0.9017558E-003  0.2034206E+03  0.7818608E-02  0.1147401E+00
         21   -1    0    0  503  502  0.00000000000E+00  0.00000000000E+00  0.24332228464E+02  0.24332228464E+02  0.00000000000E+00 0. -1.
         21   -1    0    0  501  503 -0.00000000000E+00 -0.00000000000E+00 -0.17728836122E+04  0.17728836122E+04  0.00000000000E+00 0. -1.
          6    2    1    2  501    0  0.76127002913E+02  0.75852812188E+02 -0.10851438466E+04  0.11040457864E+04  0.17271641759E+03 0.  0.
         24    2    3    3    0    0  0.19607073476E+01 -0.15424601592E+02 -0.50910094681E+03  0.51610045042E+03  0.83271472782E+02 0.  0.
         -6    2    1    2    0  502 -0.76127002913E+02 -0.75852812188E+02 -0.66340753713E+03  0.69317005428E+03  0.16978278519E+03 0.  0.
        -24    2    5    5    0    0 -0.59456618179E+02 -0.76731391624E+02 -0.21383287399E+03  0.24326101752E+03  0.63471479727E+02 0.  0.
          5    1    3    3  501    0  0.74166295565E+02  0.91277413781E+02 -0.57604289983E+03  0.58794533598E+03  0.47000000000E+01 0. -1.
        -13    1    4    4    0    0  0.14734898166E+02 -0.20035875320E+02 -0.42066911406E+02  0.48868993841E+02  0.00000000000E+00 0.  1.
         14    1    4    4    0    0 -0.12774190819E+02  0.46112737273E+01 -0.46703403540E+03  0.46723145658E+03  0.00000000000E+00 0. -1.
         -5    1    5    5    0  502 -0.16670384734E+02  0.87857943570E+00 -0.44957466313E+03  0.44990903676E+03  0.47000000000E+01 0.  1.
         13    1    6    6    0    0 -0.59966811713E+02 -0.44156706643E+02 -0.18620594669E+03  0.20054547572E+03  0.00000000000E+00 0. -1.
        -14    1    6    6    0    0  0.51019353400E+00 -0.32574684981E+02 -0.27626927301E+02  0.42715541799E+02  0.00000000000E+00 0.  1.
</event>
<event>
12    1  0.9017558E-003  0.1882551E+03  0.7818608E-02  0.1162276E+00
         21   -1    0    0  503  502  0.00000000000E+00  0.00000000000E+00  0.28507195726E+02  0.28507195726E+02  0.00000000000E+00 0. -1.
         21   -1    0    0  501  503 -0.00000000000E+00 -0.00000000000E+00 -0.11824536728E+04  0.11824536728E+04  0.00000000000E+00 0.  1.
          6    2    1    2  501    0 -0.13215400764E+02  0.75014417199E+02 -0.54220336463E+03  0.57090648432E+03  0.16170317135E+03 0.  0.
         24    2    3    3    0    0  0.19733278042E+02  0.80474908793E+02 -0.23829956745E+03  0.26513689731E+03  0.81518570039E+02 0.  0.
         -6    2    1    2    0  502  0.13215400764E+02 -0.75014417199E+02 -0.61174311243E+03  0.64005438418E+03  0.17215739747E+03 0.  0.
        -24    2    5    5    0    0 -0.24473892848E+02 -0.98039587033E+02 -0.54678998108E+03  0.56136740577E+03  0.77093117742E+02 0.  0.
          5    1    3    3  501    0 -0.32948678806E+02 -0.54604915947E+01 -0.30390379718E+03  0.30576958701E+03  0.47000000000E+01 0. -1.
        -13    1    4    4    0    0 -0.66677070703E+01  0.66711188940E+02 -0.22045826651E+03  0.23042718659E+03  0.00000000000E+00 0.  1.
         14    1    4    4    0    0  0.26400985112E+02  0.13763719854E+02 -0.17841300941E+02  0.34709710721E+02  0.00000000000E+00 0. -1.
         -5    1    5    5    0  502  0.37689293612E+02  0.23025169834E+02 -0.64953131350E+02  0.78686978408E+02  0.47000000000E+01 0.  1.
         13    1    6    6    0    0 -0.79519952811E+01 -0.33578789413E+02 -0.53860870628E+02  0.63966887623E+02  0.00000000000E+00 0. -1.
        -14    1    6    6    0    0 -0.16521897567E+02 -0.64460797619E+02 -0.49292911045E+03  0.49740051815E+03  0.00000000000E+00 0.  1.
</event>
<event>
12    1  0.9017558E-003  0.3722357E+03  0.7818608E-02  0.1053867E+00
         21   -1    0    0  503  502  0.00000000000E+00  0.00000000000E+00  0.70693004342E+03  0.70693004342E+03  0.00000000000E+00 0.  1.
         21   -1    0    0  501  503 -0.00000000000E+00 -0.00000000000E+00 -0.19604868131E+03  0.19604868131E+03  0.00000000000E+00 0.  1.
          6    2    1    2  501    0  0.31488837339E+03  0.99024481355E+02  0.26948963807E+03  0.45954772167E+03  0.17204333135E+03 0.  0.
         24    2    3    3    0    0  0.11032577819E+03  0.98272871704E+02  0.11763133440E+03  0.20473513433E+03  0.79057003181E+02 0.  0.
         -6    2    1    2    0  502 -0.31488837339E+03 -0.99024481355E+02  0.24139172403E+03  0.44343100305E+03  0.17146589875E+03 0.  0.
        -24    2    5    5    0    0 -0.19195034534E+03 -0.96307613651E+02  0.82807255422E+02  0.24270167337E+03  0.76986811740E+02 0.  0.
          5    1    3    3  501    0  0.20456259520E+03  0.75160965085E+00  0.15185830367E+03  0.25481258734E+03  0.47000000000E+01 0. -1.
        -13    1    4    4    0    0  0.77273010308E+02  0.16504561276E+02  0.48932376660E+02  0.92940282712E+02  0.00000000000E+00 0.  1.
         14    1    4    4    0    0  0.33052767884E+02  0.81768310428E+02  0.68698957738E+02  0.11179485162E+03  0.00000000000E+00 0. -1.
         -5    1    5    5    0  502 -0.12293802805E+03 -0.27168677040E+01  0.15858446861E+03  0.20072932968E+03  0.47000000000E+01 0.  1.
         13    1    6    6    0    0 -0.24799131428E+02  0.12880746116E+02  0.15807422394E+02  0.32105842815E+02  0.00000000000E+00 0. -1.
        -14    1    6    6    0    0 -0.16715121391E+03 -0.10918835977E+03  0.66999833028E+02  0.21059583055E+03  0.00000000000E+00 0.  1.
</event>
<event>
12    1  0.9017558E-003  0.1906455E+03  0.7818608E-02  0.1157984E+00
         21   -1    0    0  503  502  0.00000000000E+00  0.00000000000E+00  0.45076284502E+03  0.45076284502E+03  0.00000000000E+00 0.  1.
         21   -1    0    0  501  503 -0.00000000000E+00 -0.00000000000E+00 -0.11614466957E+03  0.11614466957E+03  0.00000000000E+00 0.  1.
          6    2    1    2  501    0  0.71860231399E+02  0.41999285645E+02  0.10280051842E+02  0.19092244328E+03  0.17151637540E+03 0.  0.
         24    2    3    3    0    0  0.46514342421E+02  0.11094117273E+02 -0.60115095281E+02  0.10983538970E+03  0.78506844677E+02 0.  0.
         -6    2    1    2    0  502 -0.71860231399E+02 -0.41999285645E+02  0.32433812361E+03  0.37598507131E+03  0.17100211278E+03 0.  0.
        -24    2    5    5    0    0 -0.85390223617E+02 -0.37690023914E+02  0.12007644045E+03  0.17117648840E+03  0.78555779164E+02 0.  0.
          5    1    3    3  501    0  0.25345888978E+02  0.30905168372E+02  0.70395147123E+02  0.81087053582E+02  0.47000000000E+01 0. -1.
        -11    1    4    4    0    0 -0.14132267104E+02 -0.10941697236E+01  0.92255212514E+01  0.16912374856E+02  0.00000000000E+00 0.  1.
         12    1    4    4    0    0  0.60646609526E+02  0.12188286997E+02 -0.69340616532E+02  0.92923014845E+02  0.00000000000E+00 0. -1.
         -5    1    5    5    0  502  0.13529992218E+02 -0.43092617315E+01  0.20426168316E+03  0.20480858291E+03  0.47000000000E+01 0.  1.
         13    1    6    6    0    0 -0.76646738240E+02  0.35495831906E+01  0.58201115230E+02  0.96305201509E+02  0.00000000000E+00 0. -1.
        -14    1    6    6    0    0 -0.87434853767E+01 -0.41239607104E+02  0.61875325217E+02  0.74871286896E+02  0.00000000000E+00 0.  1.
</event>
<event>
12    1  0.9017558E-003  0.1750449E+03  0.7818608E-02  0.1172749E+00
         21   -1    0    0  503  502  0.00000000000E+00  0.00000000000E+00  0.11624407804E+03  0.11624407804E+03  0.00000000000E+00 0. -1.
         21   -1    0    0  501  503 -0.00000000000E+00 -0.00000000000E+00 -0.26324945015E+03  0.26324945015E+03  0.00000000000E+00 0. -1.
          6    2    1    2  501    0 -0.21356134307E+02 -0.19628101853E+02 -0.71240222221E+02  0.18875528361E+03  0.17237181027E+03 0.  0.
         24    2    3    3    0    0 -0.72927916435E+02  0.16533999635E+02 -0.59877946968E+02  0.12457945020E+03  0.79641802710E+02 0.  0.
         -6    2    1    2    0  502  0.21356134307E+02  0.19628101853E+02 -0.75765149888E+02  0.19073824458E+03  0.17262494939E+03 0.  0.
        -24    2    5    5    0    0  0.64744090271E+02 -0.26375502739E+02 -0.67294462388E+02  0.12676411774E+03  0.81566736532E+02 0.  0.
          5    1    3    3  501    0  0.51571782128E+02 -0.36162101487E+02 -0.11362275253E+02  0.64175833417E+02  0.47000000000E+01 0. -1.
        -11    1    4    4    0    0  0.52719079130E+01 -0.19884318202E+02 -0.19358372152E+01  0.20662201943E+02  0.00000000000E+00 0.  1.
         12    1    4    4    0    0 -0.78199824348E+02  0.36418317837E+02 -0.57942109753E+02  0.10391724825E+03  0.00000000000E+00 0. -1.
         -5    1    5    5    0  502 -0.43387955964E+02  0.46003604591E+02 -0.84706874995E+01  0.63974126839E+02  0.47000000000E+01 0.  1.
         11    1    6    6    0    0 -0.16297519746E+02 -0.84880482449E+00  0.28718271419E+01  0.16570365435E+02  0.00000000000E+00 0. -1.
        -12    1    6    6    0    0  0.81041610017E+02 -0.25526697914E+02 -0.70166289530E+02  0.11019375230E+03  0.00000000000E+00 0.  1.
</event>
<event>
12    1  0.9017558E-003  0.1747595E+03  0.7818608E-02  0.1173189E+00
         21   -1    0    0  501  502  0.00000000000E+00  0.00000000000E+00  0.39752709010E+03  0.39752709010E+03  0.00000000000E+00 0.  1.
         21   -1    0    0  502  503 -0.00000000000E+00 -0.00000000000E+00 -0.76987370176E+02  0.76987370176E+02  0.00000000000E+00 0.  1.
          6    2    1    2  501    0 -0.26147809364E+02  0.12260425010E+02  0.14085594618E+03  0.22445774032E+03  0.17235676273E+03 0.  0.
         24    2    3    3    0    0 -0.58774950920E+02  0.46074675103E+02  0.47281443360E+02  0.11964261043E+03  0.80631562078E+02 0.  0.
         -6    2    1    2    0  503  0.26147809364E+02 -0.12260425010E+02  0.17968377374E+03  0.25005671996E+03  0.17148783832E+03 0.  0.
        -24    2    5    5    0    0 -0.34654827779E+02  0.15449876174E+02  0.15297394880E+03  0.17794343253E+03  0.82602544789E+02 0.  0.
          5    1    3    3  501    0  0.32627141556E+02 -0.33814250093E+02  0.93574502823E+02  0.10481512989E+03  0.47000000000E+01 0. -1.
        -11    1    4    4    0    0  0.18973793746E+02 -0.85103423984E+00  0.10121856295E+02  0.21521642207E+02  0.00000000000E+00 0.  1.
         12    1    4    4    0    0 -0.77748744667E+02  0.46925709343E+02  0.37159587064E+02  0.98120968225E+02  0.00000000000E+00 0. -1.
         -5    1    5    5    0  503  0.60802637143E+02 -0.27710301184E+02  0.26709824942E+02  0.72113287428E+02  0.47000000000E+01 0.  1.
         11    1    6    6    0    0  0.71090800493E+01  0.40390834311E+02  0.84770201575E+02  0.94169770046E+02  0.00000000000E+00 0. -1.
        -12    1    6    6    0    0 -0.41763907828E+02 -0.24940958137E+02  0.68203747226E+02  0.83773662482E+02  0.00000000000E+00 0.  1.
</event>
<event>
12    1  0.9017558E-003  0.2194351E+03  0.7818608E-02  0.1135542E+00
         21   -1    0    0  501  502  0.00000000000E+00  0.00000000000E+00  0.36455786530E+03  0.36455786530E+03  0.00000000000E+00 0.  1.
         21   -1    0    0  502  503 -0.00000000000E+00 -0.00000000000E+00 -0.16829422516E+03  0.16829422516E+03  0.00000000000E+00 0.  1.
          6    2    1    2  501    0  0.11596025185E+03 -0.22442882873E+02  0.22929647577E+03  0.31737777181E+03  0.18493597065E+03 0.  0.
         24    2    3    3    0    0  0.55688964943E+01 -0.87604902697E+01  0.24696456202E+02  0.84447058484E+02  0.80085154303E+02 0.  0.
         -6    2    1    2    0  503 -0.11596025185E+03  0.22442882873E+02 -0.33032835639E+02  0.21547431864E+03  0.17716532043E+03 0.  0.
        -24    2    5    5    0    0 -0.44259143658E+02 -0.23284458148E+02  0.41174974889E+02  0.10251004210E+03  0.79447418995E+02 0.  0.
          5    1    3    3  501    0  0.11039135535E+03 -0.13682392603E+02  0.20460001957E+03  0.23293071333E+03  0.47000000000E+01 0. -1.
        -11    1    4    4    0    0 -0.50425803834E+01  0.18291173371E+02  0.45108116757E+02  0.48936048446E+02  0.00000000000E+00 0.  1.
         12    1    4    4    0    0  0.10611476878E+02 -0.27051663640E+02 -0.20411660555E+02  0.35511010037E+02  0.00000000000E+00 0. -1.
         -5    1    5    5    0  503 -0.71701108190E+02  0.45727341021E+02 -0.74207810528E+02  0.11296427655E+03  0.47000000000E+01 0.  1.
         11    1    6    6    0    0 -0.33195207969E+02 -0.46503293078E+02  0.39608838817E+01  0.57272739592E+02  0.00000000000E+00 0. -1.
        -12    1    6    6    0    0 -0.11063935689E+02  0.23218834930E+02  0.37214091007E+02  0.45237302505E+02  0.00000000000E+00 0.  1.
</event>
<event>
12    1  0.9017558E-003  0.1864497E+03  0.7818608E-02  0.1162229E+00
         21   -1    0    0  503  502  0.00000000000E+00  0.00000000000E+00  0.10498823483E+04  0.10498823483E+04  0.00000000000E+00 0.  1.
         21   -1    0    0  501  503 -0.00000000000E+00 -0.00000000000E+00 -0.53288479471E+02  0.53288479471E+02  0.00000000000E+00 0.  1.
          6    2    1    2  501    0 -0.10887803637E+02 -0.63233044677E+02  0.15367934470E+03  0.23988154256E+03  0.17265240012E+03 0.  0.
         24    2    3    3    0    0  0.60396809959E+02 -0.35266553811E+02  0.94845128608E+02  0.14320074959E+03  0.81359398909E+02 0.  0.
         -6    2    1    2    0  502  0.10887803637E+02  0.63233044677E+02  0.84291452417E+03  0.86328928525E+03  0.17506151137E+03 0.  0.
        -24    2    5    5    0    0  0.25861604880E+02 -0.25055513248E+02  0.56304675486E+03  0.56940641320E+03  0.76846690803E+02 0.  0.
          5    1    3    3  501    0 -0.71284613596E+02 -0.27966490866E+02  0.58834216092E+02  0.96680792974E+02  0.47000000000E+01 0. -1.
        -13    1    4    4    0    0  0.30626879845E+02 -0.22446211790E+00 -0.70350042375E+01  0.31425267492E+02  0.00000000000E+00 0.  1.
         14    1    4    4    0    0  0.29769930114E+02 -0.35042091693E+02  0.10188013285E+03  0.11177548210E+03  0.00000000000E+00 0. -1.
         -5    1    5    5    0  502 -0.14973801243E+02  0.88288557926E+02  0.27986776931E+03  0.29388287204E+03  0.47000000000E+01 0.  1.
         13    1    6    6    0    0 -0.23464060297E+02 -0.12189458680E+02  0.95629279964E+02  0.99217459225E+02  0.00000000000E+00 0. -1.
        -14    1    6    6    0    0  0.49325665177E+02 -0.12866054568E+02  0.46741747490E+03  0.47018895398E+03  0.00000000000E+00 0.  1.
</event>
<event>
12    1  0.9017558E-003  0.2021132E+03  0.7818608E-02  0.1151719E+00
         21   -1    0    0  503  502  0.00000000000E+00  0.00000000000E+00  0.89455639694E+02  0.89455639694E+02  0.00000000000E+00 0. -1.
         21   -1    0    0  501  503 -0.00000000000E+00 -0.00000000000E+00 -0.54782259090E+03  0.54782259090E+03  0.00000000000E+00 0. -1.
          6    2    1    2  501    0 -0.43451150125E+01 -0.65768277303E+02 -0.37602531612E+03  0.41903552189E+03  0.17277553043E+03 0.  0.
         24    2    3    3    0    0  0.18285414721E+02 -0.45213338942E+02 -0.37669386076E+03  0.38809714250E+03  0.79639970346E+02 0.  0.
         -6    2    1    2    0  502  0.43451150125E+01  0.65768277303E+02 -0.82341635086E+02  0.21824270871E+03  0.19106383413E+03 0.  0.
        -24    2    5    5    0    0 -0.34604194916E+02  0.96505746590E+02 -0.11728804760E+02  0.13181295360E+03  0.82013903965E+02 0.  0.
          5    1    3    3  501    0 -0.22630529733E+02 -0.20554938361E+02  0.66854463638E+00  0.30938379385E+02  0.47000000000E+01 0. -1.
        -13    1    4    4    0    0  0.23296272467E+02  0.16506271708E+02 -0.78227927082E+02  0.83275337838E+02  0.00000000000E+00 0.  1.
         14    1    4    4    0    0 -0.50108577465E+01 -0.61719610650E+02 -0.29846593367E+03  0.30482180466E+03  0.00000000000E+00 0. -1.
         -5    1    5    5    0  502  0.38949309929E+02 -0.30737469287E+02 -0.70612830327E+02  0.86429755113E+02  0.47000000000E+01 0.  1.
         13    1    6    6    0    0 -0.50220737664E+02  0.42388541708E+02  0.17978871991E+02  0.68133331033E+02  0.00000000000E+00 0. -1.
        -14    1    6    6    0    0  0.15616542748E+02  0.54117204883E+02 -0.29707676750E+02  0.63679622562E+02  0.00000000000E+00 0.  1.
</event>
<event>
12    1  0.9017558E-003  0.1837590E+03  0.7818608E-02  0.1164287E+00
         21   -1    0    0  503  502  0.00000000000E+00  0.00000000000E+00  0.27611211161E+03  0.27611211161E+03  0.00000000000E+00 0.  1.
         21   -1    0    0  501  503 -0.00000000000E+00 -0.00000000000E+00 -0.12326044094E+03  0.12326044094E+03  0.00000000000E+00 0.  1.
          6    2    1    2  501    0  0.29343552589E+02 -0.57702361047E+02  0.95961193806E+02  0.20730635376E+03  0.17197897268E+03 0.  0.
         24    2    3    3    0    0 -0.32219559909E+02 -0.80807352478E+02  0.52669404129E+02  0.12843857515E+03  0.78450450598E+02 0.  0.
         -6    2    1    2    0  502 -0.29343552589E+02  0.57702361047E+02  0.56890476865E+02  0.19206619880E+03  0.17164583250E+03 0.  0.
        -24    2    5    5    0    0  0.28912781005E+02  0.82615693635E+02  0.43788327772E+02  0.12719532047E+03  0.81239954205E+02 0.  0.
          5    1    3    3  501    0  0.61563112498E+02  0.23104991431E+02  0.43291789678E+02  0.78867778611E+02  0.47000000000E+01 0. -1.
        -13    1    4    4    0    0 -0.42589290281E+02 -0.76725943728E+01  0.19143567816E+02  0.47320107141E+02  0.00000000000E+00 0.  1.
         14    1    4    4    0    0  0.10369730372E+02 -0.73134758105E+02  0.33525836313E+02  0.81118468006E+02  0.00000000000E+00 0. -1.
         -5    1    5    5    0  502 -0.58256333594E+02 -0.24913332588E+02  0.13102149092E+02  0.64870878330E+02  0.47000000000E+01 0.  1.
         11    1    6    6    0    0  0.90375629088E+01  0.59985821311E+02 -0.13794402274E+02  0.62211428498E+02  0.00000000000E+00 0. -1.
        -12    1    6    6    0    0  0.19875218096E+02  0.22629872323E+02  0.57582730046E+02  0.64983891968E+02  0.00000000000E+00 0.  1.
</event>
<event>
12    1  0.9017558E-003  0.1886371E+03  0.7818608E-02  0.1160457E+00
         21   -1    0    0  501  502  0.00000000000E+00  0.00000000000E+00  0.11067513098E+03  0.11067513098E+03  0.00000000000E+00 0.  1.
         21   -1    0    0  502  503 -0.00000000000E+00 -0.00000000000E+00 -0.31598222888E+03  0.31598222888E+03  0.00000000000E+00 0.  1.
          6    2    1    2  501    0  0.69713417735E+02  0.67639721142E+01 -0.10008759158E+03  0.21354505562E+03  0.17515208494E+03 0.  0.
         24    2    3    3    0    0  0.10356861659E+03  0.32471998320E+02 -0.41752571328E+02  0.14121151092E+03  0.80103212095E+02 0.  0.
         -6    2    1    2    0  503 -0.69713417735E+02 -0.67639721142E+01 -0.10521950632E+03  0.21311230424E+03  0.17158087823E+03 0.  0.
        -24    2    5    5    0    0 -0.16925609133E+02  0.22586833479E+02  0.63948476275E+01  0.86116727409E+02  0.81108294103E+02 0.  0.
          5    1    3    3  501    0 -0.33855198851E+02 -0.25708026205E+02 -0.58335020250E+02  0.72333544695E+02  0.47000000000E+01 0. -1.
        -13    1    4    4    0    0  0.22751109928E+02  0.47366812544E+02 -0.12821381606E+02  0.54088961534E+02  0.00000000000E+00 0.  1.
         14    1    4    4    0    0  0.80817506658E+02 -0.14894814224E+02 -0.28931189722E+02  0.87122549388E+02  0.00000000000E+00 0. -1.
         -5    1    5    5    0  503 -0.52787808602E+02 -0.29350805593E+02 -0.11161435395E+03  0.12699557683E+03  0.47000000000E+01 0.  1.
         13    1    6    6    0    0 -0.16688020623E+02  0.47878503482E+02 -0.15121305377E+02  0.52910254245E+02  0.00000000000E+00 0. -1.
        -14    1    6    6    0    0 -0.23758850940E+00 -0.25291670003E+02  0.21516153004E+02  0.33206473164E+02  0.00000000000E+00 0.  1.
</event>
<event>
12    1  0.9017558E-003  0.1768071E+03  0.7818608E-02  0.1172187E+00
         21   -1    0    0  501  502  0.00000000000E+00  0.00000000000E+00  0.25050375764E+02  0.25050375764E+02  0.00000000000E+00 0. -1.
         21   -1    0    0  502  503 -0.00000000000E+00 -0.00000000000E+00 -0.13570867525E+04  0.13570867525E+04  0.00000000000E+00 0. -1.
          6    2    1    2  501    0 -0.28372139979E+02 -0.37786122029E+00 -0.89981484928E+03  0.91702100486E+03  0.17451544131E+03 0.  0.
         24    2    3    3    0    0  0.29116090722E+02 -0.35573828026E+02 -0.69754836136E+03  0.70376652100E+03  0.81242573003E+02 0.  0.
         -6    2    1    2    0  503  0.28372139979E+02  0.37786122029E+00 -0.43222152744E+03  0.46511612339E+03  0.16944745011E+03 0.  0.
        -24    2    5    5    0    0  0.40077135966E+02  0.54202166521E+02 -0.35457438548E+03  0.36979964304E+03  0.80527817992E+02 0.  0.
          5    1    3    3  501    0 -0.57488230701E+02  0.35195966806E+02 -0.20226648792E+03  0.21325448386E+03  0.47000000000E+01 0. -1.
        -13    1    4    4    0    0  0.13957424043E+02  0.26146463836E+02 -0.20346758610E+03  0.20561494559E+03  0.00000000000E+00 0.  1.
         14    1    4    4    0    0  0.15158666679E+02 -0.61720291862E+02 -0.49408077526E+03  0.49815157542E+03  0.00000000000E+00 0. -1.
         -5    1    5    5    0  503 -0.11704995986E+02 -0.53824305301E+02 -0.77647141958E+02  0.95316480351E+02  0.47000000000E+01 0.  1.
         11    1    6    6    0    0 -0.19584631179E+02  0.35882558252E+02 -0.17422774485E+03  0.17895927705E+03  0.00000000000E+00 0. -1.
        -12    1    6    6    0    0  0.59661767145E+02  0.18319608269E+02 -0.18034664063E+03  0.19084036599E+03  0.00000000000E+00 0.  1.
</event>
<event>
12    1  0.9017558E-003  0.1969560E+03  0.7818608E-02  0.1152518E+00
         21   -1    0    0  503  502  0.00000000000E+00  0.00000000000E+00  0.38902726993E+02  0.38902726993E+02  0.00000000000E+00 0. -1.
         21   -1    0    0  501  503 -0.00000000000E+00 -0.00000000000E+00 -0.10436158637E+04  0.10436158637E+04  0.00000000000E+00 0.  1.
          6    2    1    2  501    0  0.18526206370E+00  0.92869359343E+02 -0.62282867278E+03  0.65322830101E+03  0.17368622679E+03 0.  0.
         24    2    3    3    0    0 -0.29981284434E+02  0.11300795309E+03 -0.33533526341E+03  0.36341778719E+03  0.77156168171E+02 0.  0.
         -6    2    1    2    0  502 -0.18526206370E+00 -0.92869359343E+02 -0.38188446392E+03  0.42929028967E+03  0.17271264227E+03 0.  0.
        -24    2    5    5    0    0 -0.50512230825E+02 -0.10628021418E+03 -0.29906903318E+03  0.33134571157E+03  0.80627071004E+02 0.  0.
          5    1    3    3  501    0  0.30166546498E+02 -0.20138593744E+02 -0.28749340937E+03  0.28981051382E+03  0.47000000000E+01 0. -1.
        -13    1    4    4    0    0 -0.16263733223E+02  0.43653252741E+02 -0.24138183842E+03  0.24583593596E+03  0.00000000000E+00 0.  1.
         14    1    4    4    0    0 -0.13717551211E+02  0.69354700346E+02 -0.93953424990E+02  0.11758185123E+03  0.00000000000E+00 0. -1.
         -5    1    5    5    0  502  0.50326968761E+02  0.13410854835E+02 -0.82815430736E+02  0.97944578105E+02  0.47000000000E+01 0.  1.
         13    1    6    6    0    0 -0.37191428226E+01 -0.87376166671E+02 -0.14619376431E+03  0.17035563756E+03  0.00000000000E+00 0. -1.
        -14    1    6    6    0    0 -0.46793088002E+02 -0.18904047506E+02 -0.15287526887E+03  0.16099007401E+03  0.00000000000E+00 0.  1.
</event>
<event>
12    1  0.9017558E-003  0.1931874E+03  0.7818608E-02  0.1155862E+00
         21   -1    0    0  501  502  0.00000000000E+00  0.00000000000E+00  0.63140165776E+02  0.63140165776E+02  0.00000000000E+00 0.  1.
         21   -1    0    0  502  503 -0.00000000000E+00 -0.00000000000E+00 -0.61009760819E+03  0.61009760819E+03  0.00000000000E+00 0.  1.
          6    2    1    2  501    0  0.67395877206E+01 -0.85884003769E+02 -0.20975126988E+03  0.28516127355E+03  0.17291579619E+03 0.  0.
         24    2    3    3    0    0  0.58703975186E+02 -0.95885280269E+02 -0.16990936990E+03  0.21875502316E+03  0.79651883254E+02 0.  0.
         -6    2    1    2    0  503 -0.67395877206E+01  0.85884003769E+02 -0.33720617253E+03  0.38807650041E+03  0.17167959469E+03 0.  0.
        -24    2    5    5    0    0  0.39757926028E+02  0.10942929914E+03 -0.21195610835E+03  0.25233384575E+03  0.72052159233E+02 0.  0.
          5    1    3    3  501    0 -0.51964387466E+02  0.10001276500E+02 -0.39841899985E+02  0.66406250389E+02  0.47000000000E+01 0. -1.
        -13    1    4    4    0    0  0.50969505989E+02 -0.95753683279E+02 -0.17743289588E+03  0.20796415783E+03  0.00000000000E+00 0.  1.
         14    1    4    4    0    0  0.77344691969E+01 -0.13159698996E+00  0.75235259796E+01  0.10790865336E+02  0.00000000000E+00 0. -1.
         -5    1    5    5    0  503 -0.46497513748E+02 -0.23545295368E+02 -0.12525006418E+03  0.13574265466E+03  0.47000000000E+01 0.  1.
         11    1    6    6    0    0 -0.43075286273E+01 -0.78702687253E+01 -0.30687734694E+02  0.31972378599E+02  0.00000000000E+00 0. -1.
        -12    1    6    6    0    0  0.44065454655E+02  0.11729956786E+03 -0.18126837366E+03  0.22036146715E+03  0.00000000000E+00 0.  1.
</event>
<event>
12    1  0.9017558E-003  0.1843717E+03  0.7818608E-02  0.1163719E+00
         21   -1    0    0  503  502  0.00000000000E+00  0.00000000000E+00  0.12091597295E+03  0.12091597295E+03  0.00000000000E+00 0.  1.
         21   -1    0    0  501  503 -0.00000000000E+00 -0.00000000000E+00 -0.28485100125E+03  0.28485100125E+03  0.00000000000E+00 0.  1.
          6    2    1    2  501    0  0.63658957128E+02 -0.23927973320E+02 -0.10681387326E+03  0.21307776926E+03  0.17137071367E+03 0.  0.
         24    2    3    3    0    0  0.85216700067E+01  0.22381966205E+02 -0.11294524486E+03  0.14065943838E+03  0.80342255380E+02 0.  0.
         -6    2    1    2    0  502 -0.63658957128E+02  0.23927973320E+02 -0.57121155034E+02  0.19268920493E+03  0.17100085560E+03 0.  0.
        -24    2    5    5    0    0 -0.85180717925E+02 -0.33559099622E+02 -0.29211766580E+02  0.12509502096E+03  0.80084137559E+02 0.  0.
          5    1    3    3  501    0  0.55137287121E+02 -0.46309939525E+02  0.61313715932E+01  0.72418330880E+02  0.47000000000E+01 0. -1.
        -11    1    4    4    0    0 -0.28024806594E+02 -0.73972825021E+01 -0.16607199349E+02  0.33405218803E+02  0.00000000000E+00 0.  1.
         12    1    4    4    0    0  0.36546476601E+02  0.29779248707E+02 -0.96338045506E+02  0.10725421958E+03  0.00000000000E+00 0. -1.
         -5    1    5    5    0  502  0.21521760797E+02  0.57487072942E+02 -0.27909388454E+02  0.67594183974E+02  0.47000000000E+01 0.  1.
         11    1    6    6    0    0 -0.43557450196E+02 -0.32767071719E+01 -0.52756199278E+02  0.68492370668E+02  0.00000000000E+00 0. -1.
        -12    1    6    6    0    0 -0.41623267729E+02 -0.30282392450E+02  0.23544432698E+02  0.56602650292E+02  0.00000000000E+00 0.  1.
</event>
<event>
12    1  0.9017558E-003  0.1925387E+03  0.7818608E-02  0.1156679E+00
         21   -1    0    0  503  502  0.00000000000E+00  0.00000000000E+00  0.20765301769E+03  0.20765301769E+03  0.00000000000E+00 0.  1.
         21   -1    0    0  501  503 -0.00000000000E+00 -0.00000000000E+00 -0.22275499110E+03  0.22275499110E+03  0.00000000000E+00 0.  1.
          6    2    1    2  501    0  0.34112533000E+02  0.77146520530E+02 -0.10557891326E+03  0.21767052026E+03  0.17064084485E+03 0.  0.
         24    2    3    3    0    0 -0.38208311598E+02  0.15162157773E+02 -0.78799614871E+02  0.11861706696E+03  0.78554841777E+02 0.  0.
         -6    2    1    2    0  502 -0.34112533000E+02 -0.77146520530E+02  0.90476939847E+02  0.21273748853E+03  0.17307776242E+03 0.  0.
        -24    2    5    5    0    0 -0.87607528926E+02 -0.31407359791E+02  0.45481023900E+02  0.12906845085E+03  0.76997662923E+02 0.  0.
          5    1    3    3  501    0  0.72320844598E+02  0.61984362757E+02 -0.26779298385E+02  0.99053453306E+02  0.47000000000E+01 0. -1.
        -11    1    4    4    0    0 -0.35184344216E+02  0.39021061046E+02 -0.22047735124E+02  0.56979679775E+02  0.00000000000E+00 0.  1.
         12    1    4    4    0    0 -0.30239673813E+01 -0.23858903273E+02 -0.56751879747E+02  0.61637387184E+02  0.00000000000E+00 0. -1.
         -5    1    5    5    0  502  0.53494995926E+02 -0.45739160739E+02  0.44995915947E+02  0.83669037679E+02  0.47000000000E+01 0.  1.
         13    1    6    6    0    0 -0.37148841112E+02 -0.49256452062E+02  0.48774124378E+01  0.61887184601E+02  0.00000000000E+00 0. -1.
        -14    1    6    6    0    0 -0.50458687814E+02  0.17849092271E+02  0.40603611462E+02  0.67181266247E+02  0.00000000000E+00 0.  1.
</event>
<event>
12    1  0.9017558E-003  0.1950772E+03  0.7818608E-02  0.1155731E+00
         21   -1    0    0  501  502  0.00000000000E+00  0.00000000000E+00  0.80386630183E+03  0.80386630183E+03  0.00000000000E+00 0.  1.
         21   -1    0    0  502  503 -0.00000000000E+00 -0.00000000000E+00 -0.46322679798E+02  0.46322679798E+02  0.00000000000E+00 0.  1.
          6    2    1    2  501    0  0.70577419660E+02  0.57481312636E+02  0.44545906541E+03  0.48630124921E+03  0.17253942321E+03 0.  0.
         24    2    3    3    0    0  0.44160226543E+01  0.46461995874E+02  0.21261755655E+03  0.24394610889E+03  0.11011476000E+03 0.  0.
         -6    2    1    2    0  503 -0.70577419660E+02 -0.57481312636E+02  0.31208455663E+03  0.36388773242E+03  0.16349996285E+03 0.  0.
        -24    2    5    5    0    0 -0.61389647374E+01 -0.80743411621E+02  0.23127396095E+03  0.25784112900E+03  0.80232271470E+02 0.  0.
          5    1    3    3  501    0  0.66161397006E+02  0.11019316762E+02  0.23284150886E+03  0.24235514033E+03  0.47000000000E+01 0. -1.
        -13    1    4    4    0    0 -0.29291984670E+02  0.32185553125E+02  0.20082592182E+03  0.20548717982E+03  0.00000000000E+00 0.  1.
         14    1    4    4    0    0  0.33708007324E+02  0.14276442749E+02  0.11791634735E+02  0.38458929068E+02  0.00000000000E+00 0. -1.
         -5    1    5    5    0  503 -0.64438454922E+02  0.23262098985E+02  0.80810595678E+02  0.10604660341E+03  0.47000000000E+01 0.  1.
         13    1    6    6    0    0 -0.57015586351E+01 -0.92007927240E+00  0.12395864117E+03  0.12409310633E+03  0.00000000000E+00 0. -1.
        -14    1    6    6    0    0 -0.43740610233E+00 -0.79823332349E+02  0.10731531978E+03  0.13374802268E+03  0.00000000000E+00 0.  1.
</event>
<event>
12    1  0.9017558E-003  0.2727978E+03  0.7818608E-02  0.1099765E+00
         21   -1    0    0  503  502  0.00000000000E+00  0.00000000000E+00  0.10547519850E+04  0.10547519850E+04  0.00000000000E+00 0.  1.
         21   -1    0    0  501  503 -0.00000000000E+00 -0.00000000000E+00 -0.74623051339E+02  0.74623051339E+02  0.00000000000E+00 0. -1.
          6    2    1    2  501    0  0.20479361648E+03 -0.51093287107E+02  0.35554493272E+03  0.44781521424E+03  0.17197475857E+03 0.  0.
         24    2    3    3    0    0  0.90675027904E+02 -0.72141124455E+02  0.26683451837E+03  0.30167250546E+03  0.79870757058E+02 0.  0.
         -6    2    1    2    0  502 -0.20479361648E+03  0.51093287107E+02  0.62458400094E+03  0.68155982210E+03  0.17282264761E+03 0.  0.
        -24    2    5    5    0    0 -0.11266374841E+03 -0.30799264122E+02  0.24962331707E+03  0.28682965225E+03  0.79484175215E+02 0.  0.
          5    1    3    3  501    0  0.11411858858E+03  0.21047837348E+02  0.88710414349E+02  0.14614270878E+03  0.47000000000E+01 0. -1.
        -13    1    4    4    0    0  0.70110623731E+02 -0.79869893514E+01  0.10646034630E+03  0.12772273444E+03  0.00000000000E+00 0.  1.
         14    1    4    4    0    0  0.20564404173E+02 -0.64154135103E+02  0.16037417207E+03  0.17394977102E+03  0.00000000000E+00 0. -1.
         -5    1    5    5    0  502 -0.92129868073E+02  0.81892551228E+02  0.37496068388E+03  0.39473016985E+03  0.47000000000E+01 0.  1.
         13    1    6    6    0    0 -0.58640478416E+02 -0.12673895945E+02  0.46614915138E+02  0.75975546465E+02  0.00000000000E+00 0. -1.
        -14    1    6    6    0    0 -0.54023269994E+02 -0.18125368177E+02  0.20300840193E+03  0.21085410578E+03  0.00000000000E+00 0.  1.
</event>
<event>
12    1  0.9017558E-003  0.2551240E+03  0.7818608E-02  0.1111054E+00
         21   -1    0    0  503  502  0.00000000000E+00  0.00000000000E+00  0.55570439744E+03  0.55570439744E+03  0.00000000000E+00 0.  1.
         21   -1    0    0  501  503 -0.00000000000E+00 -0.00000000000E+00 -0.11479930475E+03  0.11479930475E+03  0.00000000000E+00 0. -1.
          6    2    1    2  501    0 -0.17349071528E+03  0.78022107868E+02  0.20236603738E+03  0.32563827132E+03  0.17000527362E+03 0.  0.
         24    2    3    3    0    0 -0.14889804888E+03  0.18054957979E+02  0.19644514891E+03  0.26038487886E+03  0.81932765991E+02 0.  0.
         -6    2    1    2    0  502  0.17349071528E+03 -0.78022107868E+02  0.23853905531E+03  0.34486543087E+03  0.16076320131E+03 0.  0.
        -24    2    5    5    0    0  0.12849051161E+03  0.62116490454E+01  0.13510206523E+03  0.20400505656E+03  0.82565724813E+02 0.  0.
          5    1    3    3  501    0 -0.24592666404E+02  0.59967149889E+02  0.59208884650E+01  0.65253392455E+02  0.47000000000E+01 0. -1.
        -11    1    4    4    0    0 -0.12375982956E+03  0.98134397744E+00  0.19371286100E+03  0.22987416333E+03  0.00000000000E+00 0.  1.
         12    1    4    4    0    0 -0.25138219316E+02  0.17073614002E+02  0.27322879160E+01  0.30510715539E+02  0.00000000000E+00 0. -1.
         -5    1    5    5    0  502  0.45000203671E+02 -0.84233756914E+02  0.10343699008E+03  0.14086037431E+03  0.47000000000E+01 0.  1.
         13    1    6    6    0    0  0.89349998578E+02 -0.35054125677E+02  0.84354288420E+02  0.12778051474E+03  0.00000000000E+00 0. -1.
        -14    1    6    6    0    0  0.39140513033E+02  0.41265774722E+02  0.50747776808E+02  0.76224541814E+02  0.00000000000E+00 0.  1.
</event>
<event>
12    1  0.9017558E-003  0.2122550E+03  0.7818608E-02  0.1139964E+00
         21   -1    0    0  503  502  0.00000000000E+00  0.00000000000E+00  0.53644147003E+02  0.53644147003E+02  0.00000000000E+00 0.  1.
         21   -1    0    0  501  503 -0.00000000000E+00 -0.00000000000E+00 -0.86691874897E+03  0.86691874897E+03  0.00000000000E+00 0.  1.
          6    2    1    2  501    0 -0.71807151924E+02  0.10039897063E+03 -0.49222053212E+03  0.53568903231E+03  0.17159681445E+03 0.  0.
         24    2    3    3    0    0  0.14213864971E+02  0.92704707451E+02 -0.26699677793E+03  0.29442849579E+03  0.81269077546E+02 0.  0.
         -6    2    1    2    0  502  0.71807151924E+02 -0.10039897063E+03 -0.32105406985E+03  0.38487386367E+03  0.17267297065E+03 0.  0.
        -24    2    5    5    0    0  0.24846911918E+02 -0.12541658663E+03 -0.27747574395E+03  0.31593689433E+03  0.80477596181E+02 0.  0.
          5    1    3    3  501    0 -0.86021016895E+02  0.76942631750E+01 -0.22522375418E+03  0.24126053652E+03  0.47000000000E+01 0. -1.
        -13    1    4    4    0    0  0.22231568029E+02  0.38700471058E+02 -0.21305355164E+03  0.21767816828E+03  0.00000000000E+00 0.  1.
         14    1    4    4    0    0 -0.80177030576E+01  0.54004236393E+02 -0.53943226294E+02  0.76750327515E+02  0.00000000000E+00 0. -1.
         -5    1    5    5    0  502  0.46960240006E+02  0.25017616006E+02 -0.43578325905E+02  0.68936969332E+02  0.47000000000E+01 0.  1.
         13    1    6    6    0    0  0.43641457715E+02 -0.94316760905E+02 -0.14387814357E+03  0.17748562876E+03  0.00000000000E+00 0. -1.
        -14    1    6    6    0    0 -0.18794545797E+02 -0.31099825727E+02 -0.13359760038E+03  0.13845126558E+03  0.00000000000E+00 0.  1.
</event>
<event>
12    1  0.9017558E-003  0.1784988E+03  0.7818608E-02  0.1169613E+00
         21   -1    0    0  501  502  0.00000000000E+00  0.00000000000E+00  0.70593404776E+03  0.70593404776E+03  0.00000000000E+00 0.  1.
         21   -1    0    0  502  503 -0.00000000000E+00 -0.00000000000E+00 -0.46862548065E+02  0.46862548065E+02  0.00000000000E+00 0.  1.
          6    2    1    2  501    0  0.15533052634E+02  0.42069742488E+02  0.41022187921E+03  0.44737435100E+03  0.17277349565E+03 0.  0.
         24    2    3    3    0    0  0.75465645194E+02  0.14900285839E+02  0.22496210424E+03  0.25071889279E+03  0.79592290673E+02 0.  0.
         -6    2    1    2    0  503 -0.15533052634E+02 -0.42069742488E+02  0.24884962048E+03  0.30542224482E+03  0.17130521024E+03 0.  0.
        -24    2    5    5    0    0  0.40483631591E+02 -0.54600414363E+02  0.21330636077E+03  0.23774433143E+03  0.80016460219E+02 0.  0.
          5    1    3    3  501    0 -0.59932592560E+02  0.27169456649E+02  0.18525977496E+03  0.19665545821E+03  0.47000000000E+01 0. -1.
        -11    1    4    4    0    0 -0.44045085893E+01 -0.14788571196E+02  0.88522872525E+02  0.89857667975E+02  0.00000000000E+00 0.  1.
         12    1    4    4    0    0  0.79870153784E+02  0.29688857036E+02  0.13643923172E+03  0.16086122481E+03  0.00000000000E+00 0. -1.
         -5    1    5    5    0  503 -0.56016684225E+02  0.12530671875E+02  0.35543259711E+02  0.67677913384E+02  0.47000000000E+01 0.  1.
         11    1    6    6    0    0  0.26545263112E+02  0.17026891435E+02  0.75206633220E+02  0.81551233626E+02  0.00000000000E+00 0. -1.
        -12    1    6    6    0    0  0.13938368479E+02 -0.71627305798E+02  0.13809972755E+03  0.15619309781E+03  0.00000000000E+00 0.  1.
</event>
<event>
12    1  0.9017558E-003  0.1951988E+03  0.7818608E-02  0.1154264E+00
         21   -1    0    0  501  502  0.00000000000E+00  0.00000000000E+00  0.83115593540E+02  0.83115593540E+02  0.00000000000E+00 0.  1.
         21   -1    0    0  502  503 -0.00000000000E+00 -0.00000000000E+00 -0.64450243454E+03  0.64450243454E+03  0.00000000000E+00 0.  1.
          6    2    1    2  501    0 -0.55628154944E+02  0.74843573477E+02 -0.83877668361E+02  0.21245710400E+03  0.17148325188E+03 0.  0.
         24    2    3    3    0    0  0.24079061019E+02  0.14973694768E+02 -0.73151081518E+02  0.11208383904E+03  0.80048070132E+02 0.  0.
         -6    2    1    2    0  503  0.55628154944E+02 -0.74843573477E+02 -0.47750917264E+03  0.51516092408E+03  0.16935086547E+03 0.  0.
        -24    2    5    5    0    0 -0.83462375808E+01 -0.59355108478E+02 -0.15039094038E+03  0.18145290302E+03  0.81945301763E+02 0.  0.
          5    1    3    3  501    0 -0.79707215963E+02  0.59869878709E+02 -0.10726586843E+02  0.10037326496E+03  0.47000000000E+01 0. -1.
        -11    1    4    4    0    0  0.15467091466E+02 -0.52214585695E+01  0.14432958507E+02  0.21790016964E+02  0.00000000000E+00 0.  1.
         12    1    4    4    0    0  0.86119695526E+01  0.20195153337E+02 -0.87584040025E+02  0.90293822076E+02  0.00000000000E+00 0. -1.
         -5    1    5    5    0  503  0.63974392525E+02 -0.15488464998E+02 -0.32711823225E+03  0.33370802106E+03  0.47000000000E+01 0.  1.
         11    1    6    6    0    0  0.19996704249E+02  0.12287328085E+02 -0.25058559616E+02  0.34333336895E+02  0.00000000000E+00 0. -1.
        -12    1    6    6    0    0 -0.28342941830E+02 -0.71642436563E+02 -0.12533238077E+03  0.14711956612E+03  0.00000000000E+00 0.  1.
</event>
<event>
12    1  0.9017558E-003  0.1769653E+03  0.7818608E-02  0.1171404E+00
         21   -1    0    0  501  502  0.00000000000E+00  0.00000000000E+00  0.58169899647E+03  0.58169899647E+03  0.00000000000E+00 0. -1.
         21   -1    0    0  502  503 -0.00000000000E+00 -0.00000000000E+00 -0.67133996038E+02  0.67133996038E+02  0.00000000000E+00 0. -1.
          6    2    1    2  501    0 -0.28588103915E+02  0.33698774384E+02  0.40723334997E+03  0.44402222448E+03  0.17135882652E+03 0.  0.
         24    2    3    3    0    0  0.49157018734E+02  0.24970922178E+02  0.19616052587E+03  0.21886826256E+03  0.79902471788E+02 0.  0.
         -6    2    1    2    0  503  0.28588103915E+02 -0.33698774384E+02  0.10733165046E+03  0.20481076803E+03  0.16874383078E+03 0.  0.
        -24    2    5    5    0    0 -0.16459548072E+02 -0.54356766041E+02  0.11870868939E+03  0.15374639117E+03  0.79502359243E+02 0.  0.
          5    1    3    3  501    0 -0.77745122649E+02  0.87278522063E+01  0.21107282410E+03  0.22515396193E+03  0.47000000000E+01 0. -1.
        -11    1    4    4    0    0  0.64707006766E+02  0.79091266484E+01  0.17779541555E+03  0.18936937662E+03  0.00000000000E+00 0.  1.
         12    1    4    4    0    0 -0.15549988032E+02  0.17061795529E+02  0.18365110321E+02  0.29498885938E+02  0.00000000000E+00 0. -1.
         -5    1    5    5    0  503  0.45047651988E+02  0.20657991657E+02 -0.11377038924E+02  0.51064376855E+02  0.47000000000E+01 0.  1.
         11    1    6    6    0    0  0.12526133049E+02  0.62893605598E+01 -0.33430401754E+01  0.14409579557E+02  0.00000000000E+00 0. -1.
        -12    1    6    6    0    0 -0.28985681121E+02 -0.60646126601E+02  0.12205172956E+03  0.13933681162E+03  0.00000000000E+00 0.  1.
</event>
<event>
12    1  0.9017558E-003  0.2516558E+03  0.7818608E-02  0.1112353E+00
         21   -1    0    0  503  502  0.00000000000E+00  0.00000000000E+00  0.11376234881E+04  0.11376234881E+04  0.00000000000E+00 0. -1.
         21   -1    0    0  501  503 -0.00000000000E+00 -0.00000000000E+00 -0.55571687660E+02  0.55571687660E+02  0.00000000000E+00 0.  1.
          6    2    1    2  501    0 -0.11723959598E+03  0.14145559690E+03  0.52801684622E+03  0.58492088121E+03  0.17197627342E+03 0.  0.
         24    2    3    3    0    0 -0.84699890194E+01  0.10482526931E+03  0.22424557876E+03  0.26015684189E+03  0.79595382962E+02 0.  0.
         -6    2    1    2    0  502  0.11723959598E+03 -0.14145559690E+03  0.55403495419E+03  0.60827429452E+03  0.17113760006E+03 0.  0.
        -24    2    5    5    0    0  0.44705298115E+02 -0.20640585715E+02  0.10758340913E+03  0.14008783233E+03  0.75005422395E+02 0.  0.
          5    1    3    3  501    0 -0.10876960696E+03  0.36630327586E+02  0.30377126746E+03  0.32476403932E+03  0.47000000000E+01 0. -1.
        -11    1    4    4    0    0 -0.15775442472E+02  0.11110390074E+03  0.22398110351E+03  0.25052041050E+03  0.00000000000E+00 0.  1.
         12    1    4    4    0    0  0.73054534528E+01 -0.62786314271E+01  0.26447524079E+00  0.96364313882E+01  0.00000000000E+00 0. -1.
         -5    1    5    5    0  502  0.72534297865E+02 -0.12081501119E+03  0.44645154506E+03  0.46818646220E+03  0.47000000000E+01 0.  1.
         11    1    6    6    0    0  0.22854465741E+02 -0.99414803649E+01  0.11253299903E+03  0.11525986078E+03  0.00000000000E+00 0. -1.
        -12    1    6    6    0    0  0.21850832374E+02 -0.10699105350E+02 -0.49495899073E+01  0.24827971544E+02  0.00000000000E+00 0.  1.
</event>
<event>
12    1  0.9017558E-003  0.2413067E+03  0.7818608E-02  0.1119021E+00
         21   -1    0    0  501  502  0.00000000000E+00  0.00000000000E+00  0.59597919460E+03  0.59597919460E+03  0.00000000000E+00 0. -1.
         21   -1    0    0  502  503 -0.00000000000E+00 -0.00000000000E+00 -0.23131618962E+03  0.23131618962E+03  0.00000000000E+00 0.  1.
          6    2    1    2  501    0  0.86657100622E+01  0.16903647533E+03  0.49707773689E+03  0.55255333344E+03  0.17198978244E+03 0.  0.
         24    2    3    3    0    0  0.23021497725E+02  0.23666281324E+02  0.13215785785E+03  0.15945386758E+03  0.82883980750E+02 0.  0.
         -6    2    1    2    0  503 -0.86657100622E+01 -0.16903647533E+03 -0.13241473191E+03  0.27474205077E+03  0.17117566625E+03 0.  0.
        -24    2    5    5    0    0 -0.20599148072E+01 -0.37263553977E+02 -0.55307067276E+01  0.91631742002E+02  0.83504321573E+02 0.  0.
          5    1    3    3  501    0 -0.14355787663E+02  0.14537019401E+03  0.36491987904E+03  0.39309946586E+03  0.47000000000E+01 0. -1.
        -11    1    4    4    0    0 -0.21564616643E+02 -0.18138512512E+01  0.48483117040E+01  0.22177215192E+02  0.00000000000E+00 0.  1.
         12    1    4    4    0    0  0.44586114368E+02  0.25480132575E+02  0.12730954614E+03  0.13727665238E+03  0.00000000000E+00 0. -1.
         -5    1    5    5    0  503 -0.66057952549E+01 -0.13177292135E+03 -0.12688402518E+03  0.18311030877E+03  0.47000000000E+01 0.  1.
         13    1    6    6    0    0 -0.95568551245E+01  0.25880452646E+02  0.16626519255E+01  0.27638663507E+02  0.00000000000E+00 0. -1.
        -14    1    6    6    0    0  0.74969403173E+01 -0.63144006623E+02 -0.71933586532E+01  0.63993078495E+02  0.00000000000E+00 0.  1.
</event>
<event>
12    1  0.9017558E-003  0.1829555E+03  0.7818608E-02  0.1165805E+00
         21   -1    0    0  503  502  0.00000000000E+00  0.00000000000E+00  0.44850371035E+03  0.44850371035E+03  0.00000000000E+00 0. -1.
         21   -1    0    0  501  503 -0.00000000000E+00 -0.00000000000E+00 -0.94871776782E+02  0.94871776782E+02  0.00000000000E+00 0. -1.
          6    2    1    2  501    0 -0.62627748561E+02 -0.17341856127E+02  0.48338821459E+02  0.18923356716E+03  0.17102551394E+03 0.  0.
         24    2    3    3    0    0 -0.63452985068E+02 -0.73445073542E+02  0.41993469761E+02  0.13257136188E+03  0.79945320976E+02 0.  0.
         -6    2    1    2    0  502  0.62627748561E+02  0.17341856127E+02  0.30529311211E+03  0.35414191997E+03  0.16730104696E+03 0.  0.
        -24    2    5    5    0    0  0.15278803867E+02 -0.50608586212E+02  0.17450856785E+03  0.19926819013E+03  0.80373506194E+02 0.  0.
          5    1    3    3  501    0  0.82523650636E+00  0.56103217415E+02  0.63453516982E+01  0.56662205286E+02  0.47000000000E+01 0. -1.
        -11    1    4    4    0    0 -0.79562813022E+02 -0.40966490043E+02  0.29891106225E+02  0.94350266315E+02  0.00000000000E+00 0.  1.
         12    1    4    4    0    0  0.16109827954E+02 -0.32478583499E+02  0.12102363536E+02  0.38221095562E+02  0.00000000000E+00 0. -1.
         -5    1    5    5    0  502  0.47348944694E+02  0.67950442338E+02  0.13078454426E+03  0.15487372984E+03  0.47000000000E+01 0.  1.
         13    1    6    6    0    0  0.13694603172E+02 -0.63973563919E+01  0.14568548770E+03  0.14646750374E+03  0.00000000000E+00 0. -1.
        -14    1    6    6    0    0  0.15842006945E+01 -0.44211229820E+02  0.28823080152E+02  0.52800686392E+02  0.00000000000E+00 0.  1.
</event>
<event>
12    1  0.9017558E-003  0.3486009E+03  0.7818608E-02  0.1063504E+00
         21   -1    0    0  503  502  0.00000000000E+00  0.00000000000E+00  0.30239088030E+03  0.30239088030E+03  0.00000000000E+00 0. -1.
         21   -1    0    0  501  503 -0.00000000000E+00 -0.00000000000E+00 -0.43157025519E+03  0.43157025519E+03  0.00000000000E+00 0.  1.
          6    2    1    2  501    0 -0.15374246934E+03 -0.25640786150E+03  0.36904534927E+02  0.35054885328E+03  0.17927859751E+03 0.  0.
         24    2    3    3    0    0 -0.96551928142E+02 -0.22526228149E+03  0.83031677945E+02  0.27060757184E+03  0.79175931330E+02 0.  0.
         -6    2    1    2    0  502  0.15374246934E+03  0.25640786150E+03 -0.16608390981E+03  0.38341228221E+03  0.17331870855E+03 0.  0.
        -24    2    5    5    0    0  0.11769095933E+03  0.27066047835E+03 -0.15412028973E+03  0.34257031033E+03  0.80579757798E+02 0.  0.
          5    1    3    3  501    0 -0.57190541200E+02 -0.31145580006E+02 -0.46127143017E+02  0.79941281448E+02  0.47000000000E+01 0. -1.
        -11    1    4    4    0    0 -0.10071611097E+03 -0.18435589496E+03  0.45517627210E+02  0.21494809933E+03  0.00000000000E+00 0.  1.
         12    1    4    4    0    0  0.41641828321E+01 -0.40906386527E+02  0.37514050734E+02  0.55659472508E+02  0.00000000000E+00 0. -1.
         -5    1    5    5    0  502  0.36051510012E+02 -0.14252616854E+02 -0.11963620085E+02  0.40841971878E+02  0.47000000000E+01 0.  1.
         13    1    6    6    0    0  0.74020545681E+02  0.16216607809E+03 -0.47909549898E+02  0.18458657329E+03  0.00000000000E+00 0. -1.
        -14    1    6    6    0    0  0.43670413648E+02  0.10849440026E+03 -0.10621073983E+03  0.15798373704E+03  0.00000000000E+00 0.  1.
</event>
<event>
12    1  0.9017558E-003  0.1783484E+03  0.7818608E-02  0.1169515E+00
         21   -1    0    0  501  502  0.00000000000E+00  0.00000000000E+00  0.52098935767E+02  0.52098935767E+02  0.00000000000E+00 0.  1.
         21   -1    0    0  502  503 -0.00000000000E+00 -0.00000000000E+00 -0.86993778894E+03  0.86993778894E+03  0.00000000000E+00 0.  1.
          6    2    1    2  501    0 -0.24015111311E+02 -0.34170915119E+02 -0.15681043987E+03  0.23748190683E+03  0.17338905676E+03 0.  0.
         24    2    3    3    0    0 -0.78095780422E+02 -0.44347935949E+02 -0.92469918982E+02  0.15268754880E+03  0.81835880271E+02 0.  0.
         -6    2    1    2    0  503  0.24015111311E+02  0.34170915119E+02 -0.66102841330E+03  0.68455481788E+03  0.17295189644E+03 0.  0.
        -24    2    5    5    0    0 -0.45528355706E+00 -0.35154206607E+02 -0.21138847208E+03  0.22892016219E+03  0.80519121971E+02 0.  0.
          5    1    3    3  501    0  0.54080669111E+02  0.10177020830E+02 -0.64340520890E+02  0.84794358025E+02  0.47000000000E+01 0. -1.
        -13    1    4    4    0    0 -0.36665079822E+02 -0.44629207753E+02 -0.94998094579E+02  0.11117882998E+03  0.00000000000E+00 0.  1.
         14    1    4    4    0    0 -0.41430700599E+02  0.28127180395E+00  0.25281755967E+01  0.41508718817E+02  0.00000000000E+00 0. -1.
         -5    1    5    5    0  503  0.24470394868E+02  0.69325121725E+02 -0.44963994122E+03  0.45563465569E+03  0.47000000000E+01 0.  1.
         13    1    6    6    0    0  0.37337004597E+02 -0.32530711091E+02 -0.10807844346E+03  0.11888334205E+03  0.00000000000E+00 0. -1.
        -14    1    6    6    0    0 -0.37792288154E+02 -0.26234955160E+01 -0.10331002863E+03  0.11003682014E+03  0.00000000000E+00 0.  1.
</event>
<event>
12    1  0.9017558E-003  0.3170626E+03  0.7818608E-02  0.1077128E+00
         21   -1    0    0  503  502  0.00000000000E+00  0.00000000000E+00  0.32740905304E+03  0.32740905304E+03  0.00000000000E+00 0. -1.
         21   -1    0    0  501  503 -0.00000000000E+00 -0.00000000000E+00 -0.30686382081E+03  0.30686382081E+03  0.00000000000E+00 0.  1.
          6    2    1    2  501    0  0.25815359163E+03 -0.67850517698E+02  0.26528575191E+02  0.31715385842E+03  0.16922126044E+03 0.  0.
         24    2    3    3    0    0  0.62929913089E+02 -0.56738181787E+02 -0.13233568168E+02  0.11755704803E+03  0.80406075526E+02 0.  0.
         -6    2    1    2    0  502 -0.25815359163E+03  0.67850517698E+02 -0.59833429636E+01  0.31711901542E+03  0.17111896425E+03 0.  0.
        -24    2    5    5    0    0 -0.10441022048E+03 -0.29017647933E+02  0.10385268322E+02  0.13460740724E+03  0.79169326474E+02 0.  0.
          5    1    3    3  501    0  0.19522367854E+03 -0.11112335911E+02  0.39762143359E+02  0.19959681039E+03  0.47000000000E+01 0. -1.
        -11    1    4    4    0    0  0.43193789948E+01 -0.21101412041E+02 -0.38780025938E+02  0.44360083823E+02  0.00000000000E+00 0.  1.
         12    1    4    4    0    0  0.58610534094E+02 -0.35636769746E+02  0.25546457770E+02  0.73196964208E+02  0.00000000000E+00 0. -1.
         -5    1    5    5    0  502 -0.15374337116E+03  0.96868165631E+02 -0.16368611285E+02  0.18251160819E+03  0.47000000000E+01 0.  1.
         11    1    6    6    0    0 -0.84124698837E+02 -0.41154296773E+02  0.35466007633E+02  0.10014229274E+03  0.00000000000E+00 0. -1.
        -12    1    6    6    0    0 -0.20285521639E+02  0.12136648840E+02 -0.25080739311E+02  0.34465114502E+02  0.00000000000E+00 0.  1.
</event>
<event>
12    1  0.9017558E-003  0.2681111E+03  0.7818608E-02  0.1102471E+00
         21   -1    0    0  501  502  0.00000000000E+00  0.00000000000E+00  0.68567763352E+02  0.68567763352E+02  0.00000000000E+00 0. -1.
         21   -1    0    0  502  503 -0.00000000000E+00 -0.00000000000E+00 -0.10669126856E+04  0.10669126856E+04  0.00000000000E+00 0. -1.
          6    2    1    2  501    0  0.20466877184E+03 -0.29883170977E+02 -0.41941301713E+03  0.49778593430E+03  0.17059087716E+03 0.  0.
         24    2    3    3    0    0  0.12274275196E+03 -0.33141903351E+02 -0.37591603283E+03  0.40485278782E+03  0.80179468402E+02 0.  0.
         -6    2    1    2    0  503 -0.20466877184E+03  0.29883170977E+02 -0.57893190516E+03  0.63769451470E+03  0.16943976270E+03 0.  0.
        -24    2    5    5    0    0 -0.20270111522E+03  0.42483463386E+01 -0.56962758611E+03  0.60995147485E+03  0.80370543484E+02 0.  0.
          5    1    3    3  501    0  0.81926019884E+02  0.32587323746E+01 -0.43496984304E+02  0.92933146478E+02  0.47000000000E+01 0. -1.
        -11    1    4    4    0    0  0.52393838106E+02 -0.29716183440E+01 -0.26462984265E+03  0.26978305804E+03  0.00000000000E+00 0.  1.
         12    1    4    4    0    0  0.70348913853E+02 -0.30170285007E+02 -0.11128619018E+03  0.13506972978E+03  0.00000000000E+00 0. -1.
         -5    1    5    5    0  503 -0.19676566236E+01  0.25634824638E+02 -0.93043190524E+01  0.27743039845E+02  0.47000000000E+01 0.  1.
         13    1    6    6    0    0 -0.17729523899E+03  0.30537818778E+02 -0.44257380307E+03  0.47774232732E+03  0.00000000000E+00 0. -1.
        -14    1    6    6    0    0 -0.25405876231E+02 -0.26289472439E+02 -0.12705378303E+03  0.13220914753E+03  0.00000000000E+00 0.  1.
</event>
<event>
12    1  0.9017558E-003  0.1798941E+03  0.7818608E-02  0.1167993E+00
         21   -1    0    0  503  502  0.00000000000E+00  0.00000000000E+00  0.94529067675E+03  0.94529067675E+03  0.00000000000E+00 0.  1.
         21   -1    0    0  501  503 -0.00000000000E+00 -0.00000000000E+00 -0.59940849522E+02  0.59940849522E+02  0.00000000000E+00 0.  1.
          6    2    1    2  501    0  0.36520517874E+02 -0.35877281166E+02  0.11334133875E+03  0.21262207517E+03  0.17245567619E+03 0.  0.
         24    2    3    3    0    0  0.70308051859E+02  0.16233008424E+02  0.64256236583E+02  0.13332190500E+03  0.91864757626E+02 0.  0.
         -6    2    1    2    0  502 -0.36520517874E+02  0.35877281166E+02  0.77200848847E+03  0.79260945110E+03  0.17208052816E+03 0.  0.
        -24    2    5    5    0    0  0.34163804256E+02 -0.11293314739E+02  0.32068829968E+03  0.33333465175E+03  0.83524248110E+02 0.  0.
          5    1    3    3  501    0 -0.33787533986E+02 -0.52110289589E+02  0.49085102167E+02  0.79300170168E+02  0.47000000000E+01 0. -1.
        -13    1    4    4    0    0  0.13982569029E+02 -0.68258887099E+01  0.70447221126E+02  0.72145103490E+02  0.00000000000E+00 0.  1.
         14    1    4    4    0    0  0.56325482831E+02  0.23058897134E+02 -0.61909845422E+01  0.61176801508E+02  0.00000000000E+00 0. -1.
         -5    1    5    5    0  502 -0.70684322129E+02  0.47170595905E+02  0.45132018879E+03  0.45927479935E+03  0.47000000000E+01 0.  1.
         11    1    6    6    0    0  0.13366961426E+02  0.18755091589E+02  0.26927085893E+03  0.27025400013E+03  0.00000000000E+00 0. -1.
        -12    1    6    6    0    0  0.20796842829E+02 -0.30048406328E+02  0.51417440753E+02  0.63080651615E+02  0.00000000000E+00 0.  1.
</event>
<event>
12    1  0.9017558E-003  0.2227327E+03  0.7818608E-02  0.1132095E+00
         21   -1    0    0  501  502  0.00000000000E+00  0.00000000000E+00  0.81755992192E+03  0.81755992192E+03  0.00000000000E+00 0. -1.
         21   -1    0    0  502  503 -0.00000000000E+00 -0.00000000000E+00 -0.60603030595E+02  0.60603030595E+02  0.00000000000E+00 0. -1.
          6    2    1    2  501    0  0.13841434645E+03 -0.71015879811E+01  0.34824564193E+03  0.41270110424E+03  0.17273740321E+03 0.  0.
         24    2    3    3    0    0  0.79576746869E+02  0.23814774043E+02  0.91206588810E+02  0.14716607945E+03  0.80247186825E+02 0.  0.
         -6    2    1    2    0  503 -0.13841434645E+03  0.71015879811E+01  0.40871124940E+03  0.46546184827E+03  0.17435848978E+03 0.  0.
        -24    2    5    5    0    0 -0.89845575741E+02 -0.40992909019E+02  0.14182521960E+03  0.18992192552E+03  0.78761023406E+02 0.  0.
          5    1    3    3  501    0  0.58837599576E+02 -0.30916362025E+02  0.25703905312E+03  0.26553502479E+03  0.47000000000E+01 0. -1.
        -11    1    4    4    0    0 -0.82337299462E+01  0.16596457584E+02  0.42799654988E+02  0.46637401089E+02  0.00000000000E+00 0.  1.
         12    1    4    4    0    0  0.87810476816E+02  0.72183164591E+01  0.48406933822E+02  0.10052867836E+03  0.00000000000E+00 0. -1.
         -5    1    5    5    0  503 -0.48568770705E+02  0.48094497000E+02  0.26688602980E+03  0.27553992276E+03  0.47000000000E+01 0.  1.
         11    1    6    6    0    0 -0.64475446937E+02 -0.46970132081E+02  0.14309365223E+03  0.16382634060E+03  0.00000000000E+00 0. -1.
        -12    1    6    6    0    0 -0.25370128804E+02  0.59772230628E+01 -0.12684326274E+01  0.26095584921E+02  0.00000000000E+00 0.  1.
</event>
<event>
12    1  0.9017558E-003  0.2425669E+03  0.7818608E-02  0.1118362E+00
         21   -1    0    0  501  502  0.00000000000E+00  0.00000000000E+00  0.68193504646E+02  0.68193504646E+02  0.00000000000E+00 0. -1.
         21   -1    0    0  502  503 -0.00000000000E+00 -0.00000000000E+00 -0.14808438412E+04  0.14808438412E+04  0.00000000000E+00 0.  1.
          6    2    1    2  501    0 -0.17072758288E+03 -0.71650220844E+01 -0.20501506580E+03  0.31760019676E+03  0.17216115323E+03 0.  0.
         24    2    3    3    0    0 -0.13201709308E+03  0.50671209209E+02 -0.97578888888E+02  0.18950588081E+03  0.79967212008E+02 0.  0.
         -6    2    1    2    0  503  0.17072758288E+03  0.71650220844E+01 -0.12076352708E+04  0.12314371491E+04  0.16986836040E+03 0.  0.
        -24    2    5    5    0    0  0.39441938361E+02  0.19447653517E+02 -0.28488381696E+03  0.29930029273E+03  0.80548111904E+02 0.  0.
          5    1    3    3  501    0 -0.38710489796E+02 -0.57836231293E+02 -0.10743617691E+03  0.12809431595E+03  0.47000000000E+01 0. -1.
        -13    1    4    4    0    0 -0.65479168268E+02 -0.16325861200E+02 -0.33079592615E+02  0.75155270397E+02  0.00000000000E+00 0.  1.
         14    1    4    4    0    0 -0.66537924817E+02  0.66997070409E+02 -0.64499296273E+02  0.11435061041E+03  0.00000000000E+00 0. -1.
         -5    1    5    5    0  503  0.13128564452E+03 -0.12282631432E+02 -0.92275145382E+03  0.93213685638E+03  0.47000000000E+01 0.  1.
         13    1    6    6    0    0  0.15916784160E+02 -0.26652855790E+02 -0.50568931722E+02  0.59337472100E+02  0.00000000000E+00 0. -1.
        -14    1    6    6    0    0  0.23525154201E+02  0.46100509307E+02 -0.23431488524E+03  0.23996282063E+03  0.00000000000E+00 0.  1.
</event>
<event>
12    1  0.9017558E-003  0.1975614E+03  0.7818608E-02  0.1151818E+00
         21   -1    0    0  501  502  0.00000000000E+00  0.00000000000E+00  0.11467201486E+03  0.11467201486E+03  0.00000000000E+00 0. -1.
         21   -1    0    0  502  503 -0.00000000000E+00 -0.00000000000E+00 -0.35131190258E+03  0.35131190258E+03  0.00000000000E+00 0. -1.
          6    2    1    2  501    0  0.19352439605E+02 -0.95373189605E+02 -0.15953557363E+03  0.25393325290E+03  0.17193003071E+03 0.  0.
         24    2    3    3    0    0  0.48637017119E+02  0.24613610629E+01 -0.59171556128E+02  0.11067051597E+03  0.79844049979E+02 0.  0.
         -6    2    1    2    0  503 -0.19352439605E+02  0.95373189605E+02 -0.77104314093E+02  0.21205066454E+03  0.17190068896E+03 0.  0.
        -24    2    5    5    0    0 -0.31508944265E+02  0.54065225159E+02 -0.11925966304E+03  0.15160819621E+03  0.69615485270E+02 0.  0.
          5    1    3    3  501    0 -0.29284577514E+02 -0.97834550668E+02 -0.10036401750E+03  0.14326273693E+03  0.47000000000E+01 0. -1.
        -11    1    4    4    0    0  0.57009937403E+02 -0.26864483290E+02 -0.39423241553E+02  0.74337241002E+02  0.00000000000E+00 0.  1.
         12    1    4    4    0    0 -0.83729202847E+01  0.29325844353E+02 -0.19748314575E+02  0.36333274965E+02  0.00000000000E+00 0. -1.
         -5    1    5    5    0  503  0.12156504660E+02  0.41307964446E+02  0.42155348951E+02  0.60442468327E+02  0.47000000000E+01 0.  1.
         13    1    6    6    0    0  0.45342206569E+01  0.48261339104E+02 -0.35028009282E+02  0.59805329556E+02  0.00000000000E+00 0. -1.
        -14    1    6    6    0    0 -0.36043164922E+02  0.58038860553E+01 -0.84231653762E+02  0.91802866657E+02  0.00000000000E+00 0.  1.
</event>
<event>
12    1  0.9017558E-003  0.2547935E+03  0.7818608E-02  0.1110450E+00
         21   -1    0    0  501  502  0.00000000000E+00  0.00000000000E+00  0.51970379127E+03  0.51970379127E+03  0.00000000000E+00 0.  1.
         21   -1    0    0  502  503 -0.00000000000E+00 -0.00000000000E+00 -0.16484709226E+03  0.16484709226E+03  0.00000000000E+00 0.  1.
          6    2    1    2  501    0  0.13551522639E+03  0.12941606462E+03  0.34703996922E+03  0.43053045355E+03  0.17264656623E+03 0.  0.
         24    2    3    3    0    0  0.26463763286E+02  0.41163678153E+02  0.63806499734E+02  0.11442288711E+03  0.81403614909E+02 0.  0.
         -6    2    1    2    0  503 -0.13551522639E+03 -0.12941606462E+03  0.78167297932E+01  0.25402042999E+03  0.17132537238E+03 0.  0.
        -24    2    5    5    0    0 -0.15597493425E+03 -0.69078423242E+02  0.26687351882E+02  0.18740646005E+03  0.72862595647E+02 0.  0.
          5    1    3    3  501    0  0.10905146310E+03  0.88252386468E+02  0.28323346949E+03  0.31610756644E+03  0.47000000000E+01 0. -1.
        -11    1    4    4    0    0 -0.76278163810E+01  0.22938219767E+02  0.71087974900E+02  0.75085589058E+02  0.00000000000E+00 0.  1.
         12    1    4    4    0    0  0.34091579667E+02  0.18225458386E+02 -0.72814751653E+01  0.39337298054E+02  0.00000000000E+00 0. -1.
         -5    1    5    5    0  503  0.20459707866E+02 -0.60337641378E+02 -0.18870622089E+02  0.66613969940E+02  0.47000000000E+01 0.  1.
         11    1    6    6    0    0  0.38707264113E+01 -0.54920655672E+01 -0.94774205797E+01  0.11617521594E+02  0.00000000000E+00 0. -1.
        -12    1    6    6    0    0 -0.15984566066E+03 -0.63586357675E+02  0.36164772461E+02  0.17578893845E+03  0.00000000000E+00 0.  1.
</event>
<event>
12    1  0.9017558E-003  0.1989100E+03  0.7818608E-02  0.1151027E+00
         21   -1    0    0  503  502  0.00000000000E+00  0.00000000000E+00  0.16154868176E+03  0.16154868176E+03  0.00000000000E+00 0. -1.
         21   -1    0    0  501  503 -0.00000000000E+00 -0.00000000000E+00 -0.33065156381E+03  0.33065156381E+03  0.00000000000E+00 0. -1.
          6    2    1    2  501    0 -0.49771002071E+01  0.99631805982E+02 -0.21112809480E+03  0.28889920441E+03  0.17010705337E+03 0.  0.
         24    2    3    3    0    0  0.13753361412E+02  0.48193089580E+02 -0.29954124491E+02  0.99577073493E+02  0.80663592518E+02 0.  0.
         -6    2    1    2    0  502  0.49771002071E+01 -0.99631805982E+02  0.42025212743E+02  0.20330104116E+03  0.17208697377E+03 0.  0.
        -24    2    5    5    0    0 -0.52740606634E+02 -0.17142255545E+02  0.26514565095E+02  0.10132785937E+03  0.80553612020E+02 0.  0.
          5    1    3    3  501    0 -0.18730461619E+02  0.51438716402E+02 -0.18117397031E+03  0.18932213091E+03  0.47000000000E+01 0. -1.
        -13    1    4    4    0    0  0.18954915122E+00 -0.16764758352E+01  0.24467731642E+02  0.24525831113E+02  0.00000000000E+00 0.  1.
         14    1    4    4    0    0  0.13563812261E+02  0.49869565415E+02 -0.54421856133E+02  0.75051242380E+02  0.00000000000E+00 0. -1.
         -5    1    5    5    0  502  0.57717706841E+02 -0.82489550437E+02  0.15510647648E+02  0.10197318179E+03  0.47000000000E+01 0.  1.
         11    1    6    6    0    0 -0.58413225760E+02  0.53789709901E+00  0.46044003061E+02  0.74380403971E+02  0.00000000000E+00 0. -1.
        -12    1    6    6    0    0  0.56726191268E+01 -0.17680152644E+02 -0.19529437966E+02  0.26947455400E+02  0.00000000000E+00 0.  1.
</event>
<event>
12    1  0.9017558E-003  0.2131214E+03  0.7818608E-02  0.1139653E+00
         21   -1    0    0  501  502  0.00000000000E+00  0.00000000000E+00  0.73683241539E+03  0.73683241539E+03  0.00000000000E+00 0. -1.
         21   -1    0    0  502  503 -0.00000000000E+00 -0.00000000000E+00 -0.76226061612E+02  0.76226061612E+02  0.00000000000E+00 0. -1.
          6    2    1    2  501    0 -0.11998839926E+03  0.35229684465E+02  0.51115432776E+03  0.55275743385E+03  0.16918536360E+03 0.  0.
         24    2    3    3    0    0 -0.15844534724E+02 -0.23568842403E+02  0.27190830536E+03  0.28524302205E+03  0.81381296945E+02 0.  0.
         -6    2    1    2    0  503  0.11998839926E+03 -0.35229684465E+02  0.14945202601E+03  0.26030104315E+03  0.17257571776E+03 0.  0.
        -24    2    5    5    0    0 -0.65150887552E+01 -0.23810862089E+02  0.40320495901E+02  0.92774021898E+02  0.79824014022E+02 0.  0.
          5    1    3    3  501    0 -0.10414386454E+03  0.58798526868E+02  0.23924602240E+03  0.26751441179E+03  0.47000000000E+01 0. -1.
        -13    1    4    4    0    0 -0.41922939702E+02 -0.51500974881E+01  0.22209903904E+03  0.22607971939E+03  0.00000000000E+00 0.  1.
         14    1    4    4    0    0  0.26078404977E+02 -0.18418744915E+02  0.49809266324E+02  0.59163302664E+02  0.00000000000E+00 0. -1.
         -5    1    5    5    0  503  0.12650348802E+03 -0.11418822376E+02  0.10913153011E+03  0.16752702125E+03  0.47000000000E+01 0.  1.
         13    1    6    6    0    0  0.27120747902E+02 -0.35911457877E+02  0.34165465217E+02  0.56501741452E+02  0.00000000000E+00 0. -1.
        -14    1    6    6    0    0 -0.33635836657E+02  0.12100595788E+02  0.61550306842E+01  0.36272280446E+02  0.00000000000E+00 0.  1.
</event>
<event>
12    1  0.9017558E-003  0.1900680E+03  0.7818608E-02  0.1159113E+00
         21   -1    0    0  501  502  0.00000000000E+00  0.00000000000E+00  0.11910433290E+03  0.11910433290E+03  0.00000000000E+00 0.  1.
         21   -1    0    0  502  503 -0.00000000000E+00 -0.00000000000E+00 -0.29963254880E+03  0.29963254880E+03  0.00000000000E+00 0. -1.
          6    2    1    2  501    0 -0.61495435709E+02  0.48770766264E+02 -0.75729374086E+02  0.20169164066E+03  0.16965937510E+03 0.  0.
         24    2    3    3    0    0  0.83922187505E+01  0.55010844350E+02 -0.11921587476E+01  0.99216720360E+02  0.82133513408E+02 0.  0.
         -6    2    1    2    0  503  0.61495435709E+02 -0.48770766264E+02 -0.10479884181E+03  0.21704524104E+03  0.17310564162E+03 0.  0.
        -24    2    5    5    0    0  0.34989973853E+02  0.36652098256E+02 -0.29979634511E+02  0.10034216023E+03  0.81253283359E+02 0.  0.
          5    1    3    3  501    0 -0.69887654460E+02 -0.62400780859E+01 -0.74537215339E+02  0.10247492030E+03  0.47000000000E+01 0. -1.
        -11    1    4    4    0    0 -0.28328783148E+02  0.47192362498E+01  0.18194725468E+02  0.33997634922E+02  0.00000000000E+00 0.  1.
         12    1    4    4    0    0  0.36721001899E+02  0.50291608100E+02 -0.19386884215E+02  0.65219085438E+02  0.00000000000E+00 0. -1.
         -5    1    5    5    0  503  0.26505461856E+02 -0.85422864520E+02 -0.74819207303E+02  0.11670308082E+03  0.47000000000E+01 0.  1.
         11    1    6    6    0    0  0.59009044667E+02  0.39420788151E+02 -0.27222129391E+02  0.76007303725E+02  0.00000000000E+00 0. -1.
        -12    1    6    6    0    0 -0.24019070813E+02 -0.27686898950E+01 -0.27575051205E+01  0.24334856502E+02  0.00000000000E+00 0.  1.
</event>
<event>
12    1  0.9017558E-003  0.1729030E+03  0.7818608E-02  0.1175307E+00
         21   -1    0    0  503  502  0.00000000000E+00  0.00000000000E+00  0.80958269508E+03  0.80958269508E+03  0.00000000000E+00 0.  1.
         21   -1    0    0  501  503 -0.00000000000E+00 -0.00000000000E+00 -0.36924130098E+02  0.36924130098E+02  0.00000000000E+00 0.  1.
          6    2    1    2  501    0 -0.89454769553E+01  0.12174401344E+02  0.34570768312E+03  0.38653494786E+03  0.17224176655E+03 0.  0.
         24    2    3    3    0    0 -0.50955468956E+02  0.10029057016E+02  0.32750008921E+03  0.34045839845E+03  0.77191779606E+02 0.  0.
         -6    2    1    2    0  502  0.89454769553E+01 -0.12174401344E+02  0.42695088186E+03  0.45997187732E+03  0.17046652103E+03 0.  0.
        -24    2    5    5    0    0  0.59822554650E+02 -0.22889132651E+02  0.17761283402E+03  0.20522723144E+03  0.80431631074E+02 0.  0.
          5    1    3    3  501    0  0.42009992000E+02  0.21453443286E+01  0.18207593911E+02  0.46076549417E+02  0.47000000000E+01 0. -1.
        -13    1    4    4    0    0 -0.71940432999E+01  0.26610693258E+02  0.36608117919E+02  0.45826166676E+02  0.00000000000E+00 0.  1.
         14    1    4    4    0    0 -0.43761425656E+02 -0.16581636242E+02  0.29089197129E+03  0.29463223177E+03  0.00000000000E+00 0. -1.
         -5    1    5    5    0  502 -0.50877077695E+02  0.10714731307E+02  0.24933804784E+03  0.25474464588E+03  0.47000000000E+01 0.  1.
         11    1    6    6    0    0  0.21128109458E+02  0.21069227693E+02  0.17158609202E+02  0.34419866859E+02  0.00000000000E+00 0. -1.
        -12    1    6    6    0    0  0.38694445192E+02 -0.43958360344E+02  0.16045422482E+03  0.17080736458E+03  0.00000000000E+00 0.  1.
</event>
<event>
12    1  0.9017558E-003  0.2525012E+03  0.7818608E-02  0.1111969E+00
         21   -1    0    0  503  502  0.00000000000E+00  0.00000000000E+00  0.34505038539E+03  0.34505038539E+03  0.00000000000E+00 0.  1.
         21   -1    0    0  501  503 -0.00000000000E+00 -0.00000000000E+00 -0.20093147624E+03  0.20093147624E+03  0.00000000000E+00 0.  1.
          6    2    1    2  501    0 -0.54128013244E+02  0.17566041353E+03 -0.81264951547E+01  0.25113357934E+03  0.17092575012E+03 0.  0.
         24    2    3    3    0    0 -0.18858452632E+02  0.57656598896E+01  0.18725236848E+02  0.75488269899E+02  0.70419885882E+02 0.  0.
         -6    2    1    2    0  502  0.54128013244E+02 -0.17566041353E+03  0.15224540431E+03  0.29484828229E+03  0.17311968039E+03 0.  0.
        -24    2    5    5    0    0  0.55258076528E+02 -0.12989848234E+03  0.17934475538E+03  0.24144513427E+03  0.78766368737E+02 0.  0.
          5    1    3    3  501    0 -0.35269560612E+02  0.16989475364E+03 -0.26851732003E+02  0.17564530945E+03  0.47000000000E+01 0. -1.
        -13    1    4    4    0    0 -0.29143166915E+02  0.29663891718E+02  0.25269874793E+02  0.48660427678E+02  0.00000000000E+00 0.  1.
         14    1    4    4    0    0  0.10284714283E+02 -0.23898231829E+02 -0.65446379452E+01  0.26827842221E+02  0.00000000000E+00 0. -1.
         -5    1    5    5    0  502 -0.11300632840E+01 -0.45761931189E+02 -0.27099351078E+02  0.53403148016E+02  0.47000000000E+01 0.  1.
         13    1    6    6    0    0  0.37302576768E+02 -0.29557764883E+02  0.10498903908E+03  0.11527290239E+03  0.00000000000E+00 0. -1.
        -14    1    6    6    0    0  0.17955499760E+02 -0.10034071745E+03  0.74355716304E+02  0.12617223188E+03  0.00000000000E+00 0.  1.
</event>
<event>
12    1  0.9017558E-003  0.1842838E+03  0.7818608E-02  0.1163753E+00
         21   -1    0    0  501  502  0.00000000000E+00  0.00000000000E+00  0.67503854565E+02  0.67503854565E+02  0.00000000000E+00 0.  1.
         21   -1    0    0  502  503 -0.00000000000E+00 -0.00000000000E+00 -0.53949527325E+03  0.53949527325E+03  0.00000000000E+00 0.  1.
          6    2    1    2  501    0 -0.93387443796E+01 -0.65840646357E+02 -0.15683213719E+03  0.24198523822E+03  0.17186719699E+03 0.  0.
         24    2    3    3    0    0 -0.32797156224E+02  0.21975969601E+02 -0.55062495998E+02  0.10545243998E+03  0.80806818629E+02 0.  0.
         -6    2    1    2    0  503  0.93387443796E+01  0.65840646357E+02 -0.31515928150E+03  0.36501388960E+03  0.17171943404E+03 0.  0.
        -24    2    5    5    0    0  0.42008303837E+02  0.79732361552E+02 -0.13293781646E+03  0.17930704486E+03  0.79728327582E+02 0.  0.
          5    1    3    3  501    0  0.23458411844E+02 -0.87816615958E+02 -0.10176964119E+03  0.13653279823E+03  0.47000000000E+01 0. -1.
        -13    1    4    4    0    0 -0.40969077256E+02  0.81510971701E+01  0.61014320393E+01  0.42215318893E+02  0.00000000000E+00 0.  1.
         14    1    4    4    0    0  0.81719210323E+01  0.13824872430E+02 -0.61163928037E+02  0.63237121092E+02  0.00000000000E+00 0. -1.
         -5    1    5    5    0  503 -0.32669559457E+02 -0.13891715195E+02 -0.18222146503E+03  0.18570684474E+03  0.47000000000E+01 0.  1.
         11    1    6    6    0    0  0.14007138046E+02  0.89399586537E+02 -0.10463889521E+03  0.13833938116E+03  0.00000000000E+00 0. -1.
        -12    1    6    6    0    0  0.28001165790E+02 -0.96672249849E+01 -0.28298921256E+02  0.40967663697E+02  0.00000000000E+00 0.  1.
</event>
<event>
12    1  0.9017558E-003  0.1930574E+03  0.7818608E-02  0.1155782E+00
         21   -1    0    0  503  502  0.00000000000E+00  0.00000000000E+00  0.11579727537E+03  0.11579727537E+03  0.00000000000E+00 0.  1.
         21   -1    0    0  501  503 -0.00000000000E+00 -0.00000000000E+00 -0.32293826142E+03  0.32293826142E+03  0.00000000000E+00 0.  1.
          6    2    1    2  501    0 -0.66757463708E+02  0.55353818109E+02 -0.88943951151E+02  0.21256105718E+03  0.17248354253E+03 0.  0.
         24    2    3    3    0    0 -0.10650714663E+03  0.44200502011E+02 -0.84246469094E+02  0.17074491090E+03  0.93588997116E+02 0.  0.
         -6    2    1    2    0  502  0.66757463708E+02 -0.55353818109E+02 -0.11819703490E+03  0.22617447961E+03  0.17223168125E+03 0.  0.
        -24    2    5    5    0    0  0.71693414054E+02  0.23797448873E+01 -0.16923482970E+02  0.10940140813E+03  0.80849582686E+02 0.  0.
          5    1    3    3  501    0  0.39749682919E+02  0.11153316098E+02 -0.46974820565E+01  0.41816146282E+02  0.47000000000E+01 0. -1.
        -11    1    4    4    0    0 -0.43715315070E+02 -0.26666056764E+02 -0.14731714305E+02  0.53283494267E+02  0.00000000000E+00 0.  1.
         12    1    4    4    0    0 -0.62791831558E+02  0.70866558775E+02 -0.69514754789E+02  0.11746141663E+03  0.00000000000E+00 0. -1.
         -5    1    5    5    0  502 -0.49359503459E+01 -0.57733562996E+02 -0.10127355193E+03  0.11677307148E+03  0.47000000000E+01 0.  1.
         11    1    6    6    0    0  0.19917335678E+02 -0.37157478047E+02 -0.26578102414E+00  0.42159804018E+02  0.00000000000E+00 0. -1.
        -12    1    6    6    0    0  0.51776078376E+02  0.39537222934E+02 -0.16657701946E+02  0.67241604111E+02  0.00000000000E+00 0.  1.
</event>
<event>
12    1  0.9017558E-003  0.2094424E+03  0.7818608E-02  0.1142228E+00
         21   -1    0    0  501  502  0.00000000000E+00  0.00000000000E+00  0.64321348031E+02  0.64321348031E+02  0.00000000000E+00 0.  1.
         21   -1    0    0  502  503 -0.00000000000E+00 -0.00000000000E+00 -0.70959240138E+03  0.70959240138E+03  0.00000000000E+00 0.  1.
          6    2    1    2  501    0 -0.41050273883E+02 -0.11261993829E+03 -0.24232217194E+03  0.32029076221E+03  0.17174912476E+03 0.  0.
         24    2    3    3    0    0  0.18280826192E+02 -0.12125971550E+03 -0.19606774872E+03  0.24441990579E+03  0.79122822571E+02 0.  0.
         -6    2    1    2    0  503  0.41050273883E+02  0.11261993829E+03 -0.40294888141E+03  0.45362298720E+03  0.17040433680E+03 0.  0.
        -24    2    5    5    0    0  0.59120694127E+02  0.10482885621E+03 -0.40859553083E+03  0.43261785217E+03  0.75654164660E+02 0.  0.
          5    1    3    3  501    0 -0.59331100075E+02  0.86397772025E+01 -0.46254423219E+02  0.75870856417E+02  0.47000000000E+01 0. -1.
        -11    1    4    4    0    0 -0.86572729166E+01 -0.38825979864E+02 -0.13000547503E+02  0.41849962033E+02  0.00000000000E+00 0.  1.
         12    1    4    4    0    0  0.26938099108E+02 -0.82433735631E+02 -0.18306720122E+03  0.20256994376E+03  0.00000000000E+00 0. -1.
         -5    1    5    5    0  503 -0.18070420244E+02  0.77910820786E+01  0.56466494257E+01  0.21005135027E+02  0.47000000000E+01 0.  1.
         11    1    6    6    0    0  0.31204238185E+02  0.22321338342E+02 -0.46956076019E+02  0.60636785050E+02  0.00000000000E+00 0. -1.
        -12    1    6    6    0    0  0.27916455943E+02  0.82507517872E+02 -0.36163945481E+03  0.37198106712E+03  0.00000000000E+00 0.  1.
</event>
<event>
12    1  0.9017558E-003  0.1864892E+03  0.7818608E-02  0.1161831E+00
         21   -1    0    0  503  502  0.00000000000E+00  0.00000000000E+00  0.11667773549E+03  0.11667773549E+03  0.00000000000E+00 0.  1.
         21   -1    0    0  501  503 -0.00000000000E+00 -0.00000000000E+00 -0.31999351302E+03  0.31999351302E+03  0.00000000000E+00 0.  1.
          6    2    1    2  501    0  0.61591139449E+02  0.40483352400E+02 -0.16008585718E+03  0.24523710924E+03  0.17053265905E+03 0.  0.
         24    2    3    3    0    0  0.10172036505E+03  0.14544732955E+02 -0.82352132548E+02  0.15387087549E+03  0.79597680035E+02 0.  0.
         -6    2    1    2    0  502 -0.61591139449E+02 -0.40483352400E+02 -0.43229920354E+02  0.19143413926E+03  0.17130625610E+03 0.  0.
        -24    2    5    5    0    0 -0.10029598892E+02 -0.27859742769E+02 -0.90596134340E+02  0.12013479696E+03  0.73129691386E+02 0.  0.
          5    1    3    3  501    0 -0.40129225599E+02  0.25938619444E+02 -0.77733724629E+02  0.91366233754E+02  0.47000000000E+01 0. -1.
        -13    1    4    4    0    0  0.30677845930E+02  0.38121250477E+02 -0.10361081002E+02  0.50017116754E+02  0.00000000000E+00 0.  1.
         14    1    4    4    0    0  0.71042519117E+02 -0.23576517522E+02 -0.71991051546E+02  0.10385375874E+03  0.00000000000E+00 0. -1.
         -5    1    5    5    0  502 -0.51561540557E+02 -0.12623609631E+02  0.47366213986E+02  0.71299342297E+02  0.47000000000E+01 0.  1.
         11    1    6    6    0    0  0.30854696675E+02 -0.92532786658E+01 -0.50636560015E+02  0.60014137361E+02  0.00000000000E+00 0. -1.
        -12    1    6    6    0    0 -0.40884295567E+02 -0.18606464103E+02 -0.39959574324E+02  0.60120659599E+02  0.00000000000E+00 0.  1.
</event>
<event>
12    1  0.9017558E-003  0.1766098E+03  0.7818608E-02  0.1171393E+00
         21   -1    0    0  501  502  0.00000000000E+00  0.00000000000E+00  0.34538047010E+03  0.34538047010E+03  0.00000000000E+00 0. -1.
         21   -1    0    0  502  503 -0.00000000000E+00 -0.00000000000E+00 -0.89802393997E+02  0.89802393997E+02  0.00000000000E+00 0. -1.
          6    2    1    2  501    0  0.13757792890E+02  0.41164216076E+02  0.12260035226E+03  0.21410798103E+03  0.17008119125E+03 0.  0.
         24    2    3    3    0    0 -0.38975150637E+02  0.51921062726E+02  0.30159716132E+02  0.10703868435E+03  0.79578969265E+02 0.  0.
         -6    2    1    2    0  503 -0.13757792890E+02 -0.41164216076E+02  0.13297772384E+03  0.22107488307E+03  0.17119363111E+03 0.  0.
        -24    2    5    5    0    0 -0.33836845050E+02  0.27992986352E+02  0.11485569062E+03  0.14666799446E+03  0.79944553065E+02 0.  0.
          5    1    3    3  501    0  0.52732943527E+02 -0.10756846650E+02  0.92440636133E+02  0.10706929668E+03  0.47000000000E+01 0. -1.
        -13    1    4    4    0    0  0.15708813235E+02  0.32885676802E+02 -0.84915653654E+01  0.37421133525E+02  0.00000000000E+00 0.  1.
         14    1    4    4    0    0 -0.54683963871E+02  0.19035385924E+02  0.38651281498E+02  0.69617550828E+02  0.00000000000E+00 0. -1.
         -5    1    5    5    0  503  0.20079052160E+02 -0.69157202428E+02  0.18122033222E+02  0.74406888601E+02  0.47000000000E+01 0.  1.
         13    1    6    6    0    0 -0.19711590101E+02 -0.24854798171E+02  0.21029843280E+02  0.38059980095E+02  0.00000000000E+00 0. -1.
        -14    1    6    6    0    0 -0.14125254948E+02  0.52847784523E+02  0.93825847339E+02  0.10860801437E+03  0.00000000000E+00 0.  1.
</event>
<event>
12    1  0.9017558E-003  0.2017316E+03  0.7818608E-02  0.1148306E+00
         21   -1    0    0  501  502  0.00000000000E+00  0.00000000000E+00  0.23499382242E+03  0.23499382242E+03  0.00000000000E+00 0.  1.
         21   -1    0    0  502  503 -0.00000000000E+00 -0.00000000000E+00 -0.20198309915E+03  0.20198309915E+03  0.00000000000E+00 0.  1.
          6    2    1    2  501    0 -0.10494353913E+03  0.13870254400E+02  0.99135607072E+02  0.22477437762E+03  0.17172688165E+03 0.  0.
         24    2    3    3    0    0 -0.21828460921E+02  0.63389167211E+02  0.48992193626E+02  0.11570242492E+03  0.80573865931E+02 0.  0.
         -6    2    1    2    0  503  0.10494353913E+03 -0.13870254400E+02 -0.66124883801E+02  0.21220254395E+03  0.17161552680E+03 0.  0.
        -24    2    5    5    0    0  0.39673061457E+02  0.49784155717E+02 -0.63604707471E+01  0.10308795166E+03  0.80834746392E+02 0.  0.
          5    1    3    3  501    0 -0.83115078209E+02 -0.49518912811E+02  0.50143413446E+02  0.10907195269E+03  0.47000000000E+01 0. -1.
        -13    1    4    4    0    0 -0.61652547500E+01 -0.12167313416E+02  0.34623009987E+02  0.37212991045E+02  0.00000000000E+00 0.  1.
         14    1    4    4    0    0 -0.15663206171E+02  0.75556480627E+02  0.14369183639E+02  0.78489433880E+02  0.00000000000E+00 0. -1.
         -5    1    5    5    0  503  0.65270477674E+02 -0.63654410117E+02 -0.59764413054E+02  0.10911459229E+03  0.47000000000E+01 0.  1.
         13    1    6    6    0    0  0.38911290700E+02  0.31763799331E+02 -0.40469129980E+02  0.64504092686E+02  0.00000000000E+00 0. -1.
        -14    1    6    6    0    0  0.76177075687E+00  0.18020356386E+02  0.34108659233E+02  0.38583858978E+02  0.00000000000E+00 0.  1.
</event>
<event>
12    1  0.9017558E-003  0.1733279E+03  0.7818608E-02  0.1174447E+00
         21   -1    0    0  501  502  0.00000000000E+00  0.00000000000E+00  0.19160190502E+03  0.19160190502E+03  0.00000000000E+00 0. -1.
         21   -1    0    0  502  503 -0.00000000000E+00 -0.00000000000E+00 -0.25832553474E+03  0.25832553474E+03  0.00000000000E+00 0. -1.
          6    2    1    2  501    0  0.15318874201E+02 -0.18714167732E+02  0.10774054591E+03  0.20399997975E+03  0.17153156714E+03 0.  0.
         24    2    3    3    0    0  0.67381747123E+02  0.52034411708E+01  0.10196092860E+03  0.14622378458E+03  0.80112349672E+02 0.  0.
         -6    2    1    2    0  503 -0.15318874201E+02  0.18714167732E+02 -0.17446417563E+03  0.24592746001E+03  0.17163239504E+03 0.  0.
        -24    2    5    5    0    0  0.38457386860E+02  0.57480240031E+02 -0.11393312016E+03  0.15603422727E+03  0.81135538536E+02 0.  0.
          5    1    3    3  501    0 -0.52062872922E+02 -0.23917608903E+02  0.57796173098E+01  0.57776195174E+02  0.47000000000E+01 0. -1.
        -11    1    4    4    0    0  0.61862064598E+02 -0.18865617853E+02  0.32252349619E+02  0.72270606953E+02  0.00000000000E+00 0.  1.
         12    1    4    4    0    0  0.55196825247E+01  0.24069059024E+02  0.69708578979E+02  0.73953177624E+02  0.00000000000E+00 0. -1.
         -5    1    5    5    0  503 -0.53776261061E+02 -0.38766072299E+02 -0.60531055468E+02  0.89893232734E+02  0.47000000000E+01 0.  1.
         11    1    6    6    0    0  0.11834553941E+02 -0.12035567187E+02 -0.64510043876E+02  0.66681761415E+02  0.00000000000E+00 0. -1.
        -12    1    6    6    0    0  0.26622832919E+02  0.69515807218E+02 -0.49423076284E+02  0.89352465860E+02  0.00000000000E+00 0.  1.
</event>
<event>
12    1  0.9017558E-003  0.2129875E+03  0.7818608E-02  0.1139391E+00
         21   -1    0    0  501  502  0.00000000000E+00  0.00000000000E+00  0.71586757195E+02  0.71586757195E+02  0.00000000000E+00 0.  1.
         21   -1    0    0  502  503 -0.00000000000E+00 -0.00000000000E+00 -0.63119862881E+03  0.63119862881E+03  0.00000000000E+00 0. -1.
          6    2    1    2  501    0 -0.11744084532E+03 -0.42786778538E+02 -0.27630652146E+03  0.34886810903E+03  0.17245464079E+03 0.  0.
         24    2    3    3    0    0 -0.14297642189E+03 -0.59941790296E+02 -0.19300691659E+03  0.25994525330E+03  0.79275402387E+02 0.  0.
         -6    2    1    2    0  503  0.11744084532E+03  0.42786778538E+02 -0.28330535015E+03  0.35391727697E+03  0.17138394600E+03 0.  0.
        -24    2    5    5    0    0  0.27614593558E+02  0.29978376240E+02 -0.23377141010E+03  0.25043533704E+03  0.80046967704E+02 0.  0.
          5    1    3    3  501    0  0.25535576570E+02  0.17155011758E+02 -0.83299604875E+02  0.88922855732E+02  0.47000000000E+01 0. -1.
        -11    1    4    4    0    0 -0.26958107423E+02  0.14486012911E+02 -0.13063878273E+02  0.33275351861E+02  0.00000000000E+00 0.  1.
         12    1    4    4    0    0 -0.11601831447E+03 -0.74427803207E+02 -0.17994303831E+03  0.22666990144E+03  0.00000000000E+00 0. -1.
         -5    1    5    5    0  503  0.89826251762E+02  0.12808402297E+02 -0.49533940056E+02  0.10348193993E+03  0.47000000000E+01 0.  1.
         11    1    6    6    0    0 -0.21351777693E+02  0.26004803173E+02 -0.50418672600E+02  0.60615103278E+02  0.00000000000E+00 0. -1.
        -12    1    6    6    0    0  0.48966371251E+02  0.39735730678E+01 -0.18335273750E+03  0.18982023376E+03  0.00000000000E+00 0.  1.
</event>
<event>
12    1  0.9017558E-003  0.1755809E+03  0.7818608E-02  0.1172192E+00
         21   -1    0    0  503  502  0.00000000000E+00  0.00000000000E+00  0.23370154468E+04  0.23370154468E+04  0.00000000000E+00 0.  1.
         21   -1    0    0  501  503 -0.00000000000E+00 -0.00000000000E+00 -0.13273727323E+02  0.13273727323E+02  0.00000000000E+00 0.  1.
          6    2    1    2  501    0  0.31794474614E+02  0.25175721570E+02  0.10630405767E+04  0.10774432359E+04  0.17083311568E+03 0.  0.
         24    2    3    3    0    0  0.83968908457E+02  0.41618158514E+02  0.70698843217E+03  0.71718257351E+03  0.75732105587E+02 0.  0.
         -6    2    1    2    0  502 -0.31794474614E+02 -0.25175721570E+02  0.12607011428E+04  0.12728459382E+04  0.17065961839E+03 0.  0.
        -24    2    5    5    0    0 -0.24055967229E+02  0.47767259363E+02  0.86787323391E+03  0.87320057169E+03  0.80092993705E+02 0.  0.
          5    1    3    3  501    0 -0.52174433843E+02 -0.16442436944E+02  0.35605214451E+03  0.36026066243E+03  0.47000000000E+01 0. -1.
        -13    1    4    4    0    0  0.70793521722E+02  0.34481962024E+01  0.30291948454E+03  0.31110099146E+03  0.00000000000E+00 0.  1.
         14    1    4    4    0    0  0.13175386735E+02  0.38169962311E+02  0.40406894763E+03  0.40608158205E+03  0.00000000000E+00 0. -1.
         -5    1    5    5    0  502 -0.77385073853E+01 -0.72942980933E+02  0.39282790890E+03  0.39964536651E+03  0.47000000000E+01 0.  1.
         13    1    6    6    0    0  0.12453208224E+02  0.51996210148E+02  0.35402871604E+03  0.35804332146E+03  0.00000000000E+00 0. -1.
        -14    1    6    6    0    0 -0.36509175452E+02 -0.42289507854E+01  0.51384451787E+03  0.51515725023E+03  0.00000000000E+00 0.  1.
</event>
<event>
12    1  0.9017558E-003  0.3877838E+03  0.7818608E-02  0.1048112E+00
         21   -1    0    0  501  502  0.00000000000E+00  0.00000000000E+00  0.20209884548E+04  0.20209884548E+04  0.00000000000E+00 0.  1.
         21   -1    0    0  502  503 -0.00000000000E+00 -0.00000000000E+00 -0.80800862223E+02  0.80800862223E+02  0.00000000000E+00 0.  1.
          6    2    1    2  501    0 -0.31918894139E+03  0.13810458718E+03  0.12668156398E+04  0.13248388972E+04  0.17152778495E+03 0.  0.
         24    2    3    3    0    0 -0.58275607268E+02  0.51335819214E+02  0.32070673324E+03  0.33957307517E+03  0.80160164012E+02 0.  0.
         -6    2    1    2    0  503  0.31918894139E+03 -0.13810458718E+03  0.67337195271E+03  0.77695041974E+03  0.17107808377E+03 0.  0.
        -24    2    5    5    0    0  0.13071240300E+03 -0.12048873340E+03  0.39158868180E+03  0.43745428487E+03  0.80132942472E+02 0.  0.
          5    1    3    3  501    0 -0.26091333412E+03  0.86768767964E+02  0.94610890658E+03  0.98526582207E+03  0.47000000000E+01 0. -1.
        -11    1    4    4    0    0 -0.41275998861E+02  0.30447917612E+02  0.30307267251E+03  0.30738221906E+03  0.00000000000E+00 0.  1.
         12    1    4    4    0    0 -0.16999608407E+02  0.20887901601E+02  0.17634060733E+02  0.32190856112E+02  0.00000000000E+00 0. -1.
         -5    1    5    5    0  503  0.18847653839E+03 -0.17615853781E+02  0.28178327091E+03  0.33949613487E+03  0.47000000000E+01 0.  1.
         13    1    6    6    0    0 -0.93175622449E+01 -0.78453231169E+01  0.10362328231E+02  0.15991995103E+02  0.00000000000E+00 0. -1.
        -14    1    6    6    0    0  0.14002996524E+03 -0.11264341028E+03  0.38122635356E+03  0.42146228977E+03  0.00000000000E+00 0.  1.
</event>
<event>
12    1  0.9017558E-003  0.2365079E+03  0.7818608E-02  0.1122507E+00
         21   -1    0    0  503  502  0.00000000000E+00  0.00000000000E+00  0.35550157815E+03  0.35550157815E+03  0.00000000000E+00 0.  1.
         21   -1    0    0  501  503 -0.00000000000E+00 -0.00000000000E+00 -0.15633063165E+03  0.15633063165E+03  0.00000000000E+00 0. -1.
          6    2    1    2  501    0 -0.56746810206E+02 -0.15131681702E+03  0.11316743650E+03  0.26218855862E+03  0.17268176513E+03 0.  0.
         24    2    3    3    0    0 -0.65541454851E+02 -0.97073783068E+02  0.14148090437E+03  0.20019343809E+03  0.79633941837E+02 0.  0.
         -6    2    1    2    0  502  0.56746810206E+02  0.15131681702E+03  0.86003510002E+02  0.24964365119E+03  0.16973028387E+03 0.  0.
        -24    2    5    5    0    0 -0.35139562992E+02  0.72472627992E+02  0.40924331093E+02  0.12036204347E+03  0.79530811248E+02 0.  0.
          5    1    3    3  501    0  0.87946446452E+01 -0.54243033949E+02 -0.28313467867E+02  0.61995120526E+02  0.47000000000E+01 0. -1.
        -11    1    4    4    0    0 -0.73665440637E+02 -0.44912108756E+02  0.68725775354E+02  0.11030379348E+03  0.00000000000E+00 0.  1.
         12    1    4    4    0    0  0.81239857855E+01 -0.52161674312E+02  0.72755129011E+02  0.89889644618E+02  0.00000000000E+00 0. -1.
         -5    1    5    5    0  502  0.91886373197E+02  0.78844189025E+02  0.45079178909E+02  0.12928160772E+03  0.47000000000E+01 0.  1.
         11    1    6    6    0    0 -0.30234321036E+01  0.30336071261E+02 -0.22375395797E+02  0.37816354906E+02  0.00000000000E+00 0. -1.
        -12    1    6    6    0    0 -0.32116130888E+02  0.42136556730E+02  0.63299726890E+02  0.82545688565E+02  0.00000000000E+00 0.  1.
</event>
<event>
12    1  0.9017558E-003  0.2028924E+03  0.7818608E-02  0.1147424E+00
         21   -1    0    0  501  502  0.00000000000E+00  0.00000000000E+00  0.62335954879E+02  0.62335954879E+02  0.00000000000E+00 0.  1.
         21   -1    0    0  502  503 -0.00000000000E+00 -0.00000000000E+00 -0.66961251224E+03  0.66961251224E+03  0.00000000000E+00 0.  1.
          6    2    1    2  501    0 -0.39855045196E+02  0.10054975869E+03 -0.25671123080E+03  0.32690357430E+03  0.17107487329E+03 0.  0.
         24    2    3    3    0    0  0.18126649985E+02  0.92200601821E+02 -0.21812775618E+03  0.25660165462E+03  0.97134776073E+02 0.  0.
         -6    2    1    2    0  503  0.39855045196E+02 -0.10054975869E+03 -0.35056532657E+03  0.40504489282E+03  0.17165849356E+03 0.  0.
        -24    2    5    5    0    0 -0.24599063243E+02 -0.89069354521E+00 -0.12641989666E+03  0.15137281098E+03  0.79535089013E+02 0.  0.
          5    1    3    3  501    0 -0.57981695181E+02  0.83491568687E+01 -0.38583474613E+02  0.70301919673E+02  0.47000000000E+01 0. -1.
        -11    1    4    4    0    0 -0.11304371308E+02  0.44787313053E+02 -0.19249558466E+02  0.50042359280E+02  0.00000000000E+00 0.  1.
         12    1    4    4    0    0  0.29431021292E+02  0.47413288768E+02 -0.19887819772E+03  0.20655929534E+03  0.00000000000E+00 0. -1.
         -5    1    5    5    0  503  0.64454108439E+02 -0.99659065144E+02 -0.22414542990E+03  0.25367208184E+03  0.47000000000E+01 0.  1.
         13    1    6    6    0    0 -0.31122536946E+02 -0.11793813907E+02 -0.13297431416E+03  0.13707616342E+03  0.00000000000E+00 0. -1.
        -14    1    6    6    0    0  0.65234737030E+01  0.10903120362E+02  0.65544174939E+01  0.14296647560E+02  0.00000000000E+00 0.  1.
</event>
<event>
12    1  0.9017558E-003  0.1760044E+03  0.7818608E-02  0.1172376E+00
         21   -1    0    0  503  502  0.00000000000E+00  0.00000000000E+00  0.28038023110E+04  0.28038023110E+04  0.00000000000E+00 0. -1.
         21   -1    0    0  501  503 -0.00000000000E+00 -0.00000000000E+00 -0.21287997655E+02  0.21287997655E+02  0.00000000000E+00 0. -1.
          6    2    1    2  501    0 -0.51915531837E+01 -0.35001827406E+02  0.39863619482E+03  0.43472371894E+03  0.16976989087E+03 0.  0.
         24    2    3    3    0    0 -0.70423876247E+01  0.46286103127E+02  0.23531506010E+03  0.25222156475E+03  0.77785227712E+02 0.  0.
         -6    2    1    2    0  502  0.51915531837E+01  0.35001827406E+02  0.23838781185E+04  0.23903665897E+04  0.17241075684E+03 0.  0.
        -24    2    5    5    0    0  0.49799224684E+02 -0.27694150142E+02  0.12225507119E+04  0.12264834060E+04  0.79902273318E+02 0.  0.
          5    1    3    3  501    0  0.18508344410E+01 -0.81287930534E+02  0.16332113472E+03  0.18250215419E+03  0.47000000000E+01 0. -1.
        -13    1    4    4    0    0 -0.40973903844E+02  0.32694192108E+02  0.11309260852E+03  0.12465034735E+03  0.00000000000E+00 0.  1.
         14    1    4    4    0    0  0.33931516219E+02  0.13591911019E+02  0.12222245158E+03  0.12757121740E+03  0.00000000000E+00 0. -1.
         -5    1    5    5    0  502 -0.44607671500E+02  0.62695977549E+02  0.11613274066E+04  0.11638831837E+04  0.47000000000E+01 0.  1.
         13    1    6    6    0    0 -0.21955148608E+02 -0.30340600975E+01  0.30044776118E+03  0.30126415530E+03  0.00000000000E+00 0. -1.
        -14    1    6    6    0    0  0.71754373292E+02 -0.24660090045E+02  0.92210295073E+03  0.92521925070E+03  0.00000000000E+00 0.  1.
</event>
<event>
12    1  0.9017558E-003  0.2241566E+03  0.7818608E-02  0.1131054E+00
         21   -1    0    0  501  502  0.00000000000E+00  0.00000000000E+00  0.44855587668E+03  0.44855587668E+03  0.00000000000E+00 0.  1.
         21   -1    0    0  502  503 -0.00000000000E+00 -0.00000000000E+00 -0.12017722231E+03  0.12017722231E+03  0.00000000000E+00 0.  1.
          6    2    1    2  501    0 -0.82674320575E+02 -0.11517207689E+03  0.24068812951E+03  0.32803454805E+03  0.17197743587E+03 0.  0.
         24    2    3    3    0    0 -0.33017414728E+02 -0.13592164302E+03  0.13881893697E+03  0.21272724046E+03  0.80108294552E+02 0.  0.
         -6    2    1    2    0  503  0.82674320575E+02  0.11517207689E+03  0.87690524869E+02  0.24069855095E+03  0.17362751423E+03 0.  0.
        -24    2    5    5    0    0  0.65164827221E+02  0.65964401375E+02 -0.17613734428E+02  0.12305903925E+03  0.78965350277E+02 0.  0.
          5    1    3    3  501    0 -0.49656905847E+02  0.20749566139E+02  0.10186919254E+03  0.11530730758E+03  0.47000000000E+01 0. -1.
        -13    1    4    4    0    0 -0.41960198500E+02 -0.77248400534E+02  0.12321366312E+03  0.15135911080E+03  0.00000000000E+00 0.  1.
         14    1    4    4    0    0  0.89427837719E+01 -0.58673242490E+02  0.15605273845E+02  0.61368129658E+02  0.00000000000E+00 0. -1.
         -5    1    5    5    0  503  0.17509493354E+02  0.49207675510E+02  0.10530425930E+03  0.11763951170E+03  0.47000000000E+01 0.  1.
         13    1    6    6    0    0  0.56649778907E+00  0.53745342287E+02 -0.19798787628E+02  0.57278920458E+02  0.00000000000E+00 0. -1.
        -14    1    6    6    0    0  0.64598329432E+02  0.12219059088E+02  0.21850532000E+01  0.65780118789E+02  0.00000000000E+00 0.  1.
</event>
<event>
12    1  0.9017558E-003  0.1796758E+03  0.7818608E-02  0.1170387E+00
         21   -1    0    0  501  502  0.00000000000E+00  0.00000000000E+00  0.38704675898E+03  0.38704675898E+03  0.00000000000E+00 0.  1.
         21   -1    0    0  502  503 -0.00000000000E+00 -0.00000000000E+00 -0.85739946092E+02  0.85739946092E+02  0.00000000000E+00 0.  1.
          6    2    1    2  501    0  0.19141136060E+02  0.13781423509E+01  0.21935145150E+03  0.28354620126E+03  0.17864799637E+03 0.  0.
         24    2    3    3    0    0 -0.55173880858E+02 -0.23117186290E+02  0.10719965300E+03  0.14671470353E+03  0.80342250383E+02 0.  0.
         -6    2    1    2    0  503 -0.19141136060E+02 -0.13781423509E+01  0.81955361389E+02  0.18924050381E+03  0.16949042645E+03 0.  0.
        -24    2    5    5    0    0 -0.13118387885E+02  0.59319945323E+01  0.12277830544E+03  0.14707043910E+03  0.79673842068E+02 0.  0.
          5    1    3    3  501    0  0.74315016919E+02  0.24495328641E+02  0.11215179850E+03  0.13683149774E+03  0.47000000000E+01 0. -1.
        -11    1    4    4    0    0 -0.34012608721E+02 -0.39618190102E+02  0.10790107568E+03  0.11987118366E+03  0.00000000000E+00 0.  1.
         12    1    4    4    0    0 -0.21161272137E+02  0.16501003811E+02 -0.70142267731E+00  0.26843519870E+02  0.00000000000E+00 0. -1.
         -5    1    5    5    0  503 -0.60227481749E+01 -0.73101368832E+01 -0.40822944053E+02  0.42170064714E+02  0.47000000000E+01 0.  1.
         13    1    6    6    0    0 -0.20083563291E+02  0.40277499961E+02  0.79783711263E+02  0.91602767973E+02  0.00000000000E+00 0. -1.
        -14    1    6    6    0    0  0.69651754053E+01 -0.34345505428E+02  0.42994594180E+02  0.55467671127E+02  0.00000000000E+00 0.  1.
</event>
<event>
12    1  0.9017558E-003  0.2210660E+03  0.7818608E-02  0.1133371E+00
         21   -1    0    0  501  502  0.00000000000E+00  0.00000000000E+00  0.16126314066E+03  0.16126314066E+03  0.00000000000E+00 0.  1.
         21   -1    0    0  502  503 -0.00000000000E+00 -0.00000000000E+00 -0.30746421447E+03  0.30746421447E+03  0.00000000000E+00 0.  1.
          6    2    1    2  501    0  0.20972937042E+02 -0.13872180714E+03 -0.10688980545E+03  0.24419324166E+03  0.16888251805E+03 0.  0.
         24    2    3    3    0    0  0.60470123564E+01 -0.12909635421E+03 -0.13988663692E+03  0.20642667631E+03  0.79632069385E+02 0.  0.
         -6    2    1    2    0  503 -0.20972937042E+02  0.13872180714E+03 -0.39311268365E+02  0.22453411346E+03  0.17084082774E+03 0.  0.
        -24    2    5    5    0    0 -0.71570060383E+02  0.50587520459E+02 -0.29407539841E+02  0.12231916731E+03  0.80098717356E+02 0.  0.
          5    1    3    3  501    0  0.14925924685E+02 -0.96254529243E+01  0.32996831469E+02  0.37766565355E+02  0.47000000000E+01 0. -1.
        -13    1    4    4    0    0  0.40070099279E+02 -0.46617457378E+02 -0.69493907018E+02  0.92780403649E+02  0.00000000000E+00 0.  1.
         14    1    4    4    0    0 -0.34023086923E+02 -0.82478896835E+02 -0.70392729899E+02  0.11364627266E+03  0.00000000000E+00 0. -1.
         -5    1    5    5    0  503  0.50597123341E+02  0.88134286678E+02 -0.99037285240E+01  0.10221494615E+03  0.47000000000E+01 0.  1.
         11    1    6    6    0    0 -0.65377721962E+02  0.61314685952E+02 -0.46685051507E+02  0.10106053273E+03  0.00000000000E+00 0. -1.
        -12    1    6    6    0    0 -0.61923384209E+01 -0.10727165492E+02  0.17277511666E+02  0.21258634575E+02  0.00000000000E+00 0.  1.
</event>
<event>
12    1  0.9017558E-003  0.2413150E+03  0.7818608E-02  0.1119698E+00
         21   -1    0    0  501  502  0.00000000000E+00  0.00000000000E+00  0.84672808980E+03  0.84672808980E+03  0.00000000000E+00 0.  1.
         21   -1    0    0  502  503 -0.00000000000E+00 -0.00000000000E+00 -0.72452725954E+02  0.72452725954E+02  0.00000000000E+00 0. -1.
          6    2    1    2  501    0 -0.14899736143E+03 -0.79341576650E+02  0.26992900104E+03  0.36206985312E+03  0.17244597252E+03 0.  0.
         24    2    3    3    0    0 -0.29624630254E+02 -0.73610268864E+02  0.18496003483E+03  0.21535750853E+03  0.76632575284E+02 0.  0.
         -6    2    1    2    0  503  0.14899736143E+03  0.79341576650E+02  0.50434636281E+03  0.55711096263E+03  0.16586763249E+03 0.  0.
        -24    2    5    5    0    0  0.15018057175E+03  0.31005856139E+02  0.45977110357E+03  0.49118080565E+03  0.79709151997E+02 0.  0.
          5    1    3    3  501    0 -0.11937273118E+03 -0.57313077867E+01  0.84968966205E+02  0.14671234459E+03  0.47000000000E+01 0. -1.
        -13    1    4    4    0    0 -0.45727971431E+02 -0.74920418691E+02  0.12159325077E+03  0.14996344601E+03  0.00000000000E+00 0.  1.
         14    1    4    4    0    0  0.16103341176E+02  0.13101498269E+01  0.63366784064E+02  0.65394062515E+02  0.00000000000E+00 0. -1.
         -5    1    5    5    0  503 -0.11832103147E+01  0.48335720511E+02  0.44575259241E+02  0.65930156987E+02  0.47000000000E+01 0.  1.
         13    1    6    6    0    0 -0.49421610314E+00 -0.50786878352E+01  0.91541269401E+02  0.91683375392E+02  0.00000000000E+00 0. -1.
        -14    1    6    6    0    0  0.15067478785E+03  0.36084543975E+02  0.36822983417E+03  0.39949743026E+03  0.00000000000E+00 0.  1.
</event>
<event>
12    1  0.9017558E-003  0.1756546E+03  0.7818608E-02  0.1172318E+00
         21   -1    0    0  501  502  0.00000000000E+00  0.00000000000E+00  0.57464847816E+03  0.57464847816E+03  0.00000000000E+00 0.  1.
         21   -1    0    0  502  503 -0.00000000000E+00 -0.00000000000E+00 -0.53844438460E+02  0.53844438460E+02  0.00000000000E+00 0. -1.
          6    2    1    2  501    0  0.19998637348E+02  0.14276766813E+02  0.23251434282E+03  0.29140603192E+03  0.17392752587E+03 0.  0.
         24    2    3    3    0    0  0.79394721219E+02  0.23933359684E+02  0.16910598614E+03  0.20386258977E+03  0.78017904995E+02 0.  0.
         -6    2    1    2    0  503 -0.19998637348E+02 -0.14276766813E+02  0.28828969689E+03  0.33708688471E+03  0.17295330857E+03 0.  0.
        -24    2    5    5    0    0  0.17839413673E+01 -0.67386212394E+02  0.12242150657E+03  0.16150374057E+03  0.80946580411E+02 0.  0.
          5    1    3    3  501    0 -0.59396083871E+02 -0.96565928716E+01  0.63408356682E+02  0.87543442143E+02  0.47000000000E+01 0. -1.
        -13    1    4    4    0    0  0.65025880117E+01 -0.21016954011E+02  0.67425309053E+02  0.70923679456E+02  0.00000000000E+00 0.  1.
         14    1    4    4    0    0  0.72892133207E+02  0.44950313695E+02  0.10168067708E+03  0.13293891032E+03  0.00000000000E+00 0. -1.
         -5    1    5    5    0  503 -0.21782578715E+02  0.53109445581E+02  0.16586819032E+03  0.17558314413E+03  0.47000000000E+01 0.  1.
         11    1    6    6    0    0 -0.64906424280E+01 -0.18539276007E+00 -0.10491564607E+02  0.12338384720E+02  0.00000000000E+00 0. -1.
        -12    1    6    6    0    0  0.82745837953E+01 -0.67200819634E+02  0.13291307118E+03  0.14916535585E+03  0.00000000000E+00 0.  1.
</event>
<event>
12    1  0.9017558E-003  0.2086495E+03  0.7818608E-02  0.1143180E+00
         21   -1    0    0  501  502  0.00000000000E+00  0.00000000000E+00  0.18622060576E+03  0.18622060576E+03  0.00000000000E+00 0. -1.
         21   -1    0    0  502  503 -0.00000000000E+00 -0.00000000000E+00 -0.23082359126E+03  0.23082359126E+03  0.00000000000E+00 0. -1.
          6    2    1    2  501    0 -0.74197923917E+02  0.87041063861E+02 -0.19523935103E+02  0.20956100998E+03  0.17450832115E+03 0.  0.
         24    2    3    3    0    0  0.28866983685E+02  0.44714107374E+02 -0.20538940478E+02  0.98039412695E+02  0.79732203157E+02 0.  0.
         -6    2    1    2    0  503  0.74197923917E+02 -0.87041063861E+02 -0.25079050397E+02  0.20748318704E+03  0.17128582961E+03 0.  0.
        -24    2    5    5    0    0  0.72306207057E+02  0.62644368952E+01 -0.36792232707E+02  0.11330896709E+03  0.78853172968E+02 0.  0.
          5    1    3    3  501    0 -0.10306490760E+03  0.42326956487E+02  0.10150053746E+01  0.11152159728E+03  0.47000000000E+01 0. -1.
        -11    1    4    4    0    0 -0.46980719272E+01 -0.21205829712E+02 -0.71319632062E+01  0.22860970950E+02  0.00000000000E+00 0.  1.
         12    1    4    4    0    0  0.33565055612E+02  0.65919937086E+02 -0.13406977271E+02  0.75178441745E+02  0.00000000000E+00 0. -1.
         -5    1    5    5    0  503  0.18917168599E+01 -0.93305500756E+02  0.11713182311E+02  0.94174219953E+02  0.47000000000E+01 0.  1.
         13    1    6    6    0    0  0.21499767406E+02 -0.26158978370E+02  0.11833233200E+02  0.35868615192E+02  0.00000000000E+00 0. -1.
        -14    1    6    6    0    0  0.50806439651E+02  0.32423415265E+02 -0.48625465907E+02  0.77440351899E+02  0.00000000000E+00 0.  1.
</event>
<event>
12    1  0.9017558E-003  0.2273327E+03  0.7818608E-02  0.1128868E+00
         21   -1    0    0  503  502  0.00000000000E+00  0.00000000000E+00  0.10367615106E+04  0.10367615106E+04  0.00000000000E+00 0.  1.
         21   -1    0    0  501  503 -0.00000000000E+00 -0.00000000000E+00 -0.49683189676E+02  0.49683189676E+02  0.00000000000E+00 0.  1.
          6    2    1    2  501    0  0.13772484053E+03  0.50381982540E+02  0.45731208146E+03  0.51070000431E+03  0.17370572438E+03 0.  0.
         24    2    3    3    0    0  0.13907308676E+03  0.36167528663E+02  0.46551180688E+03  0.49357709673E+03  0.79168772101E+02 0.  0.
         -6    2    1    2    0  502 -0.13772484053E+03 -0.50381982540E+02  0.52976623945E+03  0.57574469596E+03  0.17124021316E+03 0.  0.
        -24    2    5    5    0    0 -0.59967491182E-01 -0.21113829825E+01  0.19659587302E+03  0.21200543341E+03  0.79321529073E+02 0.  0.
          5    1    3    3  501    0 -0.13482462341E+01  0.14214453878E+02 -0.81997254208E+01  0.17122907578E+02  0.47000000000E+01 0. -1.
        -13    1    4    4    0    0  0.90360310276E+02  0.42470626260E+02  0.39645013331E+03  0.40882936290E+03  0.00000000000E+00 0.  1.
         14    1    4    4    0    0  0.48712776486E+02 -0.63030975969E+01  0.69061673576E+02  0.84747733830E+02  0.00000000000E+00 0. -1.
         -5    1    5    5    0  502 -0.13766487304E+03 -0.48270599558E+02  0.33317036643E+03  0.36373926255E+03  0.47000000000E+01 0.  1.
         13    1    6    6    0    0 -0.10905533825E+01  0.19318937255E+00  0.20409231792E+03  0.20409532298E+03  0.00000000000E+00 0. -1.
        -14    1    6    6    0    0  0.10305858913E+01 -0.23045723550E+01 -0.74964448970E+01  0.79101104362E+01  0.00000000000E+00 0.  1.
</event>
<event>
12    1  0.9017558E-003  0.2139911E+03  0.7818608E-02  0.1138932E+00
         21   -1    0    0  501  502  0.00000000000E+00  0.00000000000E+00  0.17883509701E+02  0.17883509701E+02  0.00000000000E+00 0. -1.
         21   -1    0    0  502  503 -0.00000000000E+00 -0.00000000000E+00 -0.26955815470E+04  0.26955815470E+04  0.00000000000E+00 0. -1.
          6    2    1    2  501    0  0.12334921548E+03 -0.11932187981E+02 -0.16670248118E+04  0.16803858830E+04  0.17136973679E+03 0.  0.
         24    2    3    3    0    0  0.70233473705E+02 -0.47909918771E+02 -0.14320811153E+04  0.14367954282E+04  0.79351627013E+02 0.  0.
         -6    2    1    2    0  503 -0.12334921548E+03  0.11932187981E+02 -0.10106732255E+04  0.10330791737E+04  0.17445573722E+03 0.  0.
        -24    2    5    5    0    0 -0.43661648843E+01 -0.32435619838E+02 -0.45433239035E+03  0.46241054516E+03  0.79589311641E+02 0.  0.
          5    1    3    3  501    0  0.53115741771E+02  0.35977730790E+02 -0.23494369652E+03  0.24359045480E+03  0.47000000000E+01 0. -1.
        -13    1    4    4    0    0  0.40841398424E+02 -0.68855224793E+02 -0.95285619483E+03  0.95621336000E+03  0.00000000000E+00 0.  1.
         14    1    4    4    0    0  0.29392075281E+02  0.20945306021E+02 -0.47922492042E+03  0.48058206821E+03  0.00000000000E+00 0. -1.
         -5    1    5    5    0  503 -0.11898305059E+03  0.44367807819E+02 -0.55634083514E+03  0.57066862849E+03  0.47000000000E+01 0.  1.
         13    1    6    6    0    0 -0.30406089820E+02 -0.66752822209E+01 -0.35797495979E+03  0.35932598226E+03  0.00000000000E+00 0. -1.
        -14    1    6    6    0    0  0.26039924935E+02 -0.25760337617E+02 -0.96357430555E+02  0.10308456290E+03  0.00000000000E+00 0.  1.
</event>
<event>
12    1  0.9017558E-003  0.2219128E+03  0.7818608E-02  0.1132655E+00
         21   -1    0    0  503  502  0.00000000000E+00  0.00000000000E+00  0.16404974068E+03  0.16404974068E+03  0.00000000000E+00 0.  1.
         21   -1    0    0  501  503 -0.00000000000E+00 -0.00000000000E+00 -0.29933650066E+03  0.29933650066E+03  0.00000000000E+00 0.  1.
          6    2    1    2  501    0 -0.10931835135E+03  0.87453479542E+02 -0.57961210361E+02  0.22935735497E+03  0.17218211680E+03 0.  0.
         24    2    3    3    0    0 -0.53739426141E+02 -0.21260475966E+02 -0.40709863347E+02  0.10595784110E+03  0.78929318737E+02 0.  0.
         -6    2    1    2    0  502  0.10931835135E+03 -0.87453479542E+02 -0.77325549615E+02  0.23402888638E+03  0.17085568767E+03 0.  0.
        -24    2    5    5    0    0 -0.17987161977E+01 -0.18919678397E+02 -0.14439311947E+01  0.82952764460E+02  0.80733429158E+02 0.  0.
          5    1    3    3  501    0 -0.55578925205E+02  0.10871395551E+03 -0.17251347014E+02  0.12339951387E+03  0.47000000000E+01 0. -1.
        -11    1    4    4    0    0 -0.39728110778E+02  0.17663078407E+02  0.56281627670E+01  0.43840430437E+02  0.00000000000E+00 0.  1.
         12    1    4    4    0    0 -0.14011315363E+02 -0.38923554372E+02 -0.46338026114E+02  0.62117410662E+02  0.00000000000E+00 0. -1.
         -5    1    5    5    0  502  0.11111706754E+03 -0.68533801146E+02 -0.75881618421E+02  0.15107612192E+03  0.47000000000E+01 0.  1.
         13    1    6    6    0    0  0.17759822265E+02  0.25119244492E+02 -0.13003665892E+02  0.33398848144E+02  0.00000000000E+00 0. -1.
        -14    1    6    6    0    0 -0.19558538463E+02 -0.44038922888E+02  0.11559734697E+02  0.49553916316E+02  0.00000000000E+00 0.  1.
</event>
<event>
12    1  0.9017558E-003  0.1739367E+03  0.7818608E-02  0.1173817E+00
         21   -1    0    0  501  502  0.00000000000E+00  0.00000000000E+00  0.11734028612E+03  0.11734028612E+03  0.00000000000E+00 0. -1.
         21   -1    0    0  502  503 -0.00000000000E+00 -0.00000000000E+00 -0.27130734922E+03  0.27130734922E+03  0.00000000000E+00 0. -1.
          6    2    1    2  501    0  0.51325567407E+01  0.18611161620E+02 -0.12043330268E+03  0.21156120144E+03  0.17286191913E+03 0.  0.
         24    2    3    3    0    0  0.66224897526E+02  0.36890091928E+02 -0.72556155541E+02  0.13168188864E+03  0.79555692153E+02 0.  0.
         -6    2    1    2    0  503 -0.51325567407E+01 -0.18611161620E+02 -0.33533760424E+02  0.17708643390E+03  0.17280733059E+03 0.  0.
        -24    2    5    5    0    0 -0.51660420424E+02 -0.63139027499E+02 -0.21718567699E+02  0.11144146670E+03  0.72747291950E+02 0.  0.
          5    1    3    3  501    0 -0.61092340785E+02 -0.18278930308E+02 -0.47877147135E+02  0.79879312801E+02  0.47000000000E+01 0. -1.
        -11    1    4    4    0    0  0.34752731020E+02  0.41017452285E+01  0.10900588356E+02  0.36652414024E+02  0.00000000000E+00 0.  1.
         12    1    4    4    0    0  0.31472166506E+02  0.32788346699E+02 -0.83456743897E+02  0.95029474616E+02  0.00000000000E+00 0. -1.
         -5    1    5    5    0  503  0.46527863683E+02  0.44527865879E+02 -0.11815192725E+02  0.65644967193E+02  0.47000000000E+01 0.  1.
         13    1    6    6    0    0 -0.27454414018E+01 -0.11947316560E+02  0.24146405870E+02  0.27079969312E+02  0.00000000000E+00 0. -1.
        -14    1    6    6    0    0 -0.48914979022E+02 -0.51191710939E+02 -0.45864973569E+02  0.84361497391E+02  0.00000000000E+00 0.  1.
</event>
<event>
12    1  0.9017558E-003  0.1917069E+03  0.7818608E-02  0.1157391E+00
         21   -1    0    0  503  502  0.00000000000E+00  0.00000000000E+00  0.19616935865E+04  0.19616935865E+04  0.00000000000E+00 0.  1.
         21   -1    0    0  501  503 -0.00000000000E+00 -0.00000000000E+00 -0.18797447875E+02  0.18797447875E+02  0.00000000000E+00 0.  1.
          6    2    1    2  501    0 -0.36082594439E+02  0.64548392369E+02  0.84918222036E+03  0.87010296040E+03  0.17464326425E+03 0.  0.
         24    2    3    3    0    0 -0.86360219661E+02  0.69158703403E+02  0.67827969152E+03  0.69183670187E+03  0.79584347310E+02 0.  0.
         -6    2    1    2    0  502  0.36082594439E+02 -0.64548392369E+02  0.10937139182E+04  0.11103880739E+04  0.17687026667E+03 0.  0.
        -24    2    5    5    0    0 -0.39616896383E+02 -0.45004301170E+01  0.39008063102E+03  0.40013596127E+03  0.79725381483E+02 0.  0.
          5    1    3    3  501    0  0.50277625222E+02 -0.46103110339E+01  0.17090252884E+03  0.17826625853E+03  0.47000000000E+01 0. -1.
        -11    1    4    4    0    0 -0.13411712554E+02  0.35689951946E+02  0.85082455348E+02  0.93234494215E+02  0.00000000000E+00 0.  1.
         12    1    4    4    0    0 -0.72948507107E+02  0.33468751457E+02  0.59319723617E+03  0.59860220766E+03  0.00000000000E+00 0. -1.
         -5    1    5    5    0  502  0.75699490823E+02 -0.60047962252E+02  0.70363328721E+03  0.71025211267E+03  0.47000000000E+01 0.  1.
         13    1    6    6    0    0  0.54997461702E+01  0.90647342864E+01  0.42227601828E+01  0.11412638572E+02  0.00000000000E+00 0. -1.
        -14    1    6    6    0    0 -0.45116642554E+02 -0.13565164403E+02  0.38585787084E+03  0.38872332270E+03  0.00000000000E+00 0.  1.
</event>
<event>
12    1  0.9017558E-003  0.1787368E+03  0.7818608E-02  0.1170366E+00
         21   -1    0    0  501  502  0.00000000000E+00  0.00000000000E+00  0.29762838576E+03  0.29762838576E+03  0.00000000000E+00 0. -1.
         21   -1    0    0  502  503 -0.00000000000E+00 -0.00000000000E+00 -0.10415263555E+03  0.10415263555E+03  0.00000000000E+00 0. -1.
          6    2    1    2  501    0  0.20298732705E+02 -0.44667740353E+02  0.10095558254E+03  0.20527752232E+03  0.17187084088E+03 0.  0.
         24    2    3    3    0    0 -0.26708659226E+02 -0.13154409330E+02  0.11741427393E+03  0.14615254071E+03  0.81780575154E+02 0.  0.
         -6    2    1    2    0  503 -0.20298732705E+02  0.44667740353E+02  0.92520167663E+02  0.19650349899E+03  0.16627206053E+03 0.  0.
        -24    2    5    5    0    0  0.29725345250E+02 -0.73350705525E+01  0.90759048633E+02  0.12417167848E+03  0.79018994034E+02 0.  0.
          5    1    3    3  501    0  0.47007391932E+02 -0.31513331024E+02 -0.16458691382E+02  0.59124981610E+02  0.47000000000E+01 0. -1.
        -13    1    4    4    0    0 -0.35233098102E+02 -0.42752955209E+02  0.84796730073E+02  0.10129003807E+03  0.00000000000E+00 0.  1.
         14    1    4    4    0    0  0.85244388757E+01  0.29598545880E+02  0.32617543854E+02  0.44862502643E+02  0.00000000000E+00 0. -1.
         -5    1    5    5    0  503 -0.50024077955E+02  0.52002810906E+02  0.17611190304E+01  0.72331820505E+02  0.47000000000E+01 0.  1.
         13    1    6    6    0    0 -0.89675474255E+01 -0.35170164073E+02  0.31003633234E+02  0.47734501374E+02  0.00000000000E+00 0. -1.
        -14    1    6    6    0    0  0.38692892675E+02  0.27835093520E+02  0.59755415399E+02  0.76437177108E+02  0.00000000000E+00 0.  1.
</event>
<event>
12    1  0.9017558E-003  0.1895022E+03  0.7818608E-02  0.1159001E+00
         21   -1    0    0  503  502  0.00000000000E+00  0.00000000000E+00  0.26773691401E+03  0.26773691401E+03  0.00000000000E+00 0. -1.
         21   -1    0    0  501  503 -0.00000000000E+00 -0.00000000000E+00 -0.13675170831E+03  0.13675170831E+03  0.00000000000E+00 0.  1.
          6    2    1    2  501    0 -0.66478175855E+02 -0.42965121191E+02  0.36088540663E+02  0.19290787375E+03  0.17217931200E+03 0.  0.
         24    2    3    3    0    0  0.15427351813E+02  0.83585931247E+01 -0.11427650948E+02  0.85100093049E+02  0.82483727897E+02 0.  0.
         -6    2    1    2    0  502  0.66478175855E+02  0.42965121191E+02  0.94896665031E+02  0.21158074857E+03  0.17174308321E+03 0.  0.
        -24    2    5    5    0    0  0.10393454548E+03  0.10816503874E+01  0.52151561911E+02  0.14082455737E+03  0.79424245903E+02 0.  0.
          5    1    3    3  501    0 -0.81905527668E+02 -0.51323714316E+02  0.47516191611E+02  0.10780778070E+03  0.47000000000E+01 0. -1.
        -11    1    4    4    0    0  0.18790916507E+02 -0.33679703646E+02 -0.17750894191E+02  0.42456038740E+02  0.00000000000E+00 0.  1.
         12    1    4    4    0    0 -0.33635646935E+01  0.42038296771E+02  0.63232432429E+01  0.42644054310E+02  0.00000000000E+00 0. -1.
         -5    1    5    5    0  502 -0.37456369630E+02  0.41883470804E+02  0.42745103120E+02  0.70756191200E+02  0.47000000000E+01 0.  1.
         11    1    6    6    0    0  0.51103919219E+02  0.39532852994E+02  0.33991350108E+02  0.73005951179E+02  0.00000000000E+00 0. -1.
        -12    1    6    6    0    0  0.52830626265E+02 -0.38451202607E+02  0.18160211803E+02  0.67818606195E+02  0.00000000000E+00 0.  1.
</event>
<event>
12    1  0.9017558E-003  0.2178673E+03  0.7818608E-02  0.1136138E+00
         21   -1    0    0  501  502  0.00000000000E+00  0.00000000000E+00  0.17944879597E+03  0.17944879597E+03  0.00000000000E+00 0. -1.
         21   -1    0    0  502  503 -0.00000000000E+00 -0.00000000000E+00 -0.29764835963E+03  0.29764835963E+03  0.00000000000E+00 0.  1.
          6    2    1    2  501    0 -0.23920340036E+02 -0.12416682968E+03  0.25749668808E+02  0.21596974171E+03  0.17317707595E+03 0.  0.
         24    2    3    3    0    0  0.21855740513E+02 -0.92252435333E+02 -0.35140149994E+02  0.13324345719E+03  0.86780202379E+02 0.  0.
         -6    2    1    2    0  503  0.23920340036E+02  0.12416682968E+03 -0.14394923247E+03  0.26112741388E+03  0.17741634788E+03 0.  0.
        -24    2    5    5    0    0 -0.29634223693E+02  0.88640108513E+02 -0.15257086686E+03  0.19611463212E+03  0.80298340370E+02 0.  0.
          5    1    3    3  501    0 -0.45776080549E+02 -0.31914394344E+02  0.60889818803E+02  0.82726284521E+02  0.47000000000E+01 0. -1.
        -11    1    4    4    0    0  0.35204993668E+02 -0.42637357500E+01  0.46349423658E+01  0.35763860424E+02  0.00000000000E+00 0.  1.
         12    1    4    4    0    0 -0.13349253155E+02 -0.87988699583E+02 -0.39775092360E+02  0.97479596770E+02  0.00000000000E+00 0. -1.
         -5    1    5    5    0  503  0.53554563729E+02  0.35526721164E+02  0.86216343931E+01  0.65012781762E+02  0.47000000000E+01 0.  1.
         13    1    6    6    0    0 -0.71717323739E+01 -0.78247528510E+01  0.35792699786E+01  0.11201414018E+02  0.00000000000E+00 0. -1.
        -14    1    6    6    0    0 -0.22462491319E+02  0.96464861364E+02 -0.15615013684E+03  0.18491321810E+03  0.00000000000E+00 0.  1.
</event>
<event>
12    1  0.9017558E-003  0.2371916E+03  0.7818608E-02  0.1122059E+00
         21   -1    0    0  501  502  0.00000000000E+00  0.00000000000E+00  0.63674616893E+02  0.63674616893E+02  0.00000000000E+00 0.  1.
         21   -1    0    0  502  503 -0.00000000000E+00 -0.00000000000E+00 -0.87825087967E+03  0.87825087967E+03  0.00000000000E+00 0. -1.
          6    2    1    2  501    0  0.39242837835E+02 -0.15772128752E+03 -0.37770853231E+03  0.44482058668E+03  0.16966323732E+03 0.  0.
         24    2    3    3    0    0  0.88050917569E+02 -0.14273548168E+03 -0.29215493491E+03  0.34507936625E+03  0.74825672120E+02 0.  0.
         -6    2    1    2    0  503 -0.39242837835E+02  0.15772128752E+03 -0.43686773046E+03  0.49710490988E+03  0.17275379199E+03 0.  0.
        -24    2    5    5    0    0  0.42135882490E+02  0.10608127172E+03 -0.28351385988E+03  0.31591802576E+03  0.79971378967E+02 0.  0.
          5    1    3    3  501    0 -0.48808079733E+02 -0.14985805842E+02 -0.85553597403E+02  0.99741220429E+02  0.47000000000E+01 0. -1.
        -13    1    4    4    0    0  0.46931458439E+02 -0.19659044963E+02 -0.11239635188E+03  0.12337738754E+03  0.00000000000E+00 0.  1.
         14    1    4    4    0    0  0.41119459130E+02 -0.12307643671E+03 -0.17975858303E+03  0.22170197871E+03  0.00000000000E+00 0. -1.
         -5    1    5    5    0  503 -0.81378720326E+02  0.51640015797E+02 -0.15335387058E+03  0.18118688412E+03  0.47000000000E+01 0.  1.
         11    1    6    6    0    0  0.20792335642E+02 -0.41357841212E+01 -0.87498521996E+02  0.90030090988E+02  0.00000000000E+00 0. -1.
        -12    1    6    6    0    0  0.21343546848E+02  0.11021705584E+03 -0.19601533788E+03  0.22588793477E+03  0.00000000000E+00 0.  1.
</event>
<event>
12    1  0.9017558E-003  0.2903970E+03  0.7818608E-02  0.1090366E+00
         21   -1    0    0  503  502  0.00000000000E+00  0.00000000000E+00  0.31236969815E+03  0.31236969815E+03  0.00000000000E+00 0.  1.
         21   -1    0    0  501  503 -0.00000000000E+00 -0.00000000000E+00 -0.32757998432E+03  0.32757998432E+03  0.00000000000E+00 0.  1.
          6    2    1    2  501    0  0.96482690065E+02  0.21060530416E+03 -0.14361380922E+03  0.32243136918E+03  0.17226014631E+03 0.  0.
         24    2    3    3    0    0  0.35883547590E+02  0.16424911951E+03 -0.15898905095E+03  0.24445932301E+03  0.78850745323E+02 0.  0.
         -6    2    1    2    0  502 -0.96482690065E+02 -0.21060530416E+03  0.12840352305E+03  0.31751831329E+03  0.17511970454E+03 0.  0.
        -24    2    5    5    0    0 -0.89968612499E+02 -0.12521964042E+03  0.12957701664E+02  0.17370255458E+03  0.78932666573E+02 0.  0.
          5    1    3    3  501    0  0.60599142475E+02  0.46356184650E+02  0.15375241733E+02  0.77972046160E+02  0.47000000000E+01 0. -1.
        -11    1    4    4    0    0  0.59030432080E+02  0.10002984785E+03 -0.11371197091E+03  0.16254530046E+03  0.00000000000E+00 0.  1.
         12    1    4    4    0    0 -0.23146884490E+02  0.64219271661E+02 -0.45277080037E+02  0.81914022554E+02  0.00000000000E+00 0. -1.
         -5    1    5    5    0  502 -0.65140775663E+01 -0.85385663747E+02  0.11544582138E+03  0.14381575872E+03  0.47000000000E+01 0.  1.
         11    1    6    6    0    0 -0.49003109401E+02 -0.93658070605E+01  0.93994966497E+01  0.50767840314E+02  0.00000000000E+00 0. -1.
        -12    1    6    6    0    0 -0.40965503098E+02 -0.11585383336E+03  0.35582050143E+01  0.12293471426E+03  0.00000000000E+00 0.  1.
</event>
<event>
12    1  0.9017558E-003  0.2079891E+03  0.7818608E-02  0.1143322E+00
         21   -1    0    0  503  502  0.00000000000E+00  0.00000000000E+00  0.28870065791E+02  0.28870065791E+02  0.00000000000E+00 0.  1.
         21   -1    0    0  501  503 -0.00000000000E+00 -0.00000000000E+00 -0.17117995853E+04  0.17117995853E+04  0.00000000000E+00 0. -1.
          6    2    1    2  501    0 -0.17940785129E+02  0.11391748752E+03 -0.11540359706E+04  0.11726288797E+04  0.17309073420E+03 0.  0.
         24    2    3    3    0    0 -0.42889169683E+02 -0.27091513680E+01 -0.38724491782E+03  0.39660387787E+03  0.74089062555E+02 0.  0.
         -6    2    1    2    0  502  0.17940785129E+02 -0.11391748752E+03 -0.52889354896E+03  0.56804077147E+03  0.17217103760E+03 0.  0.
        -24    2    5    5    0    0  0.74090026318E+02 -0.98806685251E+02 -0.35583647564E+03  0.38541570677E+03  0.81691961528E+02 0.  0.
          5    1    3    3  501    0  0.24948384554E+02  0.11662663888E+03 -0.76679105276E+03  0.77602500178E+03  0.47000000000E+01 0. -1.
        -11    1    4    4    0    0 -0.19406837428E+01 -0.30107516025E+02 -0.22585067224E+03  0.22785687377E+03  0.00000000000E+00 0.  1.
         12    1    4    4    0    0 -0.40948485940E+02  0.27398364657E+02 -0.16139424558E+03  0.16874700410E+03  0.00000000000E+00 0. -1.
         -5    1    5    5    0  502 -0.56149241188E+02 -0.15110802266E+02 -0.17305707332E+03  0.18262506470E+03  0.47000000000E+01 0.  1.
         11    1    6    6    0    0  0.16614111997E+02  0.80206345983E+01 -0.15464952625E+02  0.24073305891E+02  0.00000000000E+00 0. -1.
        -12    1    6    6    0    0  0.57475914321E+02 -0.10682731985E+03 -0.34037152301E+03  0.36134240088E+03  0.00000000000E+00 0.  1.
</event>
<event>
12    1  0.9017558E-003  0.1827438E+03  0.7818608E-02  0.1165200E+00
         21   -1    0    0  501  502  0.00000000000E+00  0.00000000000E+00  0.21411637327E+03  0.21411637327E+03  0.00000000000E+00 0.  1.
         21   -1    0    0  502  503 -0.00000000000E+00 -0.00000000000E+00 -0.25114828240E+03  0.25114828240E+03  0.00000000000E+00 0.  1.
          6    2    1    2  501    0 -0.36034691384E+02  0.49176316183E+02  0.12476452816E+03  0.22127240679E+03  0.17227443648E+03 0.  0.
         24    2    3    3    0    0  0.16096676320E+02  0.50500166489E+02  0.13704599377E+03  0.16749177388E+03  0.80389801013E+02 0.  0.
         -6    2    1    2    0  503  0.36034691384E+02 -0.49176316183E+02 -0.16179643729E+03  0.24399224889E+03  0.17215493411E+03 0.  0.
        -24    2    5    5    0    0 -0.89865241844E+01 -0.42656312015E+02 -0.16752716654E+02  0.91909405664E+02  0.79160386321E+02 0.  0.
          5    1    3    3  501    0 -0.52131367704E+02 -0.13238503060E+01 -0.12281465609E+02  0.53780632906E+02  0.47000000000E+01 0. -1.
        -11    1    4    4    0    0  0.42164068137E+02  0.35451058093E+02  0.46549846274E+02  0.72121247562E+02  0.00000000000E+00 0.  1.
         12    1    4    4    0    0 -0.26067391818E+02  0.15049108396E+02  0.90496147492E+02  0.95370526321E+02  0.00000000000E+00 0. -1.
         -5    1    5    5    0  503  0.45021215569E+02 -0.65200041679E+01 -0.14504372064E+03  0.15208284322E+03  0.47000000000E+01 0.  1.
         13    1    6    6    0    0  0.34115954338E+01 -0.63485077085E+02 -0.21538405462E+01  0.63613151353E+02  0.00000000000E+00 0. -1.
        -14    1    6    6    0    0 -0.12398119618E+02  0.20828765070E+02 -0.14598876108E+02  0.28296254311E+02  0.00000000000E+00 0.  1.
</event>
<event>
12    1  0.9017558E-003  0.2145564E+03  0.7818608E-02  0.1138099E+00
         21   -1    0    0  501  502  0.00000000000E+00  0.00000000000E+00  0.29110948298E+03  0.29110948298E+03  0.00000000000E+00 0.  1.
         21   -1    0    0  502  503 -0.00000000000E+00 -0.00000000000E+00 -0.15832665242E+03  0.15832665242E+03  0.00000000000E+00 0. -1.
          6    2    1    2  501    0  0.51311354271E+02  0.11727997235E+03  0.79612977082E+02  0.22885074566E+03  0.17218301507E+03 0.  0.
         24    2    3    3    0    0  0.38964298160E+02  0.67736981743E+02  0.11944393261E+03  0.16392345763E+03  0.80607268269E+02 0.  0.
         -6    2    1    2    0  503 -0.51311354271E+02 -0.11727997235E+03  0.53169853485E+02  0.22058538974E+03  0.17159089094E+03 0.  0.
        -24    2    5    5    0    0  0.35931598541E+02 -0.77879570728E+02  0.41219850848E+02  0.12400062372E+03  0.79503278354E+02 0.  0.
          5    1    3    3  501    0  0.12347056111E+02  0.49542990604E+02 -0.39830955529E+02  0.64927288031E+02  0.47000000000E+01 0. -1.
        -11    1    4    4    0    0  0.89743062389E+00  0.53304700186E+00  0.74610594146E+02  0.74617895171E+02  0.00000000000E+00 0.  1.
         12    1    4    4    0    0  0.38066867536E+02  0.67203934741E+02  0.44833338464E+02  0.89305562461E+02  0.00000000000E+00 0. -1.
         -5    1    5    5    0  503 -0.87242952812E+02 -0.39400401619E+02  0.11950002637E+02  0.96584766015E+02  0.47000000000E+01 0.  1.
         11    1    6    6    0    0  0.17255739397E+02 -0.87766045955E+02  0.15609824642E+02  0.90798160720E+02  0.00000000000E+00 0. -1.
        -12    1    6    6    0    0  0.18675859144E+02  0.98864752267E+01  0.25610026206E+02  0.33202463002E+02  0.00000000000E+00 0.  1.
</event>
<event>
12    1  0.9017558E-003  0.2789852E+03  0.7818608E-02  0.1096287E+00
         21   -1    0    0  501  502  0.00000000000E+00  0.00000000000E+00  0.16182966923E+04  0.16182966923E+04  0.00000000000E+00 0.  1.
         21   -1    0    0  502  503 -0.00000000000E+00 -0.00000000000E+00 -0.53471477717E+02  0.53471477717E+02  0.00000000000E+00 0.  1.
          6    2    1    2  501    0  0.17229476814E+03  0.13591628043E+03  0.10491725281E+04  0.10856314922E+04  0.17226148977E+03 0.  0.
         24    2    3    3    0    0  0.93945689878E+02  0.68345828706E+01  0.56494615625E+03  0.57838605669E+03  0.80583912449E+02 0.  0.
         -6    2    1    2    0  503 -0.17229476814E+03 -0.13591628043E+03  0.51565268653E+03  0.58613667780E+03  0.17175502764E+03 0.  0.
        -24    2    5    5    0    0 -0.17469544740E+03 -0.65689694994E+02  0.32858338809E+03  0.38625033764E+03  0.79928999915E+02 0.  0.
          5    1    3    3  501    0  0.78349078266E+02  0.12908169756E+03  0.48422637180E+03  0.50724543552E+03  0.47000000000E+01 0. -1.
        -11    1    4    4    0    0  0.86981970569E+01 -0.46899767704E+00  0.29664503093E+03  0.29677289796E+03  0.00000000000E+00 0.  1.
         12    1    4    4    0    0  0.85247492821E+02  0.73035805476E+01  0.26830112532E+03  0.28161315873E+03  0.00000000000E+00 0. -1.
         -5    1    5    5    0  503  0.24006792598E+01 -0.70226585438E+02  0.18706929844E+03  0.19988634016E+03  0.47000000000E+01 0.  1.
         11    1    6    6    0    0 -0.10733212912E+03 -0.72393426324E+02  0.25675451381E+03  0.28754803856E+03  0.00000000000E+00 0. -1.
        -12    1    6    6    0    0 -0.67363318286E+02  0.67037313293E+01  0.71828874276E+02  0.98702299081E+02  0.00000000000E+00 0.  1.
</event>
<event>
12    1  0.9017558E-003  0.1848119E+03  0.7818608E-02  0.1164201E+00
         21   -1    0    0  501  502  0.00000000000E+00  0.00000000000E+00  0.12212015610E+03  0.12212015610E+03  0.00000000000E+00 0.  1.
         21   -1    0    0  502  503 -0.00000000000E+00 -0.00000000000E+00 -0.29439600353E+03  0.29439600353E+03  0.00000000000E+00 0. -1.
          6    2    1    2  501    0 -0.24953636149E+01  0.59806425338E+02 -0.14253853206E+03  0.23339384533E+03  0.17484970279E+03 0.  0.
         24    2    3    3    0    0 -0.10195786272E+02  0.71772652235E+02 -0.19855316558E+02  0.10979874648E+03  0.80039137086E+02 0.  0.
         -6    2    1    2    0  503  0.24953636149E+01 -0.59806425338E+02 -0.29737315369E+02  0.18312231429E+03  0.17048882285E+03 0.  0.
        -24    2    5    5    0    0 -0.29767713114E+02 -0.40038502859E+02 -0.77382047274E+02  0.12209947138E+03  0.80194147015E+02 0.  0.
          5    1    3    3  501    0  0.77004226567E+01 -0.11966226897E+02 -0.12268321550E+03  0.12359509886E+03  0.47000000000E+01 0. -1.
        -13    1    4    4    0    0 -0.24134622653E+02  0.36731027333E+01  0.18294359762E+02  0.30506643430E+02  0.00000000000E+00 0.  1.
         14    1    4    4    0    0  0.13938836381E+02  0.68099549501E+02 -0.38149676320E+02  0.79292103045E+02  0.00000000000E+00 0. -1.
         -5    1    5    5    0  503  0.32263076729E+02 -0.19767922478E+02  0.47644731905E+02  0.61022842915E+02  0.47000000000E+01 0.  1.
         11    1    6    6    0    0  0.28117661228E+01 -0.54586468132E+02 -0.28680733190E+02  0.61726598709E+02  0.00000000000E+00 0. -1.
        -12    1    6    6    0    0 -0.32579479237E+02  0.14547965273E+02 -0.48701314083E+02  0.60372872670E+02  0.00000000000E+00 0.  1.
</event>
<event>
12    1  0.9017558E-003  0.2339984E+03  0.7818608E-02  0.1123865E+00
         21   -1    0    0  503  502  0.00000000000E+00  0.00000000000E+00  0.58855470444E+03  0.58855470444E+03  0.00000000000E+00 0. -1.
         21   -1    0    0  501  503 -0.00000000000E+00 -0.00000000000E+00 -0.94560134171E+02  0.94560134171E+02  0.00000000000E+00 0. -1.
          6    2    1    2  501    0 -0.15756503779E+03 -0.16789566221E+02  0.29063292863E+03  0.37309676126E+03  0.17211932892E+03 0.  0.
         24    2    3    3    0    0 -0.70944712861E+02  0.38735820217E+02  0.22110225726E+03  0.24882788546E+03  0.80594617489E+02 0.  0.
         -6    2    1    2    0  502  0.15756503779E+03  0.16789566221E+02  0.20336164164E+03  0.31001807735E+03  0.17218193961E+03 0.  0.
        -24    2    5    5    0    0  0.11928506000E+03 -0.44955471805E+02  0.88113133496E+02  0.17370184556E+03  0.78476027375E+02 0.  0.
          5    1    3    3  501    0 -0.86620324930E+02 -0.55525386438E+02  0.69530671373E+02  0.12426887580E+03  0.47000000000E+01 0. -1.
        -11    1    4    4    0    0  0.16504989723E+02  0.94514387516E+01  0.62847388440E+02  0.65662307406E+02  0.00000000000E+00 0.  1.
         12    1    4    4    0    0 -0.87449702585E+02  0.29284381465E+02  0.15825486882E+03  0.18316557806E+03  0.00000000000E+00 0. -1.
         -5    1    5    5    0  502  0.38279977790E+02  0.61745038026E+02  0.11524850814E+03  0.13631623179E+03  0.47000000000E+01 0.  1.
         13    1    6    6    0    0  0.10127152605E+03 -0.47814810297E+02  0.10144735134E+03  0.15110838218E+03  0.00000000000E+00 0. -1.
        -14    1    6    6    0    0  0.18013533953E+02  0.28593384919E+01 -0.13334217842E+02  0.22593463381E+02  0.00000000000E+00 0.  1.
</event>
<event>
12    1  0.9017558E-003  0.2588342E+03  0.7818608E-02  0.1107898E+00
         21   -1    0    0  501  502  0.00000000000E+00  0.00000000000E+00  0.33504011674E+03  0.33504011674E+03  0.00000000000E+00 0.  1.
         21   -1    0    0  502  503 -0.00000000000E+00 -0.00000000000E+00 -0.20027213185E+03  0.20027213185E+03  0.00000000000E+00 0. -1.
          6    2    1    2  501    0  0.16260184862E+03 -0.10457549890E+03  0.81729968552E+02  0.27109988560E+03  0.17158078000E+03 0.  0.
         24    2    3    3    0    0  0.14005402299E+03 -0.12598204539E+03  0.10702535648E+03  0.23074407655E+03  0.79383857409E+02 0.  0.
         -6    2    1    2    0  503 -0.16260184862E+03  0.10457549890E+03  0.53038016336E+02  0.26421236299E+03  0.17210387977E+03 0.  0.
        -24    2    5    5    0    0 -0.65468402048E+02  0.47467655303E+02  0.91139405348E+02  0.14517447789E+03  0.78930018730E+02 0.  0.
          5    1    3    3  501    0  0.22547825635E+02  0.21406546491E+02 -0.25295387928E+02  0.40355809049E+02  0.47000000000E+01 0. -1.
        -11    1    4    4    0    0  0.10163233732E+03 -0.11024872204E+03  0.45829929517E+02  0.15679379816E+03  0.00000000000E+00 0.  1.
         12    1    4    4    0    0  0.38421685662E+02 -0.15733323351E+02  0.61195426964E+02  0.73950278391E+02  0.00000000000E+00 0. -1.
         -5    1    5    5    0  503 -0.97133446573E+02  0.57107843598E+02 -0.38101389012E+02  0.11903788510E+03  0.47000000000E+01 0.  1.
         13    1    6    6    0    0 -0.23440528451E+02  0.51286786664E+02  0.15372290158E+02  0.58447413673E+02  0.00000000000E+00 0. -1.
        -14    1    6    6    0    0 -0.42027873597E+02 -0.38191313611E+01  0.75767115189E+02  0.86727064216E+02  0.00000000000E+00 0.  1.
</event>
<event>
12    1  0.9017558E-003  0.2175480E+03  0.7818608E-02  0.1135753E+00
         21   -1    0    0  503  502  0.00000000000E+00  0.00000000000E+00  0.50543796250E+03  0.50543796250E+03  0.00000000000E+00 0. -1.
         21   -1    0    0  501  503 -0.00000000000E+00 -0.00000000000E+00 -0.16240111920E+03  0.16240111920E+03  0.00000000000E+00 0. -1.
          6    2    1    2  501    0  0.13482837321E+03 -0.78538658607E+01 -0.45902960231E+02  0.22219203881E+03  0.17035799635E+03 0.  0.
         24    2    3    3    0    0  0.22486818455E+02  0.25545477462E+02  0.18824313204E+02  0.88222449033E+02  0.79187229544E+02 0.  0.
         -6    2    1    2    0  502 -0.13482837321E+03  0.78538658607E+01  0.38893980353E+03  0.44564704290E+03  0.17054835867E+03 0.  0.
        -24    2    5    5    0    0 -0.67102286657E+02  0.67019214039E+02  0.21173622489E+03  0.24687441020E+03  0.84382779995E+02 0.  0.
          5    1    3    3  501    0  0.11234155475E+03 -0.33399343323E+02 -0.64727273435E+02  0.13396958978E+03  0.47000000000E+01 0. -1.
        -11    1    4    4    0    0  0.33397944829E+02 -0.20264527529E+02  0.97741877394E+01  0.40269200895E+02  0.00000000000E+00 0.  1.
         12    1    4    4    0    0 -0.10911126374E+02  0.45810004992E+02  0.90501254647E+01  0.47953248138E+02  0.00000000000E+00 0. -1.
         -5    1    5    5    0  502 -0.67726086550E+02 -0.59165348178E+02  0.17720357864E+03  0.19877263269E+03  0.47000000000E+01 0.  1.
         13    1    6    6    0    0 -0.53881092561E+02  0.61680333719E+02  0.21679177514E+03  0.23174621782E+03  0.00000000000E+00 0. -1.
        -14    1    6    6    0    0 -0.13221194096E+02  0.53388803204E+01 -0.50555502593E+01  0.15128192384E+02  0.00000000000E+00 0.  1.
</event>
<event>
12    1  0.9017558E-003  0.1859688E+03  0.7818608E-02  0.1162190E+00
         21   -1    0    0  503  502  0.00000000000E+00  0.00000000000E+00  0.90949698430E+02  0.90949698430E+02  0.00000000000E+00 0. -1.
         21   -1    0    0  501  503 -0.00000000000E+00 -0.00000000000E+00 -0.39033193437E+03  0.39033193437E+03  0.00000000000E+00 0. -1.
          6    2    1    2  501    0 -0.30467362184E+02  0.61900961120E+02 -0.18911932578E+03  0.26523668132E+03  0.17269739022E+03 0.  0.
         24    2    3    3    0    0  0.47121224584E+02  0.29497118387E+02 -0.12949052744E+03  0.16204907832E+03  0.80010107423E+02 0.  0.
         -6    2    1    2    0  502  0.30467362184E+02 -0.61900961120E+02 -0.11026291016E+03  0.21604495148E+03  0.17250368853E+03 0.  0.
        -24    2    5    5    0    0 -0.41267420114E+02 -0.16790850013E+00 -0.71465638250E+02  0.11365272968E+03  0.78144592632E+02 0.  0.
          5    1    3    3  501    0 -0.77588586767E+02  0.32403842733E+02 -0.59628798340E+02  0.10318760300E+03  0.47000000000E+01 0. -1.
        -11    1    4    4    0    0  0.17008217382E+02  0.18325718705E+02 -0.12743547326E+03  0.12986497322E+03  0.00000000000E+00 0.  1.
         12    1    4    4    0    0  0.30113007201E+02  0.11171399682E+02 -0.20550541771E+01  0.32184105102E+02  0.00000000000E+00 0. -1.
         -5    1    5    5    0  502  0.71734782298E+02 -0.61733052620E+02 -0.38797271914E+02  0.10239222180E+03  0.47000000000E+01 0.  1.
         11    1    6    6    0    0  0.37326466752E+01  0.68771427075E+01 -0.67478148346E+02  0.67930319058E+02  0.00000000000E+00 0. -1.
        -12    1    6    6    0    0 -0.45000066790E+02 -0.70450512076E+01 -0.39874899034E+01  0.45722410625E+02  0.00000000000E+00 0.  1.
</event>
<event>
12    1  0.9017558E-003  0.1954528E+03  0.7818608E-02  0.1153850E+00
         21   -1    0    0  501  502  0.00000000000E+00  0.00000000000E+00  0.58872777511E+03  0.58872777511E+03  0.00000000000E+00 0. -1.
         21   -1    0    0  502  503 -0.00000000000E+00 -0.00000000000E+00 -0.65520103632E+02  0.65520103632E+02  0.00000000000E+00 0. -1.
          6    2    1    2  501    0 -0.54964242745E+02  0.73893790593E+02  0.30056688173E+03  0.35798661554E+03  0.17126764506E+03 0.  0.
         24    2    3    3    0    0  0.24150906373E+02  0.21455319253E+02  0.21015428601E+03  0.22681677312E+03  0.78977386864E+02 0.  0.
         -6    2    1    2    0  503  0.54964242745E+02 -0.73893790593E+02  0.22264078975E+03  0.29626126321E+03  0.17239621384E+03 0.  0.
        -24    2    5    5    0    0 -0.79100826807E+01 -0.85199232122E+02  0.19263719210E+03  0.22552725669E+03  0.80199608275E+02 0.  0.
          5    1    3    3  501    0 -0.79115149118E+02  0.52438471340E+02  0.90412595718E+02  0.13116984242E+03  0.47000000000E+01 0. -1.
        -13    1    4    4    0    0 -0.16494619935E+02  0.28738576082E+02  0.41107010738E+02  0.52799285732E+02  0.00000000000E+00 0.  1.
         14    1    4    4    0    0  0.40645526308E+02 -0.72832568288E+01  0.16904727527E+03  0.17401748739E+03  0.00000000000E+00 0. -1.
         -5    1    5    5    0  503  0.62874325426E+02  0.11305441529E+02  0.30003597656E+02  0.70734006519E+02  0.47000000000E+01 0.  1.
         13    1    6    6    0    0 -0.96933996148E+01 -0.16910353225E+02 -0.16686766509E+01  0.19562886394E+02  0.00000000000E+00 0. -1.
        -14    1    6    6    0    0  0.17833169341E+01 -0.68288878897E+02  0.19430586875E+03  0.20596437029E+03  0.00000000000E+00 0.  1.
</event>
<event>
12    1  0.9017558E-003  0.2718279E+03  0.7818608E-02  0.1101304E+00
         21   -1    0    0  501  502  0.00000000000E+00  0.00000000000E+00  0.11709925749E+03  0.11709925749E+03  0.00000000000E+00 0. -1.
         21   -1    0    0  502  503 -0.00000000000E+00 -0.00000000000E+00 -0.62989455878E+03  0.62989455878E+03  0.00000000000E+00 0.  1.
          6    2    1    2  501    0 -0.15887969486E+02 -0.20976469778E+03 -0.20040184732E+03  0.33771485297E+03  0.17215331973E+03 0.  0.
         24    2    3    3    0    0 -0.59612898330E+02 -0.20328340750E+03 -0.17977976883E+03  0.28871243826E+03  0.78461871706E+02 0.  0.
         -6    2    1    2    0  503  0.15887969486E+02  0.20976469778E+03 -0.31239345396E+03  0.40927896330E+03  0.16020594156E+03 0.  0.
        -24    2    5    5    0    0 -0.43128148181E+01  0.20070588429E+03 -0.20186958619E+03  0.29646163690E+03  0.82684460220E+02 0.  0.
          5    1    3    3  501    0  0.43724928843E+02 -0.64812902795E+01 -0.20622078490E+02  0.49002414709E+02  0.47000000000E+01 0. -1.
        -11    1    4    4    0    0 -0.24503859685E+02 -0.61377454689E+02 -0.10612541172E+03  0.12502093463E+03  0.00000000000E+00 0.  1.
         12    1    4    4    0    0 -0.35109038645E+02 -0.14190595281E+03 -0.73654357113E+02  0.16369150363E+03  0.00000000000E+00 0. -1.
         -5    1    5    5    0  503  0.20200784304E+02  0.90588134839E+01 -0.11052386777E+03  0.11281732640E+03  0.47000000000E+01 0.  1.
         13    1    6    6    0    0 -0.26858503239E+00  0.11428711790E+03 -0.56968835373E+02  0.12769912161E+03  0.00000000000E+00 0. -1.
        -14    1    6    6    0    0 -0.40442297857E+01  0.86418766395E+02 -0.14490075082E+03  0.16876251529E+03  0.00000000000E+00 0.  1.
</event>
<event>
12    1  0.9017558E-003  0.4096359E+03  0.7818608E-02  0.1040551E+00
         21   -1    0    0  501  502  0.00000000000E+00  0.00000000000E+00  0.17685316453E+04  0.17685316453E+04  0.00000000000E+00 0. -1.
         21   -1    0    0  502  503 -0.00000000000E+00 -0.00000000000E+00 -0.94921989213E+02  0.94921989213E+02  0.00000000000E+00 0. -1.
          6    2    1    2  501    0 -0.25035242756E+01  0.37102685435E+03  0.87870337268E+03  0.96920672002E+03  0.17197341273E+03 0.  0.
         24    2    3    3    0    0  0.60874822039E+02  0.19192497763E+03  0.41421692212E+03  0.46734613203E+03  0.79346125001E+02 0.  0.
         -6    2    1    2    0  503  0.25035242756E+01 -0.37102685435E+03  0.79490628340E+03  0.89424691449E+03  0.17359248370E+03 0.  0.
        -24    2    5    5    0    0  0.20163257010E+02 -0.25913242127E+03  0.39260947846E+03  0.47627916504E+03  0.71718001822E+02 0.  0.
          5    1    3    3  501    0 -0.63378346315E+02  0.17910187672E+03  0.46448645056E+03  0.50186058799E+03  0.47000000000E+01 0. -1.
        -13    1    4    4    0    0 -0.77346836591E+01  0.33514221664E+02  0.28168687387E+02  0.44457882700E+02  0.00000000000E+00 0.  1.
         14    1    4    4    0    0  0.68609505698E+02  0.15841075597E+03  0.38604823474E+03  0.42288824933E+03  0.00000000000E+00 0. -1.
         -5    1    5    5    0  503 -0.17659732735E+02 -0.11189443308E+03  0.40229680494E+03  0.41796774945E+03  0.47000000000E+01 0.  1.
         13    1    6    6    0    0  0.29206306087E+02 -0.25430795777E+03  0.35743815426E+03  0.43964483372E+03  0.00000000000E+00 0. -1.
        -14    1    6    6    0    0 -0.90430490770E+01 -0.48244634990E+01  0.35171324200E+02  0.36634331311E+02  0.00000000000E+00 0.  1.
</event>
<event>
12    1  0.9017558E-003  0.1843541E+03  0.7818608E-02  0.1164714E+00
         21   -1    0    0  503  502  0.00000000000E+00  0.00000000000E+00  0.19366429289E+04  0.19366429289E+04  0.00000000000E+00 0.  1.
         21   -1    0    0  501  503 -0.00000000000E+00 -0.00000000000E+00 -0.20763912618E+02  0.20763912618E+02  0.00000000000E+00 0.  1.
          6    2    1    2  501    0  0.49286781199E+02 -0.15068207380E+02  0.53871636088E+03  0.56795967660E+03  0.17235614028E+03 0.  0.
         24    2    3    3    0    0  0.60094125562E+01  0.39722324761E+02  0.17516897195E+03  0.19773848995E+03  0.82476454519E+02 0.  0.
         -6    2    1    2    0  502 -0.49286781199E+02  0.15068207380E+02  0.13771626554E+04  0.13894471649E+04  0.17700340952E+03 0.  0.
        -24    2    5    5    0    0 -0.83038568581E+02  0.39438745526E+02  0.12409280937E+04  0.12469162838E+04  0.80292381011E+02 0.  0.
          5    1    3    3  501    0  0.43277368642E+02 -0.54790532141E+02  0.36354738893E+03  0.37022118665E+03  0.47000000000E+01 0. -1.
        -11    1    4    4    0    0  0.22122963753E+02 -0.11525936163E+02  0.11232689818E+03  0.11506348154E+03  0.00000000000E+00 0.  1.
         12    1    4    4    0    0 -0.16113551197E+02  0.51248260924E+02  0.62842073777E+02  0.82675008415E+02  0.00000000000E+00 0. -1.
         -5    1    5    5    0  502  0.33751787383E+02 -0.24370538146E+02  0.13623456170E+03  0.14253088116E+03  0.47000000000E+01 0.  1.
         11    1    6    6    0    0 -0.27531266329E+02 -0.22651840295E+02  0.25556967771E+03  0.25804444706E+03  0.00000000000E+00 0. -1.
        -12    1    6    6    0    0 -0.55507302252E+02  0.62090585822E+02  0.98535841601E+03  0.98887183672E+03  0.00000000000E+00 0.  1.
</event>
<event>
12    1  0.9017558E-003  0.1937018E+03  0.7818608E-02  0.1155270E+00
         21   -1    0    0  503  502  0.00000000000E+00  0.00000000000E+00  0.70770365996E+03  0.70770365996E+03  0.00000000000E+00 0. -1.
         21   -1    0    0  501  503 -0.00000000000E+00 -0.00000000000E+00 -0.53891261022E+02  0.53891261022E+02  0.00000000000E+00 0.  1.
          6    2    1    2  501    0  0.82391184209E+02  0.33607179219E+02  0.27529802975E+03  0.33661462475E+03  0.17205420855E+03 0.  0.
         24    2    3    3    0    0 -0.50967123285E+01  0.53007879379E+02  0.18824716238E+03  0.21159277579E+03  0.80614495407E+02 0.  0.
         -6    2    1    2    0  502 -0.82391184209E+02 -0.33607179219E+02  0.37851436918E+03  0.42498029623E+03  0.17151494039E+03 0.  0.
        -24    2    5    5    0    0 -0.61987576476E+02  0.43954133469E+02  0.17896700121E+03  0.20986798487E+03  0.78999734587E+02 0.  0.
          5    1    3    3  501    0  0.87487896537E+02 -0.19400700161E+02  0.87050867377E+02  0.12502184896E+03  0.47000000000E+01 0. -1.
        -11    1    4    4    0    0 -0.22559004494E+00  0.18159459154E+02 -0.18606895501E+01  0.18255930906E+02  0.00000000000E+00 0.  1.
         12    1    4    4    0    0 -0.48711222836E+01  0.34848420225E+02  0.19010785193E+03  0.19333684488E+03  0.00000000000E+00 0. -1.
         -5    1    5    5    0  502 -0.20403607733E+02 -0.77561312687E+02  0.19954736798E+03  0.21511231136E+03  0.47000000000E+01 0.  1.
         13    1    6    6    0    0  0.48615908532E+01  0.41211617340E+02  0.84108065624E+02  0.93788054529E+02  0.00000000000E+00 0. -1.
        -14    1    6    6    0    0 -0.66849167329E+02  0.27425161291E+01  0.94858935585E+02  0.11607993034E+03  0.00000000000E+00 0.  1.
</event>
<event>
12    1  0.9017558E-003  0.2020693E+03  0.7818608E-02  0.1148340E+00
         21   -1    0    0  503  502  0.00000000000E+00  0.00000000000E+00  0.51753208353E+03  0.51753208353E+03  0.00000000000E+00 0.  1.
         21   -1    0    0  501  503 -0.00000000000E+00 -0.00000000000E+00 -0.78330923862E+02  0.78330923862E+02  0.00000000000E+00 0. -1.
          6    2    1    2  501    0  0.21344332829E+02  0.99634386011E+02  0.22688033420E+03  0.30275526756E+03  0.17263682854E+03 0.  0.
         24    2    3    3    0    0 -0.26965710516E+02  0.26539681762E+02  0.41295195012E+02  0.97473436981E+02  0.79776397099E+02 0.  0.
         -6    2    1    2    0  502 -0.21344332829E+02 -0.99634386011E+02  0.21232082547E+03  0.29310773983E+03  0.17449762980E+03 0.  0.
        -24    2    5    5    0    0 -0.12687483214E+01 -0.48128662483E+02  0.21818108272E+03  0.23731973696E+03  0.79998092601E+02 0.  0.
          5    1    3    3  501    0  0.48310043345E+02  0.73094704249E+02  0.18558513919E+03  0.20528183058E+03  0.47000000000E+01 0. -1.
        -13    1    4    4    0    0 -0.13168951960E+02  0.45514619404E+01  0.62450800566E+02  0.63986245341E+02  0.00000000000E+00 0.  1.
         14    1    4    4    0    0 -0.13796758556E+02  0.21988219822E+02 -0.21155605554E+02  0.33487191640E+02  0.00000000000E+00 0. -1.
         -5    1    5    5    0  502 -0.20075584508E+02 -0.51505723528E+02 -0.58602572528E+01  0.55788002873E+02  0.47000000000E+01 0.  1.
         11    1    6    6    0    0  0.35910220139E+02 -0.33855460895E+02  0.15469096783E+03  0.16237312484E+03  0.00000000000E+00 0. -1.
        -12    1    6    6    0    0 -0.37178968460E+02 -0.14273201588E+02  0.63490114888E+02  0.74946612117E+02  0.00000000000E+00 0.  1.
</event>
<event>
12    1  0.9017558E-003  0.2247129E+03  0.7818608E-02  0.1130518E+00
         21   -1    0    0  501  502  0.00000000000E+00  0.00000000000E+00  0.22350361195E+03  0.22350361195E+03  0.00000000000E+00 0. -1.
         21   -1    0    0  502  503 -0.00000000000E+00 -0.00000000000E+00 -0.24517739043E+03  0.24517739043E+03  0.00000000000E+00 0. -1.
          6    2    1    2  501    0 -0.11169437406E+03  0.91306597202E+02  0.55782819302E+02  0.23099338748E+03  0.17156250826E+03 0.  0.
         24    2    3    3    0    0 -0.36522972726E+02  0.95730161514E+02 -0.89814805477E+01  0.13156093787E+03  0.82033054442E+02 0.  0.
         -6    2    1    2    0  503  0.11169437406E+03 -0.91306597202E+02 -0.77456597785E+02  0.23768761490E+03  0.17228856564E+03 0.  0.
        -24    2    5    5    0    0  0.86481808111E+02  0.10170420790E+02 -0.55810840634E+02  0.13080502762E+03  0.80078491025E+02 0.  0.
          5    1    3    3  501    0 -0.75171401333E+02 -0.44235643122E+01  0.64764299849E+02  0.99432449606E+02  0.47000000000E+01 0. -1.
        -13    1    4    4    0    0  0.23331078620E+02  0.99435396914E+01  0.55251577800E+01  0.25956513241E+02  0.00000000000E+00 0.  1.
         14    1    4    4    0    0 -0.59854051345E+02  0.85786621823E+02 -0.14506638328E+02  0.10560442463E+03  0.00000000000E+00 0. -1.
         -5    1    5    5    0  503  0.25212565948E+02 -0.10147701799E+03 -0.21645757151E+02  0.10688258729E+03  0.47000000000E+01 0.  1.
         11    1    6    6    0    0  0.73054727489E+02  0.28060847687E+02 -0.69428777408E+02  0.10461720467E+03  0.00000000000E+00 0. -1.
        -12    1    6    6    0    0  0.13427080622E+02 -0.17890426897E+02  0.13617936774E+02  0.26187822945E+02  0.00000000000E+00 0.  1.
</event>
<event>
12    1  0.9017558E-003  0.2671960E+03  0.7818608E-02  0.1102946E+00
         21   -1    0    0  503  502  0.00000000000E+00  0.00000000000E+00  0.90441186780E+03  0.90441186780E+03  0.00000000000E+00 0.  1.
         21   -1    0    0  501  503 -0.00000000000E+00 -0.00000000000E+00 -0.10483306672E+03  0.10483306672E+03  0.00000000000E+00 0.  1.
          6    2    1    2  501    0 -0.17537093871E+02  0.20404889015E+03  0.14829681670E+03  0.30528334512E+03  0.17106278302E+03 0.  0.
         24    2    3    3    0    0 -0.14421675645E+02  0.21450864733E+03  0.88438011525E+02  0.24425647474E+03  0.74953312572E+02 0.  0.
         -6    2    1    2    0  502  0.17537093871E+02 -0.20404889015E+03  0.65128198438E+03  0.70396158940E+03  0.17161059685E+03 0.  0.
        -24    2    5    5    0    0 -0.19698420105E+01 -0.46709874687E+02  0.37083974110E+03  0.38177216043E+03  0.77731436515E+02 0.  0.
          5    1    3    3  501    0 -0.31154182262E+01 -0.10459757179E+02  0.59858805178E+02  0.61026870379E+02  0.47000000000E+01 0. -1.
        -11    1    4    4    0    0 -0.26135603779E+02  0.85266209896E+02  0.69595409326E+02  0.11312346058E+03  0.00000000000E+00 0.  1.
         12    1    4    4    0    0  0.11713928134E+02  0.12924243743E+03  0.18842602199E+02  0.13113301416E+03  0.00000000000E+00 0. -1.
         -5    1    5    5    0  502  0.19506935882E+02 -0.15733901546E+03  0.28044224327E+03  0.32218942898E+03  0.47000000000E+01 0.  1.
         11    1    6    6    0    0  0.13948194008E+02 -0.62822129864E+02  0.31514527962E+03  0.32164844067E+03  0.00000000000E+00 0. -1.
        -12    1    6    6    0    0 -0.15918036018E+02  0.16112255177E+02  0.55694461485E+02  0.60123719759E+02  0.00000000000E+00 0.  1.
</event>
<event>
12    1  0.9017558E-003  0.2126937E+03  0.7818608E-02  0.1139717E+00
         21   -1    0    0  503  502  0.00000000000E+00  0.00000000000E+00  0.48029150215E+02  0.48029150215E+02  0.00000000000E+00 0.  1.
         21   -1    0    0  501  503 -0.00000000000E+00 -0.00000000000E+00 -0.93623597653E+03  0.93623597653E+03  0.00000000000E+00 0.  1.
          6    2    1    2  501    0  0.59863661737E+02 -0.10888191662E+03 -0.43564585992E+03  0.48479472494E+03  0.17262583904E+03 0.  0.
         24    2    3    3    0    0  0.72238399823E+02 -0.11403363675E+03 -0.44214251837E+03  0.46917515599E+03  0.80082855438E+02 0.  0.
         -6    2    1    2    0  502 -0.59863661737E+02  0.10888191662E+03 -0.45256096640E+03  0.49947040181E+03  0.17093953378E+03 0.  0.
        -24    2    5    5    0    0 -0.64700631231E+02  0.48547743350E+02 -0.40917658500E+03  0.42485201743E+03  0.80812770865E+02 0.  0.
          5    1    3    3  501    0 -0.12374738086E+02  0.51517201302E+01  0.64966584510E+01  0.15619568945E+02  0.47000000000E+01 0. -1.
        -11    1    4    4    0    0  0.69649220300E+02 -0.12562357560E+03 -0.38771988226E+03  0.41347188989E+03  0.00000000000E+00 0.  1.
         12    1    4    4    0    0  0.25891795228E+01  0.11589938850E+02 -0.54422636109E+02  0.55703266099E+02  0.00000000000E+00 0. -1.
         -5    1    5    5    0  502  0.48369694940E+01  0.60334173267E+02 -0.43384381397E+02  0.74618384376E+02  0.47000000000E+01 0.  1.
         13    1    6    6    0    0  0.27741860854E+01 -0.50196700141E+01 -0.17882136252E+03  0.17891331110E+03  0.00000000000E+00 0. -1.
        -14    1    6    6    0    0 -0.67474817316E+02  0.53567413364E+02 -0.23035522248E+03  0.24593870633E+03  0.00000000000E+00 0.  1.
</event>
<event>
12    1  0.9017558E-003  0.2668932E+03  0.7818608E-02  0.1103222E+00
         21   -1    0    0  501  502  0.00000000000E+00  0.00000000000E+00  0.42567991200E+03  0.42567991200E+03  0.00000000000E+00 0.  1.
         21   -1    0    0  502  503 -0.00000000000E+00 -0.00000000000E+00 -0.22714770102E+03  0.22714770102E+03  0.00000000000E+00 0.  1.
          6    2    1    2  501    0 -0.18399474208E+03 -0.87463152097E+02  0.26780894281E+03  0.37809209107E+03  0.17241847754E+03 0.  0.
         24    2    3    3    0    0 -0.13555546591E+03 -0.10236264619E+03  0.26762971731E+03  0.32719532771E+03  0.81103151684E+02 0.  0.
         -6    2    1    2    0  503  0.18399474208E+03  0.87463152097E+02 -0.69276731835E+02  0.27473552194E+03  0.17081122140E+03 0.  0.
        -24    2    5    5    0    0  0.50889116412E+02  0.61441729335E+02  0.16268674758E+02  0.11431629425E+03  0.80241866122E+02 0.  0.
          5    1    3    3  501    0 -0.48439276164E+02  0.14899494095E+02  0.17922550592E+00  0.50896763368E+02  0.47000000000E+01 0. -1.
        -11    1    4    4    0    0 -0.14167609178E+03 -0.80238390967E+02  0.24957796905E+03  0.29799241098E+03  0.00000000000E+00 0.  1.
         12    1    4    4    0    0  0.61206258651E+01 -0.22124255224E+02  0.18051748256E+02  0.29202916726E+02  0.00000000000E+00 0. -1.
         -5    1    5    5    0  503  0.13310562566E+03  0.26021422762E+02 -0.85545406593E+02  0.16041922770E+03  0.47000000000E+01 0.  1.
         11    1    6    6    0    0  0.25651482231E+02 -0.18998726789E+01  0.35159272778E+02  0.43563545760E+02  0.00000000000E+00 0. -1.
        -12    1    6    6    0    0  0.25237634181E+02  0.63341602013E+02 -0.18890598021E+02  0.70752748486E+02  0.00000000000E+00 0.  1.
</event>
<event>
12    1  0.9017558E-003  0.2552455E+03  0.7818608E-02  0.1110078E+00
         21   -1    0    0  503  502  0.00000000000E+00  0.00000000000E+00  0.25372895413E+03  0.25372895413E+03  0.00000000000E+00 0.  1.
         21   -1    0    0  501  503 -0.00000000000E+00 -0.00000000000E+00 -0.33783301205E+03  0.33783301205E+03  0.00000000000E+00 0. -1.
          6    2    1    2  501    0  0.36514017070E+02 -0.18575128589E+03 -0.18717593282E+03  0.31629105507E+03  0.17078755236E+03 0.  0.
         24    2    3    3    0    0  0.58932218038E+02 -0.17718053090E+03 -0.10201590379E+03  0.22768883095E+03  0.81049443308E+02 0.  0.
         -6    2    1    2    0  502 -0.36514017070E+02  0.18575128589E+03  0.10307187490E+03  0.27527091111E+03  0.17121170947E+03 0.  0.
        -24    2    5    5    0    0 -0.39735129256E+02  0.61352903378E+02  0.10477938242E+03  0.15073040077E+03  0.79986720689E+02 0.  0.
          5    1    3    3  501    0 -0.22418200968E+02 -0.85707549922E+01 -0.85160029030E+02  0.88602224126E+02  0.47000000000E+01 0. -1.
        -11    1    4    4    0    0  0.58955867747E+02 -0.59013863345E+02 -0.26808761878E+02  0.87619290810E+02  0.00000000000E+00 0.  1.
         12    1    4    4    0    0 -0.23649709125E-01 -0.11816666755E+03 -0.75207141911E+02  0.14006954014E+03  0.00000000000E+00 0. -1.
         -5    1    5    5    0  502  0.32211121851E+01  0.12439838251E+03 -0.17075075164E+01  0.12454051034E+03  0.47000000000E+01 0.  1.
         13    1    6    6    0    0 -0.53540599014E+02  0.96919927427E+01  0.59860610605E+02  0.80893900685E+02  0.00000000000E+00 0. -1.
        -14    1    6    6    0    0  0.13805469759E+02  0.51660910635E+02  0.44918771812E+02  0.69836500084E+02  0.00000000000E+00 0.  1.
</event>
<event>
12    1  0.9017558E-003  0.1865147E+03  0.7818608E-02  0.1162080E+00
         21   -1    0    0  503  502  0.00000000000E+00  0.00000000000E+00  0.51634304994E+03  0.51634304994E+03  0.00000000000E+00 0. -1.
         21   -1    0    0  501  503 -0.00000000000E+00 -0.00000000000E+00 -0.90963944056E+02  0.90963944056E+02  0.00000000000E+00 0. -1.
          6    2    1    2  501    0  0.41614128717E+02 -0.57642264732E+02  0.56637225659E+02  0.19492435408E+03  0.17243364547E+03 0.  0.
         24    2    3    3    0    0 -0.19536591915E+02 -0.76249736723E+02  0.13911651490E+01  0.11030836357E+03  0.77267709683E+02 0.  0.
         -6    2    1    2    0  502 -0.41614128717E+02  0.57642264732E+02  0.36874188023E+03  0.41238263992E+03  0.17039513221E+03 0.  0.
        -24    2    5    5    0    0 -0.39330750999E+02  0.70657117504E+02  0.37881915799E+03  0.39511296321E+03  0.77916384722E+02 0.  0.
          5    1    3    3  501    0  0.61150720632E+02  0.18607471991E+02  0.55246060510E+02  0.84615990508E+02  0.47000000000E+01 0. -1.
        -13    1    4    4    0    0  0.98523584146E+01  0.10593036874E+02  0.10931785305E+02  0.18132438514E+02  0.00000000000E+00 0.  1.
         14    1    4    4    0    0 -0.29388950330E+02 -0.86842773597E+02 -0.95406201555E+01  0.92175925059E+02  0.00000000000E+00 0. -1.
         -5    1    5    5    0  502 -0.22833777177E+01 -0.13014852771E+02 -0.10077277764E+02  0.17269676708E+02  0.47000000000E+01 0.  1.
         13    1    6    6    0    0 -0.88430504131E+01 -0.33069688753E+01  0.16893218612E+01  0.95911100558E+01  0.00000000000E+00 0. -1.
        -14    1    6    6    0    0 -0.30487700586E+02  0.73964086379E+02  0.37712983613E+03  0.38552185315E+03  0.00000000000E+00 0.  1.
</event>
<event>
12    1  0.9017558E-003  0.2694511E+03  0.7818608E-02  0.1101818E+00
         21   -1    0    0  501  502  0.00000000000E+00  0.00000000000E+00  0.11454355617E+04  0.11454355617E+04  0.00000000000E+00 0. -1.
         21   -1    0    0  502  503 -0.00000000000E+00 -0.00000000000E+00 -0.69876874405E+02  0.69876874405E+02  0.00000000000E+00 0.  1.
          6    2    1    2  501    0  0.18255297385E+03 -0.97298722952E+02  0.72954049509E+03  0.77771025623E+03  0.17265943044E+03 0.  0.
         24    2    3    3    0    0  0.14503210879E+03 -0.15676370838E+02  0.34460941245E+03  0.38240777450E+03  0.78740063930E+02 0.  0.
         -6    2    1    2    0  503 -0.18255297385E+03  0.97298722952E+02  0.34601819224E+03  0.43760217991E+03  0.17021882608E+03 0.  0.
        -24    2    5    5    0    0 -0.17440749858E+03  0.66922877726E+02  0.19246785825E+03  0.28079390267E+03  0.83094477530E+02 0.  0.
          5    1    3    3  501    0  0.37520865060E+02 -0.81622352114E+02  0.38493108264E+03  0.39530248173E+03  0.47000000000E+01 0. -1.
        -13    1    4    4    0    0  0.86406847323E+02 -0.24092928943E+02  0.11822400570E+03  0.14840326146E+03  0.00000000000E+00 0.  1.
         14    1    4    4    0    0  0.58625261463E+02  0.84165581048E+01  0.22638540675E+03  0.23400451304E+03  0.00000000000E+00 0. -1.
         -5    1    5    5    0  503 -0.81454752644E+01  0.30375845226E+02  0.15355033399E+03  0.15680827723E+03  0.47000000000E+01 0.  1.
         11    1    6    6    0    0 -0.16605516182E+03  0.36292138439E+02  0.14357790458E+03  0.22249955228E+03  0.00000000000E+00 0. -1.
        -12    1    6    6    0    0 -0.83523367592E+01  0.30630739287E+02  0.48889953663E+02  0.58294350393E+02  0.00000000000E+00 0.  1.
</event>
<event>
12    1  0.9017558E-003  0.1788640E+03  0.7818608E-02  0.1169105E+00
         21   -1    0    0  501  502  0.00000000000E+00  0.00000000000E+00  0.39608670474E+03  0.39608670474E+03  0.00000000000E+00 0.  1.
         21   -1    0    0  502  503 -0.00000000000E+00 -0.00000000000E+00 -0.11215215233E+03  0.11215215233E+03  0.00000000000E+00 0.  1.
          6    2    1    2  501    0 -0.61431599148E+01 -0.49937978886E+02  0.27693759050E+03  0.32923802444E+03  0.17079727034E+03 0.  0.
         24    2    3    3    0    0 -0.28904965505E+02 -0.57446693698E+02  0.28547328677E+03  0.30336470415E+03  0.79997041330E+02 0.  0.
         -6    2    1    2    0  503  0.61431599148E+01  0.49937978886E+02  0.69969619180E+01  0.17900083263E+03  0.17164148816E+03 0.  0.
        -24    2    5    5    0    0  0.11693369274E+01 -0.40018825654E+02  0.10988099176E+02  0.88695878311E+02  0.78379504657E+02 0.  0.
          5    1    3    3  501    0  0.22761805590E+02  0.75087148128E+01 -0.85356962671E+01  0.25873320286E+02  0.47000000000E+01 0. -1.
        -13    1    4    4    0    0  0.27156088917E+02 -0.24242616820E+02  0.82087502376E+02  0.89797080587E+02  0.00000000000E+00 0.  1.
         14    1    4    4    0    0 -0.56061054422E+02 -0.33204076879E+02  0.20338578439E+03  0.21356762357E+03  0.00000000000E+00 0. -1.
         -5    1    5    5    0  503  0.49738229875E+01  0.89956804540E+02 -0.39911372580E+01  0.90304954320E+02  0.47000000000E+01 0.  1.
         13    1    6    6    0    0  0.19081824290E+02 -0.41796600833E+02  0.35656030430E+02  0.58158613854E+02  0.00000000000E+00 0. -1.
        -14    1    6    6    0    0 -0.17912487363E+02  0.17777751786E+01 -0.24667931254E+02  0.30537264456E+02  0.00000000000E+00 0.  1.
</event>
<event>
12    1  0.9017558E-003  0.2388481E+03  0.7818608E-02  0.1120579E+00
         21   -1    0    0  501  502  0.00000000000E+00  0.00000000000E+00  0.24093773379E+03  0.24093773379E+03  0.00000000000E+00 0.  1.
         21   -1    0    0  502  503 -0.00000000000E+00 -0.00000000000E+00 -0.35018777835E+03  0.35018777835E+03  0.00000000000E+00 0. -1.
          6    2    1    2  501    0 -0.37040431906E+02 -0.16188518371E+03 -0.22290413516E+03  0.32670272057E+03  0.17166714262E+03 0.  0.
         24    2    3    3    0    0 -0.29190793912E+02 -0.20761746818E+02 -0.39383600179E+02  0.95014745016E+02  0.78699308938E+02 0.  0.
         -6    2    1    2    0  503  0.37040431906E+02  0.16188518371E+03  0.11365409060E+03  0.26442279157E+03  0.17153237039E+03 0.  0.
        -24    2    5    5    0    0 -0.27828703370E+02  0.33535570239E+02  0.25454045263E+02  0.95653819344E+02  0.81256836834E+02 0.  0.
          5    1    3    3  501    0 -0.78496379936E+01 -0.14112343689E+03 -0.18352053498E+03  0.23168797556E+03  0.47000000000E+01 0. -1.
        -11    1    4    4    0    0 -0.39322432593E+02  0.27573956488E+01 -0.52967954414E+02  0.66026215480E+02  0.00000000000E+00 0.  1.
         12    1    4    4    0    0  0.10131638681E+02 -0.23519142467E+02  0.13584354235E+02  0.28988529537E+02  0.00000000000E+00 0. -1.
         -5    1    5    5    0  503  0.64869135276E+02  0.12834961347E+03  0.88200045339E+02  0.16876897223E+03  0.47000000000E+01 0.  1.
         13    1    6    6    0    0 -0.17191258256E+02 -0.25364631809E+02  0.17466482508E+02  0.35270127848E+02  0.00000000000E+00 0. -1.
        -14    1    6    6    0    0 -0.10637445114E+02  0.58900202048E+02  0.79875627554E+01  0.60383691496E+02  0.00000000000E+00 0.  1.
</event>
<event>
12    1  0.9017558E-003  0.2408709E+03  0.7818608E-02  0.1120746E+00
         21   -1    0    0  501  502  0.00000000000E+00  0.00000000000E+00  0.98126604665E+02  0.98126604665E+02  0.00000000000E+00 0.  1.
         21   -1    0    0  502  503 -0.00000000000E+00 -0.00000000000E+00 -0.67642177184E+03  0.67642177184E+03  0.00000000000E+00 0.  1.
          6    2    1    2  501    0 -0.11356282150E+03  0.10127918379E+03 -0.13968044449E+03  0.27844104735E+03  0.18672118996E+03 0.  0.
         24    2    3    3    0    0 -0.55646272068E+02  0.57767173947E+02 -0.16630537943E+03  0.20111964760E+03  0.79737566078E+02 0.  0.
         -6    2    1    2    0  503  0.11356282150E+03 -0.10127918379E+03 -0.43861472269E+03  0.49610732915E+03  0.17488744833E+03 0.  0.
        -24    2    5    5    0    0  0.71227345777E+02 -0.65323432977E+02 -0.41156715192E+03  0.43414952410E+03  0.98781592724E+02 0.  0.
          5    1    3    3  501    0 -0.57916549434E+02  0.43512009847E+02  0.26624934937E+02  0.77321399752E+02  0.47000000000E+01 0. -1.
        -11    1    4    4    0    0  0.20262255709E+02  0.11708755661E+02 -0.45848276710E+02  0.51475415908E+02  0.00000000000E+00 0.  1.
         12    1    4    4    0    0 -0.75908527777E+02  0.46058418285E+02 -0.12045710272E+03  0.14964423169E+03  0.00000000000E+00 0. -1.
         -5    1    5    5    0  503  0.42335475725E+02 -0.35955750817E+02 -0.27047570768E+02  0.61957805046E+02  0.47000000000E+01 0.  1.
         11    1    6    6    0    0  0.96263093191E+02 -0.46731457714E+02 -0.32034972427E+03  0.33774895720E+03  0.00000000000E+00 0. -1.
        -12    1    6    6    0    0 -0.25035747414E+02 -0.18591975263E+02 -0.91217427644E+02  0.96400566901E+02  0.00000000000E+00 0.  1.
</event>
<event>
12    1  0.9017558E-003  0.2902702E+03  0.7818608E-02  0.1090284E+00
         21   -1    0    0  503  502  0.00000000000E+00  0.00000000000E+00  0.12163898766E+03  0.12163898766E+03  0.00000000000E+00 0.  1.
         21   -1    0    0  501  503 -0.00000000000E+00 -0.00000000000E+00 -0.14018341454E+04  0.14018341454E+04  0.00000000000E+00 0. -1.
          6    2    1    2  501    0  0.37369702396E+02 -0.23050741902E+03 -0.11820940910E+04  0.12170736610E+04  0.17144005204E+03 0.  0.
         24    2    3    3    0    0  0.79672831784E+02 -0.15836498286E+03 -0.96244497862E+03  0.98199514556E+03  0.81159725934E+02 0.  0.
         -6    2    1    2    0  502 -0.37369702396E+02  0.23050741902E+03 -0.98101066792E+02  0.30639947211E+03  0.17241418828E+03 0.  0.
        -24    2    5    5    0    0  0.20362897609E+02  0.75745798479E+02  0.34007739703E+01  0.11246926308E+03  0.80533820769E+02 0.  0.
          5    1    3    3  501    0 -0.42303129388E+02 -0.72142436164E+02 -0.21964911235E+03  0.23507851541E+03  0.47000000000E+01 0. -1.
        -11    1    4    4    0    0  0.15839042600E+02 -0.48969892874E+01 -0.24447477486E+03  0.24503626531E+03  0.00000000000E+00 0.  1.
         12    1    4    4    0    0  0.63833789183E+02 -0.15346799357E+03 -0.71797020376E+03  0.73695888025E+03  0.00000000000E+00 0. -1.
         -5    1    5    5    0  502 -0.57732600005E+02  0.15476162054E+03 -0.10150184076E+03  0.19393020903E+03  0.47000000000E+01 0.  1.
         13    1    6    6    0    0  0.29939784269E+02 -0.51244715542E+00 -0.14924785874E+02  0.33457473269E+02  0.00000000000E+00 0. -1.
        -14    1    6    6    0    0 -0.95768866596E+01  0.76258245634E+02  0.18325559844E+02  0.79011789810E+02  0.00000000000E+00 0.  1.
</event>
<event>
12    1  0.9017558E-003  0.1734586E+03  0.7818608E-02  0.1174373E+00
         21   -1    0    0  503  502  0.00000000000E+00  0.00000000000E+00  0.76063105827E+02  0.76063105827E+02  0.00000000000E+00 0. -1.
         21   -1    0    0  501  503 -0.00000000000E+00 -0.00000000000E+00 -0.42300777546E+03  0.42300777546E+03  0.00000000000E+00 0. -1.
          6    2    1    2  501    0  0.22403199375E+02 -0.72378169010E+01 -0.23774840985E+03  0.29410327224E+03  0.17151716830E+03 0.  0.
         24    2    3    3    0    0  0.75737582903E+02 -0.56048849813E+01 -0.19798316156E+03  0.22739054554E+03  0.82106831255E+02 0.  0.
         -6    2    1    2    0  502 -0.22403199375E+02  0.72378169010E+01 -0.10919625979E+03  0.20496760905E+03  0.17185344998E+03 0.  0.
        -24    2    5    5    0    0  0.36243410830E+01 -0.60762264737E+02 -0.57891765869E+02  0.11577296200E+03  0.79666388845E+02 0.  0.
          5    1    3    3  501    0 -0.53334383528E+02 -0.16329319197E+01 -0.39765248285E+02  0.66712726703E+02  0.47000000000E+01 0. -1.
        -11    1    4    4    0    0  0.28184367702E+02  0.36872307871E+02 -0.10320953145E+03  0.11316418627E+03  0.00000000000E+00 0.  1.
         12    1    4    4    0    0  0.47553215201E+02 -0.42477192853E+02 -0.94773630106E+02  0.11422635927E+03  0.00000000000E+00 0. -1.
         -5    1    5    5    0  502 -0.26027540458E+02  0.68000081638E+02 -0.51304493920E+02  0.89194647045E+02  0.47000000000E+01 0.  1.
         13    1    6    6    0    0  0.23719817228E+02 -0.34139621611E+02 -0.69052116707E+02  0.80599865476E+02  0.00000000000E+00 0. -1.
        -14    1    6    6    0    0 -0.20095476145E+02 -0.26622643126E+02  0.11160350838E+02  0.35173096528E+02  0.00000000000E+00 0.  1.
</event>
<event>
12    1  0.9017558E-003  0.3160709E+03  0.7818608E-02  0.1077593E+00
         21   -1    0    0  501  502  0.00000000000E+00  0.00000000000E+00  0.37713887875E+03  0.37713887875E+03  0.00000000000E+00 0. -1.
         21   -1    0    0  502  503 -0.00000000000E+00 -0.00000000000E+00 -0.33914524718E+03  0.33914524718E+03  0.00000000000E+00 0. -1.
          6    2    1    2  501    0 -0.23433294097E+03  0.12045491004E+03  0.18757704271E+03  0.36754045525E+03  0.17458386730E+03 0.  0.
         24    2    3    3    0    0 -0.99692390975E+02  0.59669456627E+02  0.16672792934E+03  0.21827651260E+03  0.79670676271E+02 0.  0.
         -6    2    1    2    0  503  0.23433294097E+03 -0.12045491004E+03 -0.14958341113E+03  0.34874367068E+03  0.17270100861E+03 0.  0.
        -24    2    5    5    0    0  0.20375480993E+03 -0.15498094012E+03 -0.13209650468E+03  0.29919621113E+03  0.80831750182E+02 0.  0.
          5    1    3    3  501    0 -0.13464054999E+03  0.60785453417E+02  0.20849113369E+02  0.14926394266E+03  0.47000000000E+01 0. -1.
        -11    1    4    4    0    0 -0.38640390098E+02  0.68981435164E+02  0.96566223218E+02  0.12480606400E+03  0.00000000000E+00 0.  1.
         12    1    4    4    0    0 -0.61052000877E+02 -0.93119785374E+01  0.70161706119E+02  0.93470448597E+02  0.00000000000E+00 0. -1.
         -5    1    5    5    0  503  0.30578131041E+02  0.34526030073E+02 -0.17486906455E+02  0.49547459551E+02  0.47000000000E+01 0.  1.
         11    1    6    6    0    0  0.51022749586E+02 -0.51317881165E+02 -0.26865674785E+00  0.72366553593E+02  0.00000000000E+00 0. -1.
        -12    1    6    6    0    0  0.15273206034E+03 -0.10366305895E+03 -0.13182784793E+03  0.22682965753E+03  0.00000000000E+00 0.  1.
</event>
<event>
12    1  0.9017558E-003  0.4109792E+03  0.7818608E-02  0.1040063E+00
         21   -1    0    0  501  502  0.00000000000E+00  0.00000000000E+00  0.34014310291E+03  0.34014310291E+03  0.00000000000E+00 0.  1.
         21   -1    0    0  502  503 -0.00000000000E+00 -0.00000000000E+00 -0.50467837592E+03  0.50467837592E+03  0.00000000000E+00 0. -1.
          6    2    1    2  501    0 -0.35571429652E+03  0.11012369102E+03 -0.13674450508E+03  0.43290375565E+03  0.17333987975E+03 0.  0.
         24    2    3    3    0    0 -0.97802652912E+02  0.52406888149E+02 -0.12154894673E+01  0.13585182531E+03  0.78373466071E+02 0.  0.
         -6    2    1    2    0  503  0.35571429652E+03 -0.11012369102E+03 -0.27790767931E+02  0.41191772318E+03  0.17390800965E+03 0.  0.
        -24    2    5    5    0    0  0.23334359552E+03 -0.14153011735E+03 -0.24429620869E+02  0.28544899429E+03  0.80026959705E+02 0.  0.
          5    1    3    3  501    0 -0.25791164361E+03  0.57716802867E+02 -0.13552901562E+03  0.29705193033E+03  0.47000000000E+01 0. -1.
        -11    1    4    4    0    0 -0.31458424723E+02  0.54455197449E+02 -0.21472818815E+02  0.66453615124E+02  0.00000000000E+00 0.  1.
         12    1    4    4    0    0 -0.66344228189E+02 -0.20483092993E+01  0.20257329348E+02  0.69398210188E+02  0.00000000000E+00 0. -1.
         -5    1    5    5    0  503  0.12237070100E+03  0.31406426330E+02 -0.33611470614E+01  0.12646872889E+03  0.47000000000E+01 0.  1.
         13    1    6    6    0    0  0.44540762525E+02 -0.13509014887E+02  0.23824249212E+02  0.52287358511E+02  0.00000000000E+00 0. -1.
        -14    1    6    6    0    0  0.18880283299E+03 -0.12802110246E+03 -0.48253870081E+02  0.23316163578E+03  0.00000000000E+00 0.  1.
</event>
<event>
12    1  0.9017558E-003  0.1969974E+03  0.7818608E-02  0.1152452E+00
         21   -1    0    0  501  502  0.00000000000E+00  0.00000000000E+00  0.31358965473E+02  0.31358965473E+02  0.00000000000E+00 0.  1.
         21   -1    0    0  502  503 -0.00000000000E+00 -0.00000000000E+00 -0.13563428853E+04  0.13563428853E+04  0.00000000000E+00 0.  1.
          6    2    1    2  501    0  0.55008084398E+02 -0.80394995228E+02 -0.45437963726E+03  0.49524623258E+03  0.17122713430E+03 0.  0.
         24    2    3    3    0    0  0.79694212802E+02 -0.52989379748E+02 -0.43606202057E+03  0.45379628955E+03  0.81375332327E+02 0.  0.
         -6    2    1    2    0  503 -0.55008084398E+02  0.80394995228E+02 -0.87060428258E+03  0.89245561820E+03  0.17039943959E+03 0.  0.
        -24    2    5    5    0    0 -0.93564172125E+02  0.23391809149E+02 -0.57102148045E+03  0.58503427793E+03  0.83055067140E+02 0.  0.
          5    1    3    3  501    0 -0.24686128404E+02 -0.27405615480E+02 -0.18317616688E+02  0.41449943023E+02  0.47000000000E+01 0. -1.
        -13    1    4    4    0    0 -0.85752767121E+01  0.64194003155E+01 -0.11639651130E+03  0.11688837373E+03  0.00000000000E+00 0.  1.
         14    1    4    4    0    0  0.88269489514E+02 -0.59408780063E+02 -0.31966550927E+03  0.33690791582E+03  0.00000000000E+00 0. -1.
         -5    1    5    5    0  503  0.38556087727E+02  0.57003186080E+02 -0.29958280212E+03  0.30742134027E+03  0.47000000000E+01 0.  1.
         13    1    6    6    0    0 -0.14312006257E+02  0.40246178459E+02 -0.26727606615E+03  0.27066784800E+03  0.00000000000E+00 0. -1.
        -14    1    6    6    0    0 -0.79252165869E+02 -0.16854369311E+02 -0.30374541430E+03  0.31436642993E+03  0.00000000000E+00 0.  1.
</event>
<event>
12    1  0.9017558E-003  0.1859926E+03  0.7818608E-02  0.1162262E+00
         21   -1    0    0  501  502  0.00000000000E+00  0.00000000000E+00  0.78274337049E+02  0.78274337049E+02  0.00000000000E+00 0. -1.
         21   -1    0    0  502  503 -0.00000000000E+00 -0.00000000000E+00 -0.48570641100E+03  0.48570641100E+03  0.00000000000E+00 0. -1.
          6    2    1    2  501    0  0.23996292286E+02  0.63949249790E+02 -0.11745435143E+03  0.21948062737E+03  0.17236847893E+03 0.  0.
         24    2    3    3    0    0 -0.36654938303E+02  0.53730913357E+02 -0.21366802375E+02  0.10529703286E+03  0.80002058303E+02 0.  0.
         -6    2    1    2    0  503 -0.23996292286E+02 -0.63949249790E+02 -0.28997772252E+03  0.34450012068E+03  0.17299689303E+03 0.  0.
        -24    2    5    5    0    0  0.48325178609E+02 -0.59893976804E+02 -0.20019748984E+03  0.22904701084E+03  0.80379642280E+02 0.  0.
          5    1    3    3  501    0  0.60651230589E+02  0.10218336432E+02 -0.96087549060E+02  0.11418359451E+03  0.47000000000E+01 0. -1.
        -11    1    4    4    0    0  0.10985163137E+02  0.10492234568E+02 -0.36212876531E+02  0.39270004100E+02  0.00000000000E+00 0.  1.
         12    1    4    4    0    0 -0.47640101441E+02  0.43238678790E+02  0.14846074156E+02  0.66027028758E+02  0.00000000000E+00 0. -1.
         -5    1    5    5    0  503 -0.72321470895E+02 -0.40552729862E+01 -0.89780232684E+02  0.11545310984E+03  0.47000000000E+01 0.  1.
         13    1    6    6    0    0  0.33961939816E+02 -0.53632860498E+02 -0.20338122384E+03  0.21305825328E+03  0.00000000000E+00 0. -1.
        -14    1    6    6    0    0  0.14363238792E+02 -0.62611163053E+01  0.31837340043E+01  0.15988757557E+02  0.00000000000E+00 0.  1.
</event>
<event>
12    1  0.9017558E-003  0.2301697E+03  0.7818608E-02  0.1126654E+00
         21   -1    0    0  503  502  0.00000000000E+00  0.00000000000E+00  0.48810763358E+02  0.48810763358E+02  0.00000000000E+00 0.  1.
         21   -1    0    0  501  503 -0.00000000000E+00 -0.00000000000E+00 -0.10818048735E+04  0.10818048735E+04  0.00000000000E+00 0.  1.
          6    2    1    2  501    0 -0.14493998812E+03 -0.44706720616E+02 -0.51771287220E+03  0.56626394683E+03  0.17211027979E+03 0.  0.
         24    2    3    3    0    0 -0.27131341745E+02  0.28865673348E+02 -0.19257080485E+03  0.21266639554E+03  0.81081095879E+02 0.  0.
         -6    2    1    2    0  502  0.14493998812E+03  0.44706720616E+02 -0.51528123798E+03  0.56435169007E+03  0.17312361146E+03 0.  0.
        -24    2    5    5    0    0  0.12508399308E+03  0.92838578127E+02 -0.43294317405E+03  0.46681921846E+03  0.78837705782E+02 0.  0.
          5    1    3    3  501    0 -0.11780864638E+03 -0.73572393963E+02 -0.32514206735E+03  0.35359755128E+03  0.47000000000E+01 0. -1.
        -13    1    4    4    0    0 -0.39560872491E+02  0.45903310702E+02 -0.93820133851E+02  0.11168882702E+03  0.00000000000E+00 0.  1.
         14    1    4    4    0    0  0.12429530746E+02 -0.17037637354E+02 -0.98750671003E+02  0.10097756852E+03  0.00000000000E+00 0. -1.
         -5    1    5    5    0  502  0.19855995043E+02 -0.48131857511E+02 -0.82338063927E+02  0.97532471607E+02  0.47000000000E+01 0.  1.
         11    1    6    6    0    0  0.27047655314E+02  0.17240920583E+02 -0.25479172146E+02  0.40963559583E+02  0.00000000000E+00 0. -1.
        -12    1    6    6    0    0  0.98036337768E+02  0.75597657544E+02 -0.40746400191E+03  0.42585565888E+03  0.00000000000E+00 0.  1.
</event>
<event>
12    1  0.9017558E-003  0.1973053E+03  0.7818608E-02  0.1152067E+00
         21   -1    0    0  501  502  0.00000000000E+00  0.00000000000E+00  0.74815296862E+03  0.74815296862E+03  0.00000000000E+00 0.  1.
         21   -1    0    0  502  503 -0.00000000000E+00 -0.00000000000E+00 -0.52113578147E+02  0.52113578147E+02  0.00000000000E+00 0.  1.
          6    2    1    2  501    0  0.45910558836E+02  0.85953943752E+02  0.32877065971E+03  0.38343127742E+03  0.17156205278E+03 0.  0.
         24    2    3    3    0    0  0.84869413638E+02  0.23713249117E+02  0.24341129180E+03  0.27073696466E+03  0.79273649500E+02 0.  0.
         -6    2    1    2    0  503 -0.45910558836E+02 -0.85953943752E+02  0.36726873076E+03  0.41683526935E+03  0.17137520626E+03 0.  0.
        -24    2    5    5    0    0 -0.87021091710E+02 -0.37416984048E+02  0.17626285583E+03  0.21546186836E+03  0.79890683264E+02 0.  0.
          5    1    3    3  501    0 -0.38958854801E+02  0.62240694635E+02  0.85359367913E+02  0.11269431275E+03  0.47000000000E+01 0. -1.
        -11    1    4    4    0    0  0.15389558725E+02  0.14618809277E+02  0.16173147819E+03  0.16311842060E+03  0.00000000000E+00 0.  1.
         12    1    4    4    0    0  0.69479854912E+02  0.90944398395E+01  0.81679813611E+02  0.10761854406E+03  0.00000000000E+00 0. -1.
         -5    1    5    5    0  503  0.41110532874E+02 -0.48536959704E+02  0.19100587493E+03  0.20137340099E+03  0.47000000000E+01 0.  1.
         13    1    6    6    0    0 -0.60779092495E+02 -0.55181999670E+02  0.16002743775E+03  0.17985530852E+03  0.00000000000E+00 0. -1.
        -14    1    6    6    0    0 -0.26241999215E+02  0.17765015622E+02  0.16235418085E+02  0.35606559835E+02  0.00000000000E+00 0.  1.
</event>
<event>
12    1  0.9017558E-003  0.2051037E+03  0.7818608E-02  0.1146091E+00
         21   -1    0    0  501  502  0.00000000000E+00  0.00000000000E+00  0.29319275653E+03  0.29319275653E+03  0.00000000000E+00 0.  1.
         21   -1    0    0  502  503 -0.00000000000E+00 -0.00000000000E+00 -0.14187556801E+03  0.14187556801E+03  0.00000000000E+00 0.  1.
          6    2    1    2  501    0 -0.99905141975E+02  0.42214239770E+02  0.63741990293E+02  0.21205049176E+03  0.17070234415E+03 0.  0.
         24    2    3    3    0    0 -0.13670393870E+03  0.23638794813E+02  0.41762091436E+02  0.16509940499E+03  0.79164270790E+02 0.  0.
         -6    2    1    2    0  503  0.99905141975E+02 -0.42214239770E+02  0.87575198225E+02  0.22301783278E+03  0.17408175942E+03 0.  0.
        -24    2    5    5    0    0  0.25039036178E+02 -0.69600017036E+02  0.82549334259E+01  0.11046247306E+03  0.81625353448E+02 0.  0.
          5    1    3    3  501    0  0.36798796723E+02  0.18575444957E+02  0.21979898857E+02  0.46951086775E+02  0.47000000000E+01 0. -1.
        -13    1    4    4    0    0 -0.98863462135E+02  0.48783495897E+02  0.12250443117E+02  0.11092288751E+03  0.00000000000E+00 0.  1.
         14    1    4    4    0    0 -0.37840476563E+02 -0.25144701084E+02  0.29511648318E+02  0.54176517474E+02  0.00000000000E+00 0. -1.
         -5    1    5    5    0  503  0.74866105797E+02  0.27385777266E+02  0.79320264799E+02  0.11255535972E+03  0.47000000000E+01 0.  1.
         11    1    6    6    0    0 -0.19454324162E+02 -0.45254479752E+02  0.27261712403E+02  0.56299552657E+02  0.00000000000E+00 0. -1.
        -12    1    6    6    0    0  0.44493360340E+02 -0.24345537284E+02 -0.19006778977E+02  0.54162920407E+02  0.00000000000E+00 0.  1.
</event>
<event>
12    1  0.9017558E-003  0.2770377E+03  0.7818608E-02  0.1097341E+00
         21   -1    0    0  503  502  0.00000000000E+00  0.00000000000E+00  0.93182361171E+03  0.93182361171E+03  0.00000000000E+00 0. -1.
         21   -1    0    0  501  503 -0.00000000000E+00 -0.00000000000E+00 -0.82903200847E+02  0.82903200847E+02  0.00000000000E+00 0. -1.
          6    2    1    2  501    0 -0.48500659472E+02 -0.21138055820E+03  0.38158786664E+03  0.47145008172E+03  0.17210992192E+03 0.  0.
         24    2    3    3    0    0 -0.75988944241E+02 -0.11518390312E+03  0.12211581681E+03  0.19331839188E+03  0.58464320203E+02 0.  0.
         -6    2    1    2    0  502  0.48500659472E+02  0.21138055820E+03  0.46733254422E+03  0.54327673084E+03  0.17238284438E+03 0.  0.
        -24    2    5    5    0    0 -0.29792494388E+01  0.13952971703E+03  0.17718388883E+03  0.23992700425E+03  0.81813318272E+02 0.  0.
          5    1    3    3  501    0  0.27488284768E+02 -0.96196655076E+02  0.25947204984E+03  0.27813168984E+03  0.47000000000E+01 0. -1.
        -11    1    4    4    0    0  0.14522892712E+01 -0.45803265812E+02  0.34767172405E+02  0.57522209452E+02  0.00000000000E+00 0.  1.
         12    1    4    4    0    0 -0.77441233512E+02 -0.69380637311E+02  0.87348644405E+02  0.13579618242E+03  0.00000000000E+00 0. -1.
         -5    1    5    5    0  502  0.51479908911E+02  0.71850841165E+02  0.29014865539E+03  0.30334972659E+03  0.47000000000E+01 0.  1.
         13    1    6    6    0    0  0.29550686091E+01  0.12162607484E+03  0.18338522418E+03  0.22007220397E+03  0.00000000000E+00 0. -1.
        -14    1    6    6    0    0 -0.59343180479E+01  0.17903642191E+02 -0.62013353469E+01  0.19854800288E+02  0.00000000000E+00 0.  1.
</event>
<event>
12    1  0.9017558E-003  0.1824130E+03  0.7818608E-02  0.1165973E+00
         21   -1    0    0  501  502  0.00000000000E+00  0.00000000000E+00  0.20982952582E+03  0.20982952582E+03  0.00000000000E+00 0.  1.
         21   -1    0    0  502  503 -0.00000000000E+00 -0.00000000000E+00 -0.17756710813E+03  0.17756710813E+03  0.00000000000E+00 0.  1.
          6    2    1    2  501    0  0.19567888457E+02 -0.53121978183E+02 -0.50156474585E+02  0.18722823398E+03  0.17127140109E+03 0.  0.
         24    2    3    3    0    0  0.23184859923E+02 -0.14651567594E+02  0.34180126692E+02  0.94342243171E+02  0.83546224470E+02 0.  0.
         -6    2    1    2    0  503 -0.19567888457E+02  0.53121978183E+02  0.82418892272E+02  0.20016839997E+03  0.17340607751E+03 0.  0.
        -24    2    5    5    0    0  0.40922193698E+02  0.95821218409E+01  0.32318799980E+01  0.91322444404E+02  0.81011732530E+02 0.  0.
          5    1    3    3  501    0 -0.36169714659E+01 -0.38470410589E+02 -0.84336601277E+02  0.92885990808E+02  0.47000000000E+01 0. -1.
        -13    1    4    4    0    0 -0.14691286259E+02  0.80054126051E+01 -0.18945200876E+02  0.25275307301E+02  0.00000000000E+00 0.  1.
         14    1    4    4    0    0  0.37876146181E+02 -0.22656980199E+02  0.53125327568E+02  0.69066935870E+02  0.00000000000E+00 0. -1.
         -5    1    5    5    0  503 -0.60490082155E+02  0.43539856342E+02  0.79187012274E+02  0.10884595556E+03  0.47000000000E+01 0.  1.
         11    1    6    6    0    0  0.49497227801E+02  0.39028919077E+01  0.33140296411E+02  0.59694952646E+02  0.00000000000E+00 0. -1.
        -12    1    6    6    0    0 -0.85750341031E+01  0.56792299332E+01 -0.29908416413E+02  0.31627491757E+02  0.00000000000E+00 0.  1.
</event>
<event>
12    1  0.9017558E-003  0.2623686E+03  0.7818608E-02  0.1106929E+00
         21   -1    0    0  503  502  0.00000000000E+00  0.00000000000E+00  0.13382104198E+04  0.13382104198E+04  0.00000000000E+00 0.  1.
         21   -1    0    0  501  503 -0.00000000000E+00 -0.00000000000E+00 -0.55909339660E+02  0.55909339660E+02  0.00000000000E+00 0.  1.
          6    2    1    2  501    0 -0.11812520351E+03  0.14500730746E+03  0.40367823384E+03  0.47715989018E+03  0.17246669648E+03 0.  0.
         24    2    3    3    0    0 -0.12427662127E+03  0.15611391527E+03  0.27353919293E+03  0.34631854867E+03  0.72777839690E+02 0.  0.
         -6    2    1    2    0  502  0.11812520351E+03 -0.14500730746E+03  0.87862284632E+03  0.91695986930E+03  0.18400166553E+03 0.  0.
        -24    2    5    5    0    0  0.22534648678E+02  0.28729551721E+01  0.21147514368E+03  0.22694952635E+03  0.79172513238E+02 0.  0.
          5    1    3    3  501    0  0.61514177631E+01 -0.11106607804E+02  0.13013904091E+03  0.13084134151E+03  0.47000000000E+01 0. -1.
        -13    1    4    4    0    0 -0.11851027089E+03  0.12335854737E+03  0.18613747944E+03  0.25280264390E+03  0.00000000000E+00 0.  1.
         14    1    4    4    0    0 -0.57663503889E+01  0.32755367901E+02  0.87401713490E+02  0.93515904765E+02  0.00000000000E+00 0. -1.
         -5    1    5    5    0  502  0.95590554833E+02 -0.14788026263E+03  0.66714770263E+03  0.69001034295E+03  0.47000000000E+01 0.  1.
         11    1    6    6    0    0 -0.15918389711E+02 -0.27323363912E+02  0.60665501642E+02  0.68412458192E+02  0.00000000000E+00 0. -1.
        -12    1    6    6    0    0  0.38453038389E+02  0.30196319084E+02  0.15080964204E+03  0.15853706816E+03  0.00000000000E+00 0.  1.
</event>
<event>
12    1  0.9017558E-003  0.1931129E+03  0.7818608E-02  0.1155875E+00
         21   -1    0    0  501  502  0.00000000000E+00  0.00000000000E+00  0.73081812733E+03  0.73081812733E+03  0.00000000000E+00 0. -1.
         21   -1    0    0  502  503 -0.00000000000E+00 -0.00000000000E+00 -0.72205679086E+02  0.72205679086E+02  0.00000000000E+00 0.  1.
          6    2    1    2  501    0  0.65991370651E+02 -0.61326145710E+02  0.54739808214E+03  0.58017578931E+03  0.16983382766E+03 0.  0.
         24    2    3    3    0    0  0.91682005814E+02 -0.27111994412E+02  0.51157588118E+03  0.52417635212E+03  0.62532515369E+02 0.  0.
         -6    2    1    2    0  503 -0.65991370651E+02  0.61326145710E+02  0.11121436609E+03  0.22284801710E+03  0.17081231324E+03 0.  0.
        -24    2    5    5    0    0 -0.51994184425E+02  0.94542647829E+02  0.43385391708E+02  0.14589272488E+03  0.88094764237E+02 0.  0.
          5    1    3    3  501    0 -0.25690635163E+02 -0.34214151298E+02  0.35822200962E+02  0.55999437192E+02  0.47000000000E+01 0. -1.
        -11    1    4    4    0    0  0.51383579712E+02  0.13644644528E+02  0.31345100192E+03  0.31792763201E+03  0.00000000000E+00 0.  1.
         12    1    4    4    0    0  0.40298426102E+02 -0.40756638940E+02  0.19812487926E+03  0.20624872011E+03  0.00000000000E+00 0. -1.
         -5    1    5    5    0  503 -0.13997186226E+02 -0.33216502119E+02  0.67828974386E+02  0.76955292226E+02  0.47000000000E+01 0.  1.
         11    1    6    6    0    0 -0.37368474566E+02  0.22480655777E+02  0.56322524954E+02  0.71232082609E+02  0.00000000000E+00 0. -1.
        -12    1    6    6    0    0 -0.14625709859E+02  0.72061992052E+02 -0.12937133246E+02  0.74660642269E+02  0.00000000000E+00 0.  1.
</event>
<event>
12    1  0.9017558E-003  0.3251669E+03  0.7818608E-02  0.1073492E+00
         21   -1    0    0  503  502  0.00000000000E+00  0.00000000000E+00  0.69475174532E+03  0.69475174532E+03  0.00000000000E+00 0.  1.
         21   -1    0    0  501  503 -0.00000000000E+00 -0.00000000000E+00 -0.16862699180E+03  0.16862699180E+03  0.00000000000E+00 0. -1.
          6    2    1    2  501    0  0.49321623109E+02 -0.26999606027E+03  0.12562753978E+03  0.34859116137E+03  0.17436462934E+03 0.  0.
         24    2    3    3    0    0  0.43429246649E+02 -0.17910744507E+03  0.10432472634E+02  0.20166446547E+03  0.81204333640E+02 0.  0.
         -6    2    1    2    0  502 -0.49321623109E+02  0.26999606027E+03  0.40049721374E+03  0.51478757575E+03  0.17110737817E+03 0.  0.
        -24    2    5    5    0    0 -0.26727978366E+02  0.27936286975E+03  0.39260329073E+03  0.48866069451E+03  0.76771952198E+02 0.  0.
          5    1    3    3  501    0  0.58923764609E+01 -0.90888615198E+02  0.11519506715E+03  0.14692669590E+03  0.47000000000E+01 0. -1.
        -13    1    4    4    0    0 -0.87548475788E+01  0.11222397202E+01 -0.95104666239E+01  0.12975197629E+02  0.00000000000E+00 0.  1.
         14    1    4    4    0    0  0.52184094227E+02 -0.18022968479E+03  0.19942939258E+02  0.18868926784E+03  0.00000000000E+00 0. -1.
         -5    1    5    5    0  502 -0.22593644744E+02 -0.93668094818E+01  0.78939230097E+01  0.26126881237E+02  0.47000000000E+01 0.  1.
         13    1    6    6    0    0 -0.19517155021E+02  0.17610171668E+03  0.18204293217E+03  0.25403220881E+03  0.00000000000E+00 0. -1.
        -14    1    6    6    0    0 -0.72108233447E+01  0.10326115307E+03  0.21056035856E+03  0.23462848571E+03  0.00000000000E+00 0.  1.
</event>
<event>
12    1  0.9017558E-003  0.1874898E+03  0.7818608E-02  0.1161913E+00
         21   -1    0    0  503  502  0.00000000000E+00  0.00000000000E+00  0.61380108145E+03  0.61380108145E+03  0.00000000000E+00 0. -1.
         21   -1    0    0  501  503 -0.00000000000E+00 -0.00000000000E+00 -0.55930462673E+02  0.55930462673E+02  0.00000000000E+00 0. -1.
          6    2    1    2  501    0  0.10974308477E+02  0.54953105209E+02  0.25602635677E+03  0.31439735755E+03  0.17365461080E+03 0.  0.
         24    2    3    3    0    0  0.67188034405E+02  0.11615656158E+01  0.13327395760E+03  0.16898843686E+03  0.79243692586E+02 0.  0.
         -6    2    1    2    0  502 -0.10974308477E+02 -0.54953105209E+02  0.30184426200E+03  0.35533418657E+03  0.17891938527E+03 0.  0.
        -24    2    5    5    0    0  0.24047058943E+02 -0.38913370271E+02  0.57440192396E+02  0.10786861621E+03  0.79017410941E+02 0.  0.
          5    1    3    3  501    0 -0.56213725928E+02  0.53791539593E+02  0.12275239918E+03  0.14540892070E+03  0.47000000000E+01 0. -1.
        -11    1    4    4    0    0  0.14882748093E+02 -0.23745225873E+02  0.96223531251E+02  0.10022125478E+03  0.00000000000E+00 0.  1.
         12    1    4    4    0    0  0.52305286312E+02  0.24906791489E+02  0.37050426347E+02  0.68767182078E+02  0.00000000000E+00 0. -1.
         -5    1    5    5    0  502 -0.35021367420E+02 -0.16039734938E+02  0.24440406961E+03  0.24746557036E+03  0.47000000000E+01 0.  1.
         13    1    6    6    0    0 -0.26309829826E+02 -0.17915448436E+02  0.38860161628E+02  0.50232286429E+02  0.00000000000E+00 0. -1.
        -14    1    6    6    0    0  0.50356888768E+02 -0.20997921835E+02  0.18580030768E+02  0.57636329786E+02  0.00000000000E+00 0.  1.
</event>
<event>
12    1  0.9017558E-003  0.3469930E+03  0.7818608E-02  0.1063919E+00
         21   -1    0    0  503  502  0.00000000000E+00  0.00000000000E+00  0.11312505070E+04  0.11312505070E+04  0.00000000000E+00 0.  1.
         21   -1    0    0  501  503 -0.00000000000E+00 -0.00000000000E+00 -0.13706613752E+03  0.13706613752E+03  0.00000000000E+00 0. -1.
          6    2    1    2  501    0 -0.29727321349E+03 -0.46101713246E+02  0.19605067448E+03  0.39801697996E+03  0.17171172921E+03 0.  0.
         24    2    3    3    0    0 -0.10732159488E+03  0.57064110185E+01  0.21279698177E+02  0.13470597884E+03  0.78373384043E+02 0.  0.
         -6    2    1    2    0  502  0.29727321349E+03  0.46101713246E+02  0.79813369499E+03  0.87029966454E+03  0.17293750200E+03 0.  0.
        -24    2    5    5    0    0  0.20443792674E+03  0.18060971531E+02  0.69485503981E+03  0.72854902335E+03  0.76413928638E+02 0.  0.
          5    1    3    3  501    0 -0.18995161862E+03 -0.51808124264E+02  0.17477097630E+03  0.26331100112E+03  0.47000000000E+01 0. -1.
        -11    1    4    4    0    0 -0.19241628921E+02 -0.87729334206E+01  0.38380170658E+02  0.43820567592E+02  0.00000000000E+00 0.  1.
         12    1    4    4    0    0 -0.88079965954E+02  0.14479344439E+02 -0.17100472481E+02  0.90885411244E+02  0.00000000000E+00 0. -1.
         -5    1    5    5    0  502  0.92835286755E+02  0.28040741715E+02  0.10327865518E+03  0.14175064119E+03  0.47000000000E+01 0.  1.
         13    1    6    6    0    0  0.25147575321E+02  0.78578078416E+01  0.20740506509E+03  0.20907177407E+03  0.00000000000E+00 0. -1.
        -14    1    6    6    0    0  0.17929035142E+03  0.10203163689E+02  0.48744997472E+03  0.51947724927E+03  0.00000000000E+00 0.  1.
</event>
<event>
12    1  0.9017558E-003  0.1772877E+03  0.7818608E-02  0.1170533E+00
         21   -1    0    0  503  502  0.00000000000E+00  0.00000000000E+00  0.99003878718E+02  0.99003878718E+02  0.00000000000E+00 0.  1.
         21   -1    0    0  501  503 -0.00000000000E+00 -0.00000000000E+00 -0.32476280647E+03  0.32476280647E+03  0.00000000000E+00 0.  1.
          6    2    1    2  501    0  0.31821633598E+02  0.28170499260E+02 -0.14575443273E+03  0.22926307147E+03  0.17178768258E+03 0.  0.
         24    2    3    3    0    0  0.39228764720E+02  0.75620608003E+02 -0.59491389177E+02  0.13042086847E+03  0.78822618639E+02 0.  0.
         -6    2    1    2    0  502 -0.31821633598E+02 -0.28170499260E+02 -0.80004495020E+02  0.19450361372E+03  0.17211839859E+03 0.  0.
        -24    2    5    5    0    0 -0.17838571798E+02  0.20271338070E+02 -0.10736849983E+03  0.13694480570E+03  0.80602377520E+02 0.  0.
          5    1    3    3  501    0 -0.74071311221E+01 -0.47450108743E+02 -0.86263043554E+02  0.98842203003E+02  0.47000000000E+01 0. -1.
        -11    1    4    4    0    0  0.52030870016E+02  0.35026067455E+02 -0.61454105959E+02  0.87810272606E+02  0.00000000000E+00 0.  1.
         12    1    4    4    0    0 -0.12802105296E+02  0.40594540548E+02  0.19627167820E+01  0.42610595860E+02  0.00000000000E+00 0. -1.
         -5    1    5    5    0  502 -0.13983061800E+02 -0.48441837330E+02  0.27364004809E+02  0.57558808017E+02  0.47000000000E+01 0.  1.
         11    1    6    6    0    0 -0.42938474734E+02  0.28481509791E+02 -0.42106883048E+02  0.66542457217E+02  0.00000000000E+00 0. -1.
        -12    1    6    6    0    0  0.25099902936E+02 -0.82101717210E+01 -0.65261616781E+02  0.70402348483E+02  0.00000000000E+00 0.  1.
</event>
<event>
12    1  0.9017558E-003  0.1860285E+03  0.7818608E-02  0.1162368E+00
         21   -1    0    0  503  502  0.00000000000E+00  0.00000000000E+00  0.32099388524E+03  0.32099388524E+03  0.00000000000E+00 0. -1.
         21   -1    0    0  501  503 -0.00000000000E+00 -0.00000000000E+00 -0.10793730337E+03  0.10793730337E+03  0.00000000000E+00 0. -1.
          6    2    1    2  501    0  0.53815222210E+02  0.48780155101E+02  0.12544920608E+03  0.22437495911E+03  0.17126306461E+03 0.  0.
         24    2    3    3    0    0  0.92870766424E+02  0.42639001213E+01  0.62901251306E+02  0.13811158834E+03  0.80467902405E+02 0.  0.
         -6    2    1    2    0  502 -0.53815222210E+02 -0.48780155101E+02  0.87607375798E+02  0.20455622950E+03  0.16997828408E+03 0.  0.
        -24    2    5    5    0    0 -0.68023972158E+02 -0.93299517867E+02  0.72831579237E+02  0.15531928808E+03  0.74078212000E+02 0.  0.
          5    1    3    3  501    0 -0.39055544214E+02  0.44516254980E+02  0.62547954771E+02  0.86263370775E+02  0.47000000000E+01 0. -1.
        -11    1    4    4    0    0  0.13259462098E+02 -0.26485317332E+02 -0.37096299671E+01  0.29850405756E+02  0.00000000000E+00 0.  1.
         12    1    4    4    0    0  0.79611304327E+02  0.30749217453E+02  0.66610881273E+02  0.10826118258E+03  0.00000000000E+00 0. -1.
         -5    1    5    5    0  502  0.14208749948E+02  0.44519362766E+02  0.14775796561E+02  0.49236941418E+02  0.47000000000E+01 0.  1.
         11    1    6    6    0    0 -0.42643279220E+02 -0.82138310435E+01  0.52668826542E+01  0.43745357879E+02  0.00000000000E+00 0. -1.
        -12    1    6    6    0    0 -0.25380692938E+02 -0.85085686823E+02  0.67564696583E+02  0.11157393020E+03  0.00000000000E+00 0.  1.
</event>
<event>
12    1  0.9017558E-003  0.2085101E+03  0.7818608E-02  0.1143085E+00
         21   -1    0    0  501  502  0.00000000000E+00  0.00000000000E+00  0.16278636067E+03  0.16278636067E+03  0.00000000000E+00 0. -1.
         21   -1    0    0  502  503 -0.00000000000E+00 -0.00000000000E+00 -0.28402718504E+03  0.28402718504E+03  0.00000000000E+00 0. -1.
          6    2    1    2  501    0 -0.10160480447E+03 -0.61114751669E+02 -0.29532107295E+01  0.20853101875E+03  0.17151651571E+03 0.  0.
         24    2    3    3    0    0 -0.54202735383E+02  0.29875657888E+02 -0.22247821263E+02  0.10402942651E+03  0.80601889375E+02 0.  0.
         -6    2    1    2    0  503  0.10160480447E+03  0.61114751669E+02 -0.11828761363E+03  0.23828252696E+03  0.16949352186E+03 0.  0.
        -24    2    5    5    0    0  0.95838506311E+02  0.72237771424E+02 -0.27112761817E+02  0.14613093790E+03  0.78840562184E+02 0.  0.
          5    1    3    3  501    0 -0.47402069089E+02 -0.90990409557E+02  0.19294610534E+02  0.10450159224E+03  0.47000000000E+01 0. -1.
        -11    1    4    4    0    0  0.49667936831E+01  0.32279687834E+02  0.12958044997E+02  0.35136280627E+02  0.00000000000E+00 0.  1.
         12    1    4    4    0    0 -0.59169529066E+02 -0.24040299464E+01 -0.35205866260E+02  0.68893145878E+02  0.00000000000E+00 0. -1.
         -5    1    5    5    0  503  0.57662981612E+01 -0.11123019755E+02 -0.91174851817E+02  0.92151589063E+02  0.47000000000E+01 0.  1.
         13    1    6    6    0    0  0.81907697930E+02  0.27818208182E+02 -0.43440568212E+02  0.96797761613E+02  0.00000000000E+00 0. -1.
        -14    1    6    6    0    0  0.13930808381E+02  0.44419563242E+02  0.16327806395E+02  0.49333176286E+02  0.00000000000E+00 0.  1.
</event>
<event>
12    1  0.9017558E-003  0.2231213E+03  0.7818608E-02  0.1131648E+00
         21   -1    0    0  501  502  0.00000000000E+00  0.00000000000E+00  0.56329870283E+02  0.56329870283E+02  0.00000000000E+00 0. -1.
         21   -1    0    0  502  503 -0.00000000000E+00 -0.00000000000E+00 -0.11841009585E+04  0.11841009585E+04  0.00000000000E+00 0. -1.
          6    2    1    2  501    0  0.22218927186E+02 -0.14017355854E+03 -0.25110586240E+03  0.33591261579E+03  0.17216510701E+03 0.  0.
         24    2    3    3    0    0 -0.52369347902E+02 -0.69046517897E+02 -0.10963312824E+03  0.16081523945E+03  0.79574796237E+02 0.  0.
         -6    2    1    2    0  503 -0.22218927186E+02  0.14017355854E+03 -0.87666522584E+03  0.90451821302E+03  0.17166529134E+03 0.  0.
        -24    2    5    5    0    0  0.44758749206E+02  0.12409707880E+03 -0.61783289618E+03  0.63663628528E+03  0.78643763453E+02 0.  0.
          5    1    3    3  501    0  0.74588275088E+02 -0.71127040646E+02 -0.14147273416E+03  0.17509737634E+03  0.47000000000E+01 0. -1.
        -13    1    4    4    0    0  0.18630952256E+01  0.90830993724E+01 -0.44710137221E+02  0.45661473786E+02  0.00000000000E+00 0.  1.
         14    1    4    4    0    0 -0.54232443128E+02 -0.78129617269E+02 -0.64922991023E+02  0.11515376566E+03  0.00000000000E+00 0. -1.
         -5    1    5    5    0  503 -0.66977676391E+02  0.16076479745E+02 -0.25883232966E+03  0.26788192775E+03  0.47000000000E+01 0.  1.
         11    1    6    6    0    0  0.50418150250E+02  0.62337101950E+02 -0.46218909426E+03  0.46909131627E+03  0.00000000000E+00 0. -1.
        -12    1    6    6    0    0 -0.56594010443E+01  0.61759976847E+02 -0.15564380193E+03  0.16754496901E+03  0.00000000000E+00 0.  1.
</event>
<event>
12    1  0.9017558E-003  0.2149584E+03  0.7818608E-02  0.1137833E+00
         21   -1    0    0  501  502  0.00000000000E+00  0.00000000000E+00  0.30168199656E+03  0.30168199656E+03  0.00000000000E+00 0. -1.
         21   -1    0    0  502  503 -0.00000000000E+00 -0.00000000000E+00 -0.16447936797E+03  0.16447936797E+03  0.00000000000E+00 0. -1.
          6    2    1    2  501    0 -0.12008097744E+03 -0.43518051185E+02  0.13096293799E+03  0.25111243461E+03  0.17202587528E+03 0.  0.
         24    2    3    3    0    0 -0.72482014865E+02  0.11690353832E+02  0.14005200593E+03  0.17750312556E+03  0.80638008206E+02 0.  0.
         -6    2    1    2    0  503  0.12008097744E+03  0.43518051185E+02  0.62396905969E+01  0.21504892992E+03  0.17289837073E+03 0.  0.
        -24    2    5    5    0    0  0.51372626432E+02 -0.22441718238E+02  0.52024865937E+02  0.10926660171E+03  0.78037337921E+02 0.  0.
          5    1    3    3  501    0 -0.47598962575E+02 -0.55208405017E+02 -0.90890679398E+01  0.73609309050E+02  0.47000000000E+01 0. -1.
        -11    1    4    4    0    0  0.99958856128E+01 -0.61571508503E+01  0.60167351166E+02  0.61302025922E+02  0.00000000000E+00 0.  1.
         12    1    4    4    0    0 -0.82477900477E+02  0.17847504683E+02  0.79884654762E+02  0.11620109964E+03  0.00000000000E+00 0. -1.
         -5    1    5    5    0  503  0.68708351008E+02  0.65959769423E+02 -0.45785175340E+02  0.10578232821E+03  0.47000000000E+01 0.  1.
         13    1    6    6    0    0  0.16270354414E+02  0.23683411140E+02 -0.35663287516E+01  0.28954224161E+02  0.00000000000E+00 0. -1.
        -14    1    6    6    0    0  0.35102272017E+02 -0.46125129378E+02  0.55591194688E+02  0.80312377550E+02  0.00000000000E+00 0.  1.
</event>
<event>
12    1  0.9017558E-003  0.2355915E+03  0.7818608E-02  0.1123635E+00
         21   -1    0    0  503  502  0.00000000000E+00  0.00000000000E+00  0.66371374738E+02  0.66371374738E+02  0.00000000000E+00 0.  1.
         21   -1    0    0  501  503 -0.00000000000E+00 -0.00000000000E+00 -0.83244933976E+03  0.83244933976E+03  0.00000000000E+00 0.  1.
          6    2    1    2  501    0  0.95811084759E+02 -0.11894098711E+03 -0.32884942634E+03  0.40453094066E+03  0.17937841111E+03 0.  0.
         24    2    3    3    0    0  0.79680036612E+02  0.17464285112E+01 -0.16616770722E+03  0.20127471139E+03  0.80918751063E+02 0.  0.
         -6    2    1    2    0  502 -0.95811084759E+02  0.11894098711E+03 -0.43722853868E+03  0.49428977384E+03  0.17270455439E+03 0.  0.
        -24    2    5    5    0    0 -0.13116391399E+03  0.11979796039E+03 -0.36393315364E+03  0.41277376065E+03  0.79870604816E+02 0.  0.
          5    1    3    3  501    0  0.16131048147E+02 -0.12068741562E+03 -0.16268171912E+03  0.20325622927E+03  0.47000000000E+01 0. -1.
        -13    1    4    4    0    0  0.42632670657E+02  0.20419038904E+02 -0.14910032606E+03  0.15641415853E+03  0.00000000000E+00 0.  1.
         14    1    4    4    0    0  0.37047365955E+02 -0.18672610393E+02 -0.17067381164E+02  0.44860552860E+02  0.00000000000E+00 0. -1.
         -5    1    5    5    0  502  0.35352829234E+02 -0.85697328208E+00 -0.73295385036E+02  0.81516013185E+02  0.47000000000E+01 0.  1.
         13    1    6    6    0    0 -0.55711728391E+02  0.79984360670E+02 -0.26376328078E+03  0.28119808484E+03  0.00000000000E+00 0. -1.
        -14    1    6    6    0    0 -0.75452185602E+02  0.39813599720E+02 -0.10016987287E+03  0.13157567581E+03  0.00000000000E+00 0.  1.
</event>
<event>
12    1  0.9017558E-003  0.1737649E+03  0.7818608E-02  0.1174284E+00
         21   -1    0    0  501  502  0.00000000000E+00  0.00000000000E+00  0.31541402557E+02  0.31541402557E+02  0.00000000000E+00 0.  1.
         21   -1    0    0  502  503 -0.00000000000E+00 -0.00000000000E+00 -0.98747494353E+03  0.98747494353E+03  0.00000000000E+00 0.  1.
          6    2    1    2  501    0  0.78355125063E+01  0.13547536260E+02 -0.57795644268E+03  0.60351296244E+03  0.17305870452E+03 0.  0.
         24    2    3    3    0    0  0.15977387321E+02  0.26047550201E+02 -0.13170213988E+03  0.15698465065E+03  0.79780794128E+02 0.  0.
         -6    2    1    2    0  503 -0.78355125063E+01 -0.13547536260E+02 -0.37797709830E+03  0.41550338365E+03  0.17184715299E+03 0.  0.
        -24    2    5    5    0    0 -0.20465960876E+02  0.45579031825E+02 -0.13322320858E+03  0.16334859823E+03  0.80237382441E+02 0.  0.
          5    1    3    3  501    0 -0.81418748148E+01 -0.12500013941E+02 -0.44625430279E+03  0.44652831179E+03  0.47000000000E+01 0. -1.
        -13    1    4    4    0    0 -0.26453188094E+02 -0.92744869972E+01 -0.62189423055E+02  0.68215186061E+02  0.00000000000E+00 0.  1.
         14    1    4    4    0    0  0.42430575415E+02  0.35322037199E+02 -0.69512716829E+02  0.88769464586E+02  0.00000000000E+00 0. -1.
         -5    1    5    5    0  503  0.12630448369E+02 -0.59126568085E+02 -0.24475388972E+03  0.25215478542E+03  0.47000000000E+01 0.  1.
         13    1    6    6    0    0 -0.33593024115E+02  0.48424449272E+02 -0.13721469638E+03  0.14933616930E+03  0.00000000000E+00 0. -1.
        -14    1    6    6    0    0  0.13127063239E+02 -0.28454174468E+01  0.39914877993E+01  0.14012428932E+02  0.00000000000E+00 0.  1.
</event>
<event>
12    1  0.9017558E-003  0.2181975E+03  0.7818608E-02  0.1135459E+00
         21   -1    0    0  503  502  0.00000000000E+00  0.00000000000E+00  0.13529316666E+04  0.13529316666E+04  0.00000000000E+00 0.  1.
         21   -1    0    0  501  503 -0.00000000000E+00 -0.00000000000E+00 -0.42421911691E+02  0.42421911691E+02  0.00000000000E+00 0.  1.
          6    2    1    2  501    0  0.86727210742E+02 -0.10103633624E+03  0.36193075373E+03  0.42200252926E+03  0.17135435181E+03 0.  0.
         24    2    3    3    0    0  0.14770035697E+02 -0.10810262065E+03  0.17006935800E+03  0.21691559017E+03  0.78895222799E+02 0.  0.
         -6    2    1    2    0  502 -0.86727210742E+02  0.10103633624E+03  0.94857900120E+03  0.97335104905E+03  0.17285888131E+03 0.  0.
        -24    2    5    5    0    0 -0.85639962874E+02  0.10811333171E+02  0.37781271377E+03  0.39547737933E+03  0.78796083103E+02 0.  0.
          5    1    3    3  501    0  0.71957175045E+02  0.70662844136E+01  0.19186139573E+03  0.20508693909E+03  0.47000000000E+01 0. -1.
        -11    1    4    4    0    0  0.44454437104E+02 -0.77538265940E+02  0.13410080463E+03  0.16115646269E+03  0.00000000000E+00 0.  1.
         12    1    4    4    0    0 -0.29684401407E+02 -0.30564354709E+02  0.35968553372E+02  0.55759127480E+02  0.00000000000E+00 0. -1.
         -5    1    5    5    0  502 -0.10872478678E+01  0.90225003065E+02  0.57076628743E+03  0.57787366972E+03  0.47000000000E+01 0.  1.
         13    1    6    6    0    0 -0.57000995394E+02  0.44749762815E+02  0.23439677213E+03  0.24534363969E+03  0.00000000000E+00 0. -1.
        -14    1    6    6    0    0 -0.28638967480E+02 -0.33938429644E+02  0.14341594164E+03  0.15013373965E+03  0.00000000000E+00 0.  1.
</event>
<event>
12    1  0.9017558E-003  0.2029746E+03  0.7818608E-02  0.1147480E+00
         21   -1    0    0  501  502  0.00000000000E+00  0.00000000000E+00  0.61408086910E+03  0.61408086910E+03  0.00000000000E+00 0. -1.
         21   -1    0    0  502  503 -0.00000000000E+00 -0.00000000000E+00 -0.71926073529E+02  0.71926073529E+02  0.00000000000E+00 0. -1.
          6    2    1    2  501    0 -0.10445091304E+03  0.19870461345E+02  0.36259941067E+03  0.41501095501E+03  0.17161273754E+03 0.  0.
         24    2    3    3    0    0 -0.56231893194E+02 -0.27449705633E+02  0.94191534187E+02  0.13819124791E+03  0.79430873942E+02 0.  0.
         -6    2    1    2    0  503  0.10445091304E+03 -0.19870461345E+02  0.17955538490E+03  0.27099598762E+03  0.17289841119E+03 0.  0.
        -24    2    5    5    0    0  0.23720108967E+02 -0.45154601660E+02  0.15593212798E+03  0.18303634491E+03  0.81153517489E+02 0.  0.
          5    1    3    3  501    0 -0.48219019850E+02  0.47320166978E+02  0.26840787649E+03  0.27681970710E+03  0.47000000000E+01 0. -1.
        -11    1    4    4    0    0 -0.45657503660E+02  0.16422758711E+02  0.22514023482E+02  0.53490147667E+02  0.00000000000E+00 0.  1.
         12    1    4    4    0    0 -0.10574389534E+02 -0.43872464344E+02  0.71677510705E+02  0.84701100243E+02  0.00000000000E+00 0. -1.
         -5    1    5    5    0  503  0.80730804077E+02  0.25284140315E+02  0.23623256919E+02  0.87959642711E+02  0.47000000000E+01 0.  1.
         13    1    6    6    0    0  0.21818790206E+02  0.62837248745E+01  0.45694534451E+01  0.23160844310E+02  0.00000000000E+00 0. -1.
        -14    1    6    6    0    0  0.19013187611E+01 -0.51438326535E+02  0.15136267453E+03  0.15987550060E+03  0.00000000000E+00 0.  1.
</event>
<event>
12    1  0.9017558E-003  0.1810013E+03  0.7818608E-02  0.1166900E+00
         21   -1    0    0  503  502  0.00000000000E+00  0.00000000000E+00  0.44592114984E+03  0.44592114984E+03  0.00000000000E+00 0. -1.
         21   -1    0    0  501  503 -0.00000000000E+00 -0.00000000000E+00 -0.15559682137E+03  0.15559682137E+03  0.00000000000E+00 0. -1.
          6    2    1    2  501    0 -0.26620380343E+02  0.53021389560E+02 -0.73434402291E+02  0.19533068323E+03  0.17100161395E+03 0.  0.
         24    2    3    3    0    0  0.27508690677E+02 -0.66035745555E+01  0.30495905156E+01  0.84168712080E+02  0.79213236465E+02 0.  0.
         -6    2    1    2    0  502  0.26620380343E+02 -0.53021389560E+02  0.36375873076E+03  0.40618728798E+03  0.17072722779E+03 0.  0.
        -24    2    5    5    0    0  0.57319211530E+02 -0.73836638465E+02  0.34103323000E+03  0.36243535993E+03  0.79488269410E+02 0.  0.
          5    1    3    3  501    0 -0.54129071020E+02  0.59624964116E+02 -0.76483992807E+02  0.11116197115E+03  0.47000000000E+01 0. -1.
        -13    1    4    4    0    0 -0.18466810784E+02 -0.11596826991E+02  0.24833868383E+02  0.33048910960E+02  0.00000000000E+00 0.  1.
         14    1    4    4    0    0  0.45975501460E+02  0.49932524350E+01 -0.21784277867E+02  0.51119801121E+02  0.00000000000E+00 0. -1.
         -5    1    5    5    0  502 -0.30698831188E+02  0.20815248904E+02  0.22725500766E+02  0.43751928053E+02  0.47000000000E+01 0.  1.
         11    1    6    6    0    0  0.32480116681E+02 -0.77820693901E+01  0.21846092433E+03  0.22099930779E+03  0.00000000000E+00 0. -1.
        -12    1    6    6    0    0  0.24839094850E+02 -0.66054569074E+02  0.12257230567E+03  0.14143605214E+03  0.00000000000E+00 0.  1.
</event>
<event>
12    1  0.9017558E-003  0.2081180E+03  0.7818608E-02  0.1143171E+00
         21   -1    0    0  501  502  0.00000000000E+00  0.00000000000E+00  0.64153078469E+03  0.64153078469E+03  0.00000000000E+00 0.  1.
         21   -1    0    0  502  503 -0.00000000000E+00 -0.00000000000E+00 -0.67939448599E+02  0.67939448599E+02  0.00000000000E+00 0.  1.
          6    2    1    2  501    0  0.11647957102E+03 -0.11758881291E+02  0.31965896623E+03  0.38114913422E+03  0.17142650341E+03 0.  0.
         24    2    3    3    0    0  0.62556728689E+02  0.21993500247E+02  0.71880276041E+02  0.12529123324E+03  0.78320244412E+02 0.  0.
         -6    2    1    2    0  503 -0.11647957102E+03  0.11758881291E+02  0.25393236986E+03  0.32832109907E+03  0.17206781766E+03 0.  0.
        -24    2    5    5    0    0 -0.31457909718E+02 -0.42347213229E+02  0.67481438352E+02  0.11632536275E+03  0.78708061504E+02 0.  0.
          5    1    3    3  501    0  0.53922842331E+02 -0.33752381538E+02  0.24777869019E+03  0.25585790098E+03  0.47000000000E+01 0. -1.
        -13    1    4    4    0    0  0.45689508011E+02 -0.11855701991E+01 -0.23019078813E+01  0.45762817864E+02  0.00000000000E+00 0.  1.
         14    1    4    4    0    0  0.16867220679E+02  0.23179070446E+02  0.74182183923E+02  0.79528415373E+02  0.00000000000E+00 0. -1.
         -5    1    5    5    0  503 -0.85021661303E+02  0.54106094519E+02  0.18645093151E+03  0.21199573631E+03  0.47000000000E+01 0.  1.
         11    1    6    6    0    0 -0.49141534294E+02 -0.58734795020E+00  0.30813300805E+02  0.58005990009E+02  0.00000000000E+00 0. -1.
        -12    1    6    6    0    0  0.17683624577E+02 -0.41759865278E+02  0.36668137547E+02  0.58319372746E+02  0.00000000000E+00 0.  1.
</event>
<event>
12    1  0.9017558E-003  0.2654449E+03  0.7818608E-02  0.1104916E+00
         21   -1    0    0  503  502  0.00000000000E+00  0.00000000000E+00  0.81264017045E+02  0.81264017045E+02  0.00000000000E+00 0. -1.
         21   -1    0    0  501  503 -0.00000000000E+00 -0.00000000000E+00 -0.99072778996E+03  0.99072778996E+03  0.00000000000E+00 0. -1.
          6    2    1    2  501    0  0.14942419159E+03 -0.12266802822E+03 -0.24428708600E+03  0.35580676651E+03  0.17189310785E+03 0.  0.
         24    2    3    3    0    0  0.31015323061E+02 -0.10841124328E+03 -0.12048822050E+03  0.18384117355E+03  0.81026032103E+02 0.  0.
         -6    2    1    2    0  502 -0.14942419159E+03  0.12266802822E+03 -0.66517668691E+03  0.71618504050E+03  0.18189544591E+03 0.  0.
        -24    2    5    5    0    0 -0.14873399809E+03  0.45965730845E+02 -0.34071314088E+03  0.38274478874E+03  0.78571485529E+02 0.  0.
          5    1    3    3  501    0  0.11840886852E+03 -0.14256784937E+02 -0.12379886550E+03  0.17196559296E+03  0.47000000000E+01 0. -1.
        -11    1    4    4    0    0  0.26510914520E+02 -0.14156944713E+01 -0.46937897696E+02  0.53925865961E+02  0.00000000000E+00 0.  1.
         12    1    4    4    0    0  0.45044085418E+01 -0.10699554881E+03 -0.73550322806E+02  0.12991530759E+03  0.00000000000E+00 0. -1.
         -5    1    5    5    0  502 -0.69019349635E+00  0.76702297372E+02 -0.32446354603E+03  0.33344025176E+03  0.47000000000E+01 0.  1.
         11    1    6    6    0    0 -0.47474460485E+01  0.23344244694E+02 -0.86414063207E+02  0.89637505121E+02  0.00000000000E+00 0. -1.
        -12    1    6    6    0    0 -0.14398655204E+03  0.22621486151E+02 -0.25429907767E+03  0.29310728362E+03  0.00000000000E+00 0.  1.
</event>
<event>
12    1  0.9017558E-003  0.1819574E+03  0.7818608E-02  0.1166777E+00
         21   -1    0    0  501  502  0.00000000000E+00  0.00000000000E+00  0.53665793274E+02  0.53665793274E+02  0.00000000000E+00 0. -1.
         21   -1    0    0  502  503 -0.00000000000E+00 -0.00000000000E+00 -0.81324663257E+03  0.81324663257E+03  0.00000000000E+00 0.  1.
          6    2    1    2  501    0  0.53368922651E+02 -0.24475642480E+02 -0.16322190512E+03  0.24443789627E+03  0.17222426032E+03 0.  0.
         24    2    3    3    0    0  0.89586373725E+02 -0.57878022764E+02 -0.13515887265E+03  0.18754284761E+03  0.74356001478E+02 0.  0.
         -6    2    1    2    0  503 -0.53368922651E+02  0.24475642480E+02 -0.59635893417E+03  0.62247452957E+03  0.16847332910E+03 0.  0.
        -24    2    5    5    0    0 -0.68156044201E+00 -0.43926513255E+02 -0.27959318332E+03  0.29411886272E+03  0.80022210370E+02 0.  0.
          5    1    3    3  501    0 -0.36217451075E+02  0.33402380283E+02 -0.28063032471E+02  0.56895048664E+02  0.47000000000E+01 0. -1.
        -13    1    4    4    0    0  0.11297056167E+02 -0.42362037268E+02 -0.77641885753E+02  0.89165173150E+02  0.00000000000E+00 0.  1.
         14    1    4    4    0    0  0.78289317558E+02 -0.15515985496E+02 -0.57516986896E+02  0.98377674455E+02  0.00000000000E+00 0. -1.
         -5    1    5    5    0  503 -0.52687362209E+02  0.68402155736E+02 -0.31676575085E+03  0.32835566685E+03  0.47000000000E+01 0.  1.
         11    1    6    6    0    0 -0.75708794129E+01  0.54992963047E+01  0.73240075114E+00  0.93859941291E+01  0.00000000000E+00 0. -1.
        -12    1    6    6    0    0  0.68893189709E+01 -0.49425809560E+02 -0.28032558407E+03  0.28473286859E+03  0.00000000000E+00 0.  1.
</event>
<event>
12    1  0.9017558E-003  0.1997292E+03  0.7818608E-02  0.1150165E+00
         21   -1    0    0  501  502  0.00000000000E+00  0.00000000000E+00  0.33496238518E+02  0.33496238518E+02  0.00000000000E+00 0.  1.
         21   -1    0    0  502  503 -0.00000000000E+00 -0.00000000000E+00 -0.12141998493E+04  0.12141998493E+04  0.00000000000E+00 0. -1.
          6    2    1    2  501    0  0.18458829065E+02 -0.95307638943E+02 -0.49558628982E+03  0.53431966890E+03  0.17454931538E+03 0.  0.
         24    2    3    3    0    0  0.28494273983E+02 -0.28673431860E+02 -0.10907089995E+03  0.14194604043E+03  0.81351876645E+02 0.  0.
         -6    2    1    2    0  503 -0.18458829065E+02  0.95307638943E+02 -0.68511732096E+03  0.71337641892E+03  0.17348169120E+03 0.  0.
        -24    2    5    5    0    0 -0.61950261266E+02  0.10861418632E+03 -0.51601026713E+03  0.53819692659E+03  0.88059409869E+02 0.  0.
          5    1    3    3  501    0 -0.10035444918E+02 -0.66634207083E+02 -0.38651538987E+03  0.39237362846E+03  0.47000000000E+01 0. -1.
        -13    1    4    4    0    0  0.14238397913E+02  0.67193143125E+01 -0.10191614659E+03  0.10312507986E+03  0.00000000000E+00 0.  1.
         14    1    4    4    0    0  0.14255876070E+02 -0.35392746172E+02 -0.71547533606E+01  0.38820960572E+02  0.00000000000E+00 0. -1.
         -5    1    5    5    0  503  0.43491432201E+02 -0.13306547378E+02 -0.16910705383E+03  0.17517949233E+03  0.47000000000E+01 0.  1.
         13    1    6    6    0    0 -0.61549351556E+02  0.32105891719E+02 -0.32702422497E+03  0.33431116445E+03  0.00000000000E+00 0. -1.
        -14    1    6    6    0    0 -0.40090970993E+00  0.76508294602E+02 -0.18898604217E+03  0.20388576215E+03  0.00000000000E+00 0.  1.
</event>
<event>
12    1  0.9017558E-003  0.2419544E+03  0.7818608E-02  0.1118868E+00
         21   -1    0    0  501  502  0.00000000000E+00  0.00000000000E+00  0.11170419451E+03  0.11170419451E+03  0.00000000000E+00 0. -1.
         21   -1    0    0  502  503 -0.00000000000E+00 -0.00000000000E+00 -0.54825890105E+03  0.54825890105E+03  0.00000000000E+00 0. -1.
          6    2    1    2  501    0  0.46935628272E+02 -0.16417264061E+03 -0.29321728050E+03  0.37873797179E+03  0.16825715010E+03 0.  0.
         24    2    3    3    0    0  0.19791723060E+02 -0.17669654550E+03 -0.28850295292E+03  0.34811192620E+03  0.79590061080E+02 0.  0.
         -6    2    1    2    0  503 -0.46935628272E+02  0.16417264061E+03 -0.14333742604E+03  0.28122512378E+03  0.17142445396E+03 0.  0.
        -24    2    5    5    0    0 -0.94147977189E+02  0.13110348797E+03 -0.94293010170E+02  0.20539624093E+03  0.85114498496E+02 0.  0.
          5    1    3    3  501    0  0.27143905213E+02  0.12523904886E+02 -0.47143275800E+01  0.30626045588E+02  0.47000000000E+01 0. -1.
        -11    1    4    4    0    0  0.18526852372E+01 -0.68777145766E+02 -0.47985828323E+02  0.83883061116E+02  0.00000000000E+00 0.  1.
         12    1    4    4    0    0  0.17939037822E+02 -0.10791939973E+03 -0.24051712460E+03  0.26422886508E+03  0.00000000000E+00 0. -1.
         -5    1    5    5    0  503  0.47212348916E+02  0.33069152640E+02 -0.49044415869E+02  0.75828882851E+02  0.47000000000E+01 0.  1.
         13    1    6    6    0    0 -0.38303975036E+02  0.99904753317E+02 -0.22679490965E+02  0.10937327621E+03  0.00000000000E+00 0. -1.
        -14    1    6    6    0    0 -0.55844002152E+02  0.31198734656E+02 -0.71613519204E+02  0.96022964719E+02  0.00000000000E+00 0.  1.
</event>
<event>
12    1  0.9017558E-003  0.2225896E+03  0.7818608E-02  0.1131974E+00
         21   -1    0    0  501  502  0.00000000000E+00  0.00000000000E+00  0.32612106928E+03  0.32612106928E+03  0.00000000000E+00 0. -1.
         21   -1    0    0  502  503 -0.00000000000E+00 -0.00000000000E+00 -0.14440797916E+04  0.14440797916E+04  0.00000000000E+00 0. -1.
          6    2    1    2  501    0 -0.12009947740E+03 -0.74585631291E+02  0.27828254570E+03  0.35632823990E+03  0.17187710273E+03 0.  0.
         24    2    3    3    0    0 -0.14182247068E+03 -0.60806085999E+02  0.15980227145E+03  0.23499634100E+03  0.76651947389E+02 0.  0.
         -6    2    1    2    0  503  0.12009947740E+03  0.74585631291E+02 -0.13962412680E+04  0.14138726209E+04  0.17192791800E+03 0.  0.
        -24    2    5    5    0    0  0.13712056532E+03  0.47893234657E+02 -0.81177157674E+03  0.82852732845E+03  0.79928904814E+02 0.  0.
          5    1    3    3  501    0  0.21722993277E+02 -0.13779545292E+02  0.11848027424E+03  0.12133189890E+03  0.47000000000E+01 0. -1.
        -11    1    4    4    0    0 -0.27921432585E+02  0.18486201623E+02  0.29394373284E+02  0.44557549628E+02  0.00000000000E+00 0.  1.
         12    1    4    4    0    0 -0.11390103809E+03 -0.79292287622E+02  0.13040789817E+03  0.19043879137E+03  0.00000000000E+00 0. -1.
         -5    1    5    5    0  503 -0.17021087918E+02  0.26692396633E+02 -0.58446969124E+03  0.58534529250E+03  0.47000000000E+01 0.  1.
         13    1    6    6    0    0  0.79405768066E+02  0.60042703524E+01 -0.59551602823E+03  0.60081666684E+03  0.00000000000E+00 0. -1.
        -14    1    6    6    0    0  0.57714797253E+02  0.41888964305E+02 -0.21625554850E+03  0.22771066161E+03  0.00000000000E+00 0.  1.
</event>
<event>
12    1  0.9017558E-003  0.2895387E+03  0.7818608E-02  0.1090627E+00
         21   -1    0    0  503  502  0.00000000000E+00  0.00000000000E+00  0.45001656487E+03  0.45001656487E+03  0.00000000000E+00 0.  1.
         21   -1    0    0  501  503 -0.00000000000E+00 -0.00000000000E+00 -0.27668852636E+03  0.27668852636E+03  0.00000000000E+00 0.  1.
          6    2    1    2  501    0 -0.22672579120E+03 -0.52950628982E+02 -0.12120839648E+03  0.31388551950E+03  0.17211708360E+03 0.  0.
         24    2    3    3    0    0 -0.20612495801E+03 -0.75701699023E+02 -0.14429228697E+03  0.27519493258E+03  0.81815287623E+02 0.  0.
         -6    2    1    2    0  502  0.22672579120E+03  0.52950628982E+02  0.29453643499E+03  0.41281957173E+03  0.17163896342E+03 0.  0.
        -24    2    5    5    0    0  0.19750814632E+03  0.78142714426E+02  0.29787573914E+03  0.37381248399E+03  0.76746762421E+02 0.  0.
          5    1    3    3  501    0 -0.20600833188E+02  0.22751070041E+02  0.23083890485E+02  0.38690586917E+02  0.47000000000E+01 0. -1.
        -13    1    4    4    0    0 -0.12358312234E+03 -0.19465287198E+02 -0.11785620005E+03  0.17187719285E+03  0.00000000000E+00 0.  1.
         14    1    4    4    0    0 -0.82541835675E+02 -0.56236411824E+02 -0.26436086923E+02  0.10331773973E+03  0.00000000000E+00 0. -1.
         -5    1    5    5    0  502  0.29217644882E+02 -0.25192085444E+02 -0.33393041492E+01  0.39007087736E+02  0.47000000000E+01 0.  1.
         13    1    6    6    0    0  0.33400523138E+02 -0.18272186904E+00  0.12988081354E+02  0.35837390955E+02  0.00000000000E+00 0. -1.
        -14    1    6    6    0    0  0.16410762318E+03  0.78325436295E+02  0.28488765779E+03  0.33797509304E+03  0.00000000000E+00 0.  1.
</event>
<event>
12    1  0.9017558E-003  0.1777416E+03  0.7818608E-02  0.1170168E+00
         21   -1    0    0  501  502  0.00000000000E+00  0.00000000000E+00  0.46281831976E+03  0.46281831976E+03  0.00000000000E+00 0.  1.
         21   -1    0    0  502  503 -0.00000000000E+00 -0.00000000000E+00 -0.72031173190E+02  0.72031173190E+02  0.00000000000E+00 0.  1.
          6    2    1    2  501    0 -0.46956530408E+01 -0.44966162068E+02  0.25893105422E+03  0.31406584865E+03  0.17189549604E+03 0.  0.
         24    2    3    3    0    0  0.37526234545E+02 -0.70299051650E+02  0.23166958365E+03  0.25758823482E+03  0.79565870742E+02 0.  0.
         -6    2    1    2    0  503  0.46956530408E+01  0.44966162068E+02  0.13185609236E+03  0.22078364431E+03  0.17121735780E+03 0.  0.
        -24    2    5    5    0    0 -0.11319120726E+02 -0.39574129128E+02  0.73546391892E+02  0.11673728453E+03  0.80773062645E+02 0.  0.
          5    1    3    3  501    0 -0.42221887586E+02  0.25332889582E+02  0.27261470562E+02  0.56477613823E+02  0.47000000000E+01 0. -1.
        -13    1    4    4    0    0 -0.24277724596E+02 -0.24735112813E+02  0.55803752129E+02  0.65690885739E+02  0.00000000000E+00 0.  1.
         14    1    4    4    0    0  0.61803959141E+02 -0.45563938837E+02  0.17586583153E+03  0.19189734908E+03  0.00000000000E+00 0. -1.
         -5    1    5    5    0  503  0.16014773767E+02  0.84540291196E+02  0.58309700466E+02  0.10404635978E+03  0.47000000000E+01 0.  1.
         11    1    6    6    0    0 -0.89144980065E+01  0.15600214589E+02  0.55966607221E+02  0.58780065445E+02  0.00000000000E+00 0. -1.
        -12    1    6    6    0    0 -0.24046227198E+01 -0.55174343717E+02  0.17579784671E+02  0.57957219086E+02  0.00000000000E+00 0.  1.
</event>
<event>
12    1  0.9017558E-003  0.2300356E+03  0.7818608E-02  0.1126690E+00
         21   -1    0    0  501  502  0.00000000000E+00  0.00000000000E+00  0.79939530332E+02  0.79939530332E+02  0.00000000000E+00 0.  1.
         21   -1    0    0  502  503 -0.00000000000E+00 -0.00000000000E+00 -0.66221271590E+03  0.66221271590E+03  0.00000000000E+00 0. -1.
          6    2    1    2  501    0  0.15247725446E+03  0.18409609602E+02 -0.30848786728E+03  0.38455641968E+03  0.17067703070E+03 0.  0.
         24    2    3    3    0    0  0.44260117590E+02 -0.13884795898E+02 -0.22985332539E+03  0.24686343323E+03  0.77183274800E+02 0.  0.
         -6    2    1    2    0  503 -0.15247725446E+03 -0.18409609602E+02 -0.27378531829E+03  0.35759582655E+03  0.17125462855E+03 0.  0.
        -24    2    5    5    0    0 -0.84941643308E+02 -0.74158036270E+02 -0.19921802696E+03  0.24248146260E+03  0.79968370805E+02 0.  0.
          5    1    3    3  501    0  0.10821713687E+03  0.32294405500E+02 -0.78634541887E+02  0.13769298645E+03  0.47000000000E+01 0. -1.
        -13    1    4    4    0    0 -0.11078149547E+02 -0.25640673148E+02 -0.40192884095E+02  0.48945249501E+02  0.00000000000E+00 0.  1.
         14    1    4    4    0    0  0.55338267138E+02  0.11755877250E+02 -0.18966044130E+03  0.19791818373E+03  0.00000000000E+00 0. -1.
         -5    1    5    5    0  503 -0.67535611156E+02  0.55748426667E+02 -0.74567291332E+02  0.11511436395E+03  0.47000000000E+01 0.  1.
         13    1    6    6    0    0 -0.48913104334E+02 -0.56861317464E+02 -0.18572716700E+03  0.20030047868E+03  0.00000000000E+00 0. -1.
        -14    1    6    6    0    0 -0.36028538974E+02 -0.17296718806E+02 -0.13490859962E+02  0.42180983921E+02  0.00000000000E+00 0.  1.
</event>
<event>
12    1  0.9017558E-003  0.1987259E+03  0.7818608E-02  0.1151260E+00
         21   -1    0    0  503  502  0.00000000000E+00  0.00000000000E+00  0.30880984824E+02  0.30880984824E+02  0.00000000000E+00 0. -1.
         21   -1    0    0  501  503 -0.00000000000E+00 -0.00000000000E+00 -0.13911687898E+04  0.13911687898E+04  0.00000000000E+00 0. -1.
          6    2    1    2  501    0  0.17995744296E+01 -0.98789855774E+02 -0.46329240381E+03  0.50330456973E+03  0.17003812637E+03 0.  0.
         24    2    3    3    0    0  0.64012332056E+02 -0.63102332509E+02 -0.33861491208E+03  0.35939281388E+03  0.80147694703E+02 0.  0.
         -6    2    1    2    0  502 -0.17995744296E+01  0.98789855774E+02 -0.89699540121E+03  0.91874520493E+03  0.17242194675E+03 0.  0.
        -24    2    5    5    0    0  0.83049859573E+01  0.12671780236E+03 -0.56170630022E+03  0.58211047175E+03  0.84925022161E+02 0.  0.
          5    1    3    3  501    0 -0.62212757626E+02 -0.35687523264E+02 -0.12467749173E+03  0.14391175585E+03  0.47000000000E+01 0. -1.
        -11    1    4    4    0    0  0.22516240175E+02  0.13743649101E+02 -0.37361932774E+02  0.45736014068E+02  0.00000000000E+00 0.  1.
         12    1    4    4    0    0  0.41496091881E+02 -0.76845981610E+02 -0.30125297930E+03  0.31365679982E+03  0.00000000000E+00 0. -1.
         -5    1    5    5    0  502 -0.10104560387E+02 -0.27927946583E+02 -0.33528910099E+03  0.33663473318E+03  0.47000000000E+01 0.  1.
         13    1    6    6    0    0 -0.19907078790E+01  0.70174349427E+02 -0.14114052589E+03  0.15763581536E+03  0.00000000000E+00 0. -1.
        -14    1    6    6    0    0  0.10295693836E+02  0.56543452929E+02 -0.42056577433E+03  0.42447465639E+03  0.00000000000E+00 0.  1.
</event>
<event>
12    1  0.9017558E-003  0.1828964E+03  0.7818608E-02  0.1165343E+00
         21   -1    0    0  501  502  0.00000000000E+00  0.00000000000E+00  0.17415888830E+03  0.17415888830E+03  0.00000000000E+00 0. -1.
         21   -1    0    0  502  503 -0.00000000000E+00 -0.00000000000E+00 -0.20122634975E+03  0.20122634975E+03  0.00000000000E+00 0. -1.
          6    2    1    2  501    0 -0.42912902861E+01  0.60854837853E+02  0.29368781028E+02  0.18523934599E+03  0.17242205062E+03 0.  0.
         24    2    3    3    0    0 -0.27142909890E+02  0.75374993671E+02 -0.32309987764E+02  0.11771607620E+03  0.79968819284E+02 0.  0.
         -6    2    1    2    0  503  0.42912902861E+01 -0.60854837853E+02 -0.56436242477E+02  0.19014589207E+03  0.17102246737E+03 0.  0.
        -24    2    5    5    0    0 -0.34255372899E+01 -0.10597688799E+03 -0.22972667237E+02  0.13324730066E+03  0.77358028665E+02 0.  0.
          5    1    3    3  501    0  0.22851619604E+02 -0.14520155818E+02  0.61678768791E+02  0.67523269790E+02  0.47000000000E+01 0. -1.
        -11    1    4    4    0    0  0.12883932720E+02 -0.40130040935E+01 -0.25123538835E+02  0.28518277084E+02  0.00000000000E+00 0.  1.
         12    1    4    4    0    0 -0.40026842611E+02  0.79387997765E+02 -0.71864489284E+01  0.89197799113E+02  0.00000000000E+00 0. -1.
         -5    1    5    5    0  503  0.77168275760E+01  0.45122050140E+02 -0.33463575240E+02  0.56898591410E+02  0.47000000000E+01 0.  1.
         13    1    6    6    0    0 -0.13566953781E+02 -0.93525254050E+02  0.11515899903E+02  0.95203210716E+02  0.00000000000E+00 0. -1.
        -14    1    6    6    0    0  0.10141416492E+02 -0.12451633943E+02 -0.34488567140E+02  0.38044089944E+02  0.00000000000E+00 0.  1.
</event>
<event>
12    1  0.9017558E-003  0.2437634E+03  0.7818608E-02  0.1117371E+00
         21   -1    0    0  503  502  0.00000000000E+00  0.00000000000E+00  0.26384574774E+03  0.26384574774E+03  0.00000000000E+00 0.  1.
         21   -1    0    0  501  503 -0.00000000000E+00 -0.00000000000E+00 -0.23239434504E+03  0.23239434504E+03  0.00000000000E+00 0. -1.
          6    2    1    2  501    0 -0.14660288761E+03  0.90325640996E+02 -0.28941008662E+02  0.24510699340E+03  0.17201374408E+03 0.  0.
         24    2    3    3    0    0 -0.41972952104E+02  0.66746761634E+02  0.32997627235E+02  0.12116397596E+03  0.85877859602E+02 0.  0.
         -6    2    1    2    0  502  0.14660288761E+03 -0.90325640996E+02  0.60392411357E+02  0.25113309938E+03  0.17253829192E+03 0.  0.
        -24    2    5    5    0    0  0.82315282980E+02 -0.50709672123E+02 -0.34423454018E+02  0.12982992784E+03  0.79520810596E+02 0.  0.
          5    1    3    3  501    0 -0.10462993550E+03  0.23578879363E+02 -0.61938635896E+02  0.12394301744E+03  0.47000000000E+01 0. -1.
        -11    1    4    4    0    0 -0.67945966099E+02  0.39593158039E+02  0.17787046745E+02  0.80626617842E+02  0.00000000000E+00 0.  1.
         12    1    4    4    0    0  0.25973013996E+02  0.27153603594E+02  0.15210580490E+02  0.40537358116E+02  0.00000000000E+00 0. -1.
         -5    1    5    5    0  502  0.64287604628E+02 -0.39615968874E+02  0.94815865375E+02  0.12130317154E+03  0.47000000000E+01 0.  1.
         11    1    6    6    0    0  0.45372914127E+02 -0.41179400122E+02  0.19027404797E+02  0.64159850873E+02  0.00000000000E+00 0. -1.
        -12    1    6    6    0    0  0.36942368853E+02 -0.95302720007E+01 -0.53450858815E+02  0.65670076968E+02  0.00000000000E+00 0.  1.
</event>
<event>
12    1  0.9017558E-003  0.1962082E+03  0.7818608E-02  0.1153237E+00
         21   -1    0    0  501  502  0.00000000000E+00  0.00000000000E+00  0.86608228868E+02  0.86608228868E+02  0.00000000000E+00 0. -1.
         21   -1    0    0  502  503 -0.00000000000E+00 -0.00000000000E+00 -0.50114429171E+03  0.50114429171E+03  0.00000000000E+00 0. -1.
          6    2    1    2  501    0  0.44174304962E+02  0.80825320804E+02 -0.10558525965E+03  0.22176308441E+03  0.17189100282E+03 0.  0.
         24    2    3    3    0    0  0.55710721501E+02 -0.10734016119E+02 -0.79493214612E+02  0.12574701337E+03  0.79210078967E+02 0.  0.
         -6    2    1    2    0  503 -0.44174304962E+02 -0.80825320804E+02 -0.30895080319E+03  0.36598943616E+03  0.17324424057E+03 0.  0.
        -24    2    5    5    0    0  0.16174032453E+02 -0.42949582034E+02 -0.66102048853E+02  0.11286081096E+03  0.79131636308E+02 0.  0.
          5    1    3    3  501    0 -0.11536416539E+02  0.91559336924E+02 -0.26092045040E+02  0.96016071045E+02  0.47000000000E+01 0. -1.
        -13    1    4    4    0    0  0.49476763812E+02 -0.40229735904E+02 -0.37254186153E+02  0.73852936259E+02  0.00000000000E+00 0.  1.
         14    1    4    4    0    0  0.62339576890E+01  0.29495719784E+02 -0.42239028459E+02  0.51894077111E+02  0.00000000000E+00 0. -1.
         -5    1    5    5    0  503 -0.60348337414E+02 -0.37875738770E+02 -0.24284875434E+03  0.25312862521E+03  0.47000000000E+01 0.  1.
         13    1    6    6    0    0 -0.22986348948E+02 -0.23097451323E+01 -0.48535489753E+02  0.53753148058E+02  0.00000000000E+00 0. -1.
        -14    1    6    6    0    0  0.39160381401E+02 -0.40639836902E+02 -0.17566559100E+02  0.59107662900E+02  0.00000000000E+00 0.  1.
</event>
<event>
12    1  0.9017558E-003  0.1904544E+03  0.7818608E-02  0.1158144E+00
         21   -1    0    0  501  502  0.00000000000E+00  0.00000000000E+00  0.58591118451E+02  0.58591118451E+02  0.00000000000E+00 0.  1.
         21   -1    0    0  502  503 -0.00000000000E+00 -0.00000000000E+00 -0.79226913826E+03  0.79226913826E+03  0.00000000000E+00 0.  1.
          6    2    1    2  501    0 -0.80196345521E+02 -0.81118442852E+01 -0.16686618009E+03  0.25290661553E+03  0.17210513724E+03 0.  0.
         24    2    3    3    0    0 -0.88325865421E+02  0.40553822401E+02 -0.15994686629E+03  0.20286260378E+03  0.78257044180E+02 0.  0.
         -6    2    1    2    0  503  0.80196345521E+02  0.81118442852E+01 -0.56681183972E+03  0.59795364118E+03  0.17255619233E+03 0.  0.
        -24    2    5    5    0    0  0.32628051565E+02  0.12624842467E+02 -0.12622576928E+03  0.15475923102E+03  0.82422681091E+02 0.  0.
          5    1    3    3  501    0  0.81295198998E+01 -0.48665666686E+02 -0.69193138012E+01  0.50044011743E+02  0.47000000000E+01 0. -1.
        -11    1    4    4    0    0 -0.35505961970E+02  0.37441127588E+02 -0.23855317036E+02  0.56847053761E+02  0.00000000000E+00 0.  1.
         12    1    4    4    0    0 -0.52819903452E+02  0.31126948129E+01 -0.13609154926E+03  0.14601555002E+03  0.00000000000E+00 0. -1.
         -5    1    5    5    0  503  0.47568293956E+02 -0.45129981813E+01 -0.44058607043E+03  0.44319441017E+03  0.47000000000E+01 0.  1.
         11    1    6    6    0    0  0.66788868898E+01 -0.15447263852E+02  0.54158352985E+01  0.17679274945E+02  0.00000000000E+00 0. -1.
        -12    1    6    6    0    0  0.25949164675E+02  0.28072106318E+02 -0.13164160458E+03  0.13707995607E+03  0.00000000000E+00 0.  1.
</event>
<event>
12    1  0.9017558E-003  0.3174379E+03  0.7818608E-02  0.1076911E+00
         21   -1    0    0  501  502  0.00000000000E+00  0.00000000000E+00  0.10411396305E+04  0.10411396305E+04  0.00000000000E+00 0. -1.
         21   -1    0    0  502  503 -0.00000000000E+00 -0.00000000000E+00 -0.12135776012E+03  0.12135776012E+03  0.00000000000E+00 0. -1.
          6    2    1    2  501    0 -0.95383456385E+02  0.24879491856E+03  0.72288007301E+03  0.78950770214E+03  0.17253955065E+03 0.  0.
         24    2    3    3    0    0 -0.46605220169E+02  0.40917714021E+02  0.20075697271E+03  0.22539169425E+03  0.81558248378E+02 0.  0.
         -6    2    1    2    0  503  0.95383456385E+02 -0.24879491856E+03  0.19690179734E+03  0.37298968845E+03  0.17133030859E+03 0.  0.
        -24    2    5    5    0    0  0.79562583396E+02 -0.26794659286E+03  0.18818000894E+03  0.34624560043E+03  0.79678847570E+02 0.  0.
          5    1    3    3  501    0 -0.48778236216E+02  0.20787720454E+03  0.52212310030E+03  0.56411600789E+03  0.47000000000E+01 0. -1.
        -13    1    4    4    0    0 -0.57055114806E+02  0.30528872072E+01  0.15438711307E+03  0.16462073663E+03  0.00000000000E+00 0.  1.
         14    1    4    4    0    0  0.10449894637E+02  0.37864826813E+02  0.46369859638E+02  0.60770957623E+02  0.00000000000E+00 0. -1.
         -5    1    5    5    0  503  0.15820872989E+02  0.19151674307E+02  0.87217883947E+01  0.26744088014E+02  0.47000000000E+01 0.  1.
         11    1    6    6    0    0  0.60635875362E+02 -0.11126691701E+03  0.11934028963E+03  0.17406648423E+03  0.00000000000E+00 0. -1.
        -12    1    6    6    0    0  0.18926708033E+02 -0.15667967586E+03  0.68839719312E+02  0.17217911621E+03  0.00000000000E+00 0.  1.
</event>
<event>
12    1  0.9017558E-003  0.2975177E+03  0.7818608E-02  0.1086857E+00
         21   -1    0    0  501  502  0.00000000000E+00  0.00000000000E+00  0.35729636789E+03  0.35729636789E+03  0.00000000000E+00 0.  1.
         21   -1    0    0  502  503 -0.00000000000E+00 -0.00000000000E+00 -0.51200520370E+03  0.51200520370E+03  0.00000000000E+00 0. -1.
          6    2    1    2  501    0 -0.17484174706E+03  0.16835246636E+03  0.23651367938E+03  0.37780198289E+03  0.16698331743E+03 0.  0.
         24    2    3    3    0    0 -0.17668273141E+03  0.18034057214E+03  0.18031469347E+03  0.32011732358E+03  0.78880939628E+02 0.  0.
         -6    2    1    2    0  503  0.17484174706E+03 -0.16835246636E+03 -0.39122251518E+03  0.49149958870E+03  0.17205987289E+03 0.  0.
        -24    2    5    5    0    0  0.14095974674E+03 -0.92727647349E+02 -0.35336605422E+03  0.40027292136E+03  0.82962500665E+02 0.  0.
          5    1    3    3  501    0  0.18409843469E+01 -0.11988105777E+02  0.56198985904E+02  0.57684659314E+02  0.47000000000E+01 0. -1.
        -11    1    4    4    0    0 -0.11346854429E+03  0.16226344990E+03  0.12465439896E+03  0.23397276957E+03  0.00000000000E+00 0.  1.
         12    1    4    4    0    0 -0.63214187118E+02  0.18077122237E+02  0.55660294509E+02  0.86144554014E+02  0.00000000000E+00 0. -1.
         -5    1    5    5    0  503  0.33882000319E+02 -0.75624819014E+02 -0.37856460963E+02  0.91226667336E+02  0.47000000000E+01 0.  1.
         11    1    6    6    0    0  0.15078294862E+03 -0.94584514270E+02 -0.33299358921E+03  0.37757973779E+03  0.00000000000E+00 0. -1.
        -12    1    6    6    0    0 -0.98232018833E+01  0.18568669209E+01 -0.20372465012E+02  0.22693183572E+02  0.00000000000E+00 0.  1.
</event>
<event>
12    1  0.9017558E-003  0.2004816E+03  0.7818608E-02  0.1151800E+00
         21   -1    0    0  503  502  0.00000000000E+00  0.00000000000E+00  0.15401434362E+03  0.15401434362E+03  0.00000000000E+00 0. -1.
         21   -1    0    0  501  503 -0.00000000000E+00 -0.00000000000E+00 -0.25875324808E+03  0.25875324808E+03  0.00000000000E+00 0. -1.
          6    2    1    2  501    0  0.24123332182E+02 -0.76286749075E+02 -0.98937604273E+02  0.22356547681E+03  0.18382401813E+03 0.  0.
         24    2    3    3    0    0  0.87529498054E+02 -0.33871715791E+02 -0.48440677688E+02  0.13196085622E+03  0.79110442794E+02 0.  0.
         -6    2    1    2    0  502 -0.24123332182E+02  0.76286749075E+02 -0.58013001853E+01  0.18920211489E+03  0.17135396685E+03 0.  0.
        -24    2    5    5    0    0 -0.27576283052E+02  0.11867787045E+03  0.74869597210E+01  0.14439588885E+03  0.77131250671E+02 0.  0.
          5    1    3    3  501    0 -0.63406165872E+02 -0.42415033285E+02 -0.50496926585E+02  0.91604620591E+02  0.47000000000E+01 0. -1.
        -13    1    4    4    0    0  0.62393220609E+02 -0.52794134998E+02 -0.10085058199E+02  0.82351946346E+02  0.00000000000E+00 0.  1.
         14    1    4    4    0    0  0.25136277445E+02  0.18922419207E+02 -0.38355619489E+02  0.49608909873E+02  0.00000000000E+00 0. -1.
         -5    1    5    5    0  502  0.34529508701E+01 -0.42391121372E+02 -0.13288259906E+02  0.44806226043E+02  0.47000000000E+01 0.  1.
         11    1    6    6    0    0 -0.99004769365E+01  0.28016670764E+01  0.23914223034E+02  0.26033801975E+02  0.00000000000E+00 0. -1.
        -12    1    6    6    0    0 -0.17675806116E+02  0.11587620337E+03 -0.16427263313E+02  0.11836208688E+03  0.00000000000E+00 0.  1.
</event>
<event>
12    1  0.9017558E-003  0.1832248E+03  0.7818608E-02  0.1164866E+00
         21   -1    0    0  501  502  0.00000000000E+00  0.00000000000E+00  0.20616107869E+04  0.20616107869E+04  0.00000000000E+00 0.  1.
         21   -1    0    0  502  503 -0.00000000000E+00 -0.00000000000E+00 -0.27875140773E+02  0.27875140773E+02  0.00000000000E+00 0.  1.
          6    2    1    2  501    0  0.61089611311E+02 -0.22750633908E+02  0.16931869039E+04  0.17030717012E+04  0.17123608226E+03 0.  0.
         24    2    3    3    0    0  0.35607425547E+02 -0.45033096229E+02  0.16119162114E+04  0.16149078459E+04  0.79734620239E+02 0.  0.
         -6    2    1    2    0  503 -0.61089611311E+02  0.22750633908E+02  0.34054874222E+03  0.38641422649E+03  0.17056663405E+03 0.  0.
        -24    2    5    5    0    0 -0.17973438159E+00 -0.46943675624E+02  0.16090936376E+03  0.18427638693E+03  0.76565151652E+02 0.  0.
          5    1    3    3  501    0  0.25482185765E+02  0.22282462321E+02  0.81270692507E+02  0.88163855287E+02  0.47000000000E+01 0. -1.
        -11    1    4    4    0    0  0.11661643746E+02  0.22652488684E+02  0.52999260321E+03  0.53060464438E+03  0.00000000000E+00 0.  1.
         12    1    4    4    0    0  0.23945781800E+02 -0.67685584913E+02  0.10819236082E+04  0.10843032015E+04  0.00000000000E+00 0. -1.
         -5    1    5    5    0  503 -0.60909876930E+02  0.69694309531E+02  0.17963937846E+03  0.20213783956E+03  0.47000000000E+01 0.  1.
         13    1    6    6    0    0 -0.31875154786E+01  0.93145221760E+01  0.10304971191E+03  0.10351890505E+03  0.00000000000E+00 0. -1.
        -14    1    6    6    0    0  0.30077810970E+01 -0.56258197800E+02  0.57859651856E+02  0.80757481881E+02  0.00000000000E+00 0.  1.
</event>
<event>
12    1  0.9017558E-003  0.2216063E+03  0.7818608E-02  0.1132714E+00
         21   -1    0    0  501  502  0.00000000000E+00  0.00000000000E+00  0.75894110212E+02  0.75894110212E+02  0.00000000000E+00 0.  1.
         21   -1    0    0  502  503 -0.00000000000E+00 -0.00000000000E+00 -0.80973663060E+03  0.80973663060E+03  0.00000000000E+00 0.  1.
          6    2    1    2  501    0  0.10689021381E+03  0.89297139661E+02 -0.56569780745E+03  0.60755523128E+03  0.17236546276E+03 0.  0.
         24    2    3    3    0    0  0.39225040948E+02  0.11305669643E+03 -0.42825266301E+03  0.45245413559E+03  0.83630024483E+02 0.  0.
         -6    2    1    2    0  503 -0.10689021381E+03 -0.89297139661E+02 -0.16814471294E+03  0.27807550953E+03  0.17220292550E+03 0.  0.
        -24    2    5    5    0    0  0.13231384500E+01 -0.79667224992E+02 -0.65744507878E+02  0.12870765201E+03  0.76776962272E+02 0.  0.
          5    1    3    3  501    0  0.67665172859E+02 -0.23759556769E+02 -0.13744514444E+03  0.15510109569E+03  0.47000000000E+01 0. -1.
        -13    1    4    4    0    0  0.38756323553E+02  0.94253922175E+02 -0.21030591278E+03  0.23369730724E+03  0.00000000000E+00 0.  1.
         14    1    4    4    0    0  0.46871739549E+00  0.18802774255E+02 -0.21794675022E+03  0.21875682835E+03  0.00000000000E+00 0. -1.
         -5    1    5    5    0  503 -0.10821335226E+03 -0.96299146692E+01 -0.10240020506E+03  0.14936785752E+03  0.47000000000E+01 0.  1.
         11    1    6    6    0    0 -0.56029961119E+01  0.60644687082E+01  0.10782358336E+02  0.13580522723E+02  0.00000000000E+00 0. -1.
        -12    1    6    6    0    0  0.69261345618E+01 -0.85731693700E+02 -0.76526866213E+02  0.11512712928E+03  0.00000000000E+00 0.  1.
</event>
<event>
12    1  0.9017558E-003  0.1943447E+03  0.7818608E-02  0.1154811E+00
         21   -1    0    0  503  502  0.00000000000E+00  0.00000000000E+00  0.58135503680E+03  0.58135503680E+03  0.00000000000E+00 0. -1.
         21   -1    0    0  501  503 -0.00000000000E+00 -0.00000000000E+00 -0.72680471903E+02  0.72680471903E+02  0.00000000000E+00 0.  1.
          6    2    1    2  501    0  0.56341123235E+01 -0.90071131673E+02  0.14505508164E+03  0.24173827699E+03  0.17103176860E+03 0.  0.
         24    2    3    3    0    0  0.29176096979E+02  0.47123597036E+01  0.10687298642E+03  0.13677115036E+03  0.80069103738E+02 0.  0.
         -6    2    1    2    0  502 -0.56341123235E+01  0.90071131673E+02  0.36361948325E+03  0.41229723171E+03  0.17212009381E+03 0.  0.
        -24    2    5    5    0    0 -0.52290859262E+02  0.13289424356E+02  0.13292161458E+03  0.16467679794E+03  0.80866243842E+02 0.  0.
          5    1    3    3  501    0 -0.23541984655E+02 -0.94783491377E+02  0.38182095219E+02  0.10496712664E+03  0.47000000000E+01 0. -1.
        -13    1    4    4    0    0  0.14417442714E+02 -0.19914822067E+02 -0.15272036832E+01  0.24633212203E+02  0.00000000000E+00 0.  1.
         14    1    4    4    0    0  0.14758654265E+02  0.24627181770E+02  0.10840019011E+03  0.11213793815E+03  0.00000000000E+00 0. -1.
         -5    1    5    5    0  502  0.46656746938E+02  0.76781707317E+02  0.23069786867E+03  0.24762043377E+03  0.47000000000E+01 0.  1.
         13    1    6    6    0    0 -0.41538580081E+02 -0.33246357272E+01  0.13807558324E+03  0.14422681278E+03  0.00000000000E+00 0. -1.
        -14    1    6    6    0    0 -0.10752279181E+02  0.16614060083E+02 -0.51539686554E+01  0.20449985157E+02  0.00000000000E+00 0.  1.
</event>
<event>
12    1  0.9017558E-003  0.2570226E+03  0.7818608E-02  0.1109295E+00
         21   -1    0    0  503  502  0.00000000000E+00  0.00000000000E+00  0.14370287052E+03  0.14370287052E+03  0.00000000000E+00 0. -1.
         21   -1    0    0  501  503 -0.00000000000E+00 -0.00000000000E+00 -0.45748427903E+03  0.45748427903E+03  0.00000000000E+00 0.  1.
          6    2    1    2  501    0 -0.13404029768E+03  0.13555096013E+03 -0.17531591460E+03  0.30923968288E+03  0.16897528625E+03 0.  0.
         24    2    3    3    0    0 -0.80771537976E+02  0.15142482007E+03 -0.16826036001E+03  0.25301325635E+03  0.79060999585E+02 0.  0.
         -6    2    1    2    0  502  0.13404029768E+03 -0.13555096013E+03 -0.13846549390E+03  0.29194746667E+03  0.17239421712E+03 0.  0.
        -24    2    5    5    0    0  0.15618442053E+03 -0.82589194289E+02 -0.13216784155E+03  0.23400731442E+03  0.77952143215E+02 0.  0.
          5    1    3    3  501    0 -0.53268759706E+02 -0.15873859942E+02 -0.70555545849E+01  0.56226426533E+02  0.47000000000E+01 0. -1.
        -11    1    4    4    0    0 -0.46029518836E+02  0.11506389872E+03 -0.69254427341E+02  0.14196687325E+03  0.00000000000E+00 0.  1.
         12    1    4    4    0    0 -0.34742019140E+02  0.36360921350E+02 -0.99005932674E+02  0.11104638310E+03  0.00000000000E+00 0. -1.
         -5    1    5    5    0  502 -0.22144122850E+02 -0.52961765840E+02 -0.62976523578E+01  0.57940152252E+02  0.47000000000E+01 0.  1.
         11    1    6    6    0    0  0.10341328446E+03 -0.73544079670E+02 -0.50981215500E+02  0.13675570698E+03  0.00000000000E+00 0. -1.
        -12    1    6    6    0    0  0.52771136071E+02 -0.90451146192E+01 -0.81186626046E+02  0.97251607438E+02  0.00000000000E+00 0.  1.
</event>
<event>
12    1  0.9017558E-003  0.2376125E+03  0.7818608E-02  0.1122215E+00
         21   -1    0    0  501  502  0.00000000000E+00  0.00000000000E+00  0.10835036399E+04  0.10835036399E+04  0.00000000000E+00 0. -1.
         21   -1    0    0  502  503 -0.00000000000E+00 -0.00000000000E+00 -0.24683808638E+03  0.24683808638E+03  0.00000000000E+00 0.  1.
          6    2    1    2  501    0  0.13693780779E+03  0.84869209340E+02  0.10098358602E+04  0.10363219183E+04  0.16804733822E+03 0.  0.
         24    2    3    3    0    0  0.20274247665E+01  0.16012277096E+02  0.37376532377E+03  0.38244891389E+03  0.79411277630E+02 0.  0.
         -6    2    1    2    0  503 -0.13693780779E+03 -0.84869209340E+02 -0.17317030669E+03  0.29401980798E+03  0.17465665310E+03 0.  0.
        -24    2    5    5    0    0 -0.91687539510E+01 -0.66319459922E+02 -0.53715306584E+02  0.11806353111E+03  0.81063718170E+02 0.  0.
          5    1    3    3  501    0  0.13491038302E+03  0.68856932243E+02  0.63607053644E+03  0.65387300440E+03  0.47000000000E+01 0. -1.
        -13    1    4    4    0    0 -0.21709972732E+02  0.85430683758E+01  0.33841448847E+03  0.33921773677E+03  0.00000000000E+00 0.  1.
         14    1    4    4    0    0  0.23737397499E+02  0.74692087205E+01  0.35350835305E+02  0.43231177126E+02  0.00000000000E+00 0. -1.
         -5    1    5    5    0  503 -0.12776905383E+03 -0.18549749418E+02 -0.11945500011E+03  0.17595627687E+03  0.47000000000E+01 0.  1.
         13    1    6    6    0    0 -0.20543024951E+02 -0.36952908114E+02  0.13046842930E+02  0.44246507236E+02  0.00000000000E+00 0. -1.
        -14    1    6    6    0    0  0.11374271000E+02 -0.29366551808E+02 -0.66762149514E+02  0.73817023874E+02  0.00000000000E+00 0.  1.
</event>
<event>
12    1  0.9017558E-003  0.1825725E+03  0.7818608E-02  0.1165563E+00
         21   -1    0    0  503  502  0.00000000000E+00  0.00000000000E+00  0.87359231482E+03  0.87359231482E+03  0.00000000000E+00 0. -1.
         21   -1    0    0  501  503 -0.00000000000E+00 -0.00000000000E+00 -0.42178119466E+02  0.42178119466E+02  0.00000000000E+00 0. -1.
          6    2    1    2  501    0 -0.41514016478E+02 -0.44002272740E+02  0.56153032072E+03  0.59046508635E+03  0.17225882717E+03 0.  0.
         24    2    3    3    0    0 -0.46061342630E+02 -0.71878513062E+02  0.23523390165E+03  0.26291477563E+03  0.80628920600E+02 0.  0.
         -6    2    1    2    0  502  0.41514016478E+02  0.44002272740E+02  0.26988387463E+03  0.32530534793E+03  0.17125025559E+03 0.  0.
        -24    2    5    5    0    0  0.54644713503E+02 -0.41989830303E+00  0.69007607593E+02  0.11910372538E+03  0.80233574429E+02 0.  0.
          5    1    3    3  501    0  0.45473261519E+01  0.27876240322E+02  0.32629641908E+03  0.32755031072E+03  0.47000000000E+01 0. -1.
        -13    1    4    4    0    0 -0.58915543572E+02 -0.81419307492E+02  0.19017723602E+03  0.21509887495E+03  0.00000000000E+00 0.  1.
         14    1    4    4    0    0  0.12854200942E+02  0.95407944291E+01  0.45056665629E+02  0.47815900679E+02  0.00000000000E+00 0. -1.
         -5    1    5    5    0  502 -0.13130697025E+02  0.44422171043E+02  0.20087626704E+03  0.20620162255E+03  0.47000000000E+01 0.  1.
         11    1    6    6    0    0  0.50261916698E+02  0.18142103628E+02  0.80659226382E+02  0.96753847441E+02  0.00000000000E+00 0. -1.
        -12    1    6    6    0    0  0.43827968049E+01 -0.18562001931E+02 -0.11651618789E+02  0.22349877940E+02  0.00000000000E+00 0.  1.
</event>
<event>
12    1  0.9017558E-003  0.1807560E+03  0.7818608E-02  0.1167358E+00
         21   -1    0    0  503  502  0.00000000000E+00  0.00000000000E+00  0.11900121674E+03  0.11900121674E+03  0.00000000000E+00 0.  1.
         21   -1    0    0  501  503 -0.00000000000E+00 -0.00000000000E+00 -0.33175571607E+03  0.33175571607E+03  0.00000000000E+00 0.  1.
          6    2    1    2  501    0 -0.68752921696E+01  0.53795250804E+02 -0.20169843596E+03  0.27084125266E+03  0.17242832257E+03 0.  0.
         24    2    3    3    0    0 -0.11259296504E+02  0.25038586609E+02 -0.21993503327E+03  0.23618827716E+03  0.81607480257E+02 0.  0.
         -6    2    1    2    0  502  0.68752921696E+01 -0.53795250804E+02 -0.11056063367E+02  0.17991568015E+03  0.17119058612E+03 0.  0.
        -24    2    5    5    0    0 -0.83144637405E+01 -0.97704763457E+02 -0.33957291018E+01  0.13259185204E+03  0.89183614761E+02 0.  0.
          5    1    3    3  501    0  0.43840043343E+01  0.28756664196E+02  0.18236597306E+02  0.34652975499E+02  0.47000000000E+01 0. -1.
        -11    1    4    4    0    0  0.33570895916E+02  0.34039338189E+01 -0.61906279075E+02  0.70505171491E+02  0.00000000000E+00 0.  1.
         12    1    4    4    0    0 -0.44830192419E+02  0.21634652790E+02 -0.15802875419E+03  0.16568310567E+03  0.00000000000E+00 0. -1.
         -5    1    5    5    0  502  0.15189755910E+02  0.43909512652E+02 -0.76603342650E+01  0.47323828110E+02  0.47000000000E+01 0.  1.
         11    1    6    6    0    0 -0.24052561393E+01 -0.27863480752E+02 -0.43592631978E+02  0.51792628621E+02  0.00000000000E+00 0. -1.
        -12    1    6    6    0    0 -0.59092076011E+01 -0.69841282705E+02  0.40196902876E+02  0.80799223419E+02  0.00000000000E+00 0.  1.
</event>
<event>
12    1  0.9017558E-003  0.1911835E+03  0.7818608E-02  0.1157859E+00
         21   -1    0    0  501  502  0.00000000000E+00  0.00000000000E+00  0.72950477641E+02  0.72950477641E+02  0.00000000000E+00 0.  1.
         21   -1    0    0  502  503 -0.00000000000E+00 -0.00000000000E+00 -0.49817440331E+03  0.49817440331E+03  0.00000000000E+00 0.  1.
          6    2    1    2  501    0  0.65351080849E+02  0.44341359190E+02 -0.23164770971E+03  0.29905340898E+03  0.17185854680E+03 0.  0.
         24    2    3    3    0    0  0.31496674171E+02 -0.21143697524E+02 -0.19931443162E+03  0.21841877389E+03  0.80879056056E+02 0.  0.
         -6    2    1    2    0  503 -0.65351080849E+02 -0.44341359190E+02 -0.19357621596E+03  0.27207147196E+03  0.17410977735E+03 0.  0.
        -24    2    5    5    0    0 -0.85543805330E+02 -0.60886489316E+02 -0.83386596366E+02  0.15873423308E+03  0.84960726727E+02 0.  0.
          5    1    3    3  501    0  0.33854406678E+02  0.65485056714E+02 -0.32333278095E+02  0.80634635094E+02  0.47000000000E+01 0. -1.
        -11    1    4    4    0    0 -0.20323771003E+02  0.12735010943E+02 -0.86138773571E+02  0.89415459982E+02  0.00000000000E+00 0.  1.
         12    1    4    4    0    0  0.51820445174E+02 -0.33878708467E+02 -0.11317565804E+03  0.12900331391E+03  0.00000000000E+00 0. -1.
         -5    1    5    5    0  503  0.20192724480E+02  0.16545130126E+02 -0.11018961959E+03  0.11333723888E+03  0.47000000000E+01 0.  1.
         13    1    6    6    0    0 -0.46006022691E+02 -0.16897308193E+02 -0.86593249790E+02  0.99501075658E+02  0.00000000000E+00 0. -1.
        -14    1    6    6    0    0 -0.39537782638E+02 -0.43989181123E+02  0.32066534233E+01  0.59233157420E+02  0.00000000000E+00 0.  1.
</event>
<event>
12    1  0.9017558E-003  0.1822377E+03  0.7818608E-02  0.1165754E+00
         21   -1    0    0  501  502  0.00000000000E+00  0.00000000000E+00  0.12726852570E+03  0.12726852570E+03  0.00000000000E+00 0. -1.
         21   -1    0    0  502  503 -0.00000000000E+00 -0.00000000000E+00 -0.30524977555E+03  0.30524977555E+03  0.00000000000E+00 0. -1.
          6    2    1    2  501    0  0.54914135513E+02  0.19000647401E+02 -0.61375240612E+01  0.18234101625E+03  0.17272518671E+03 0.  0.
         24    2    3    3    0    0  0.72465335307E+02 -0.28278859806E+02  0.33146332099E+02  0.11824181367E+03  0.82653060655E+02 0.  0.
         -6    2    1    2    0  503 -0.54914135513E+02 -0.19000647401E+02 -0.17184372578E+03  0.25017728500E+03  0.17228412857E+03 0.  0.
        -24    2    5    5    0    0  0.13358846239E+02  0.23471522609E+02 -0.20447913691E+02  0.78690063372E+02  0.71025613357E+02 0.  0.
          5    1    3    3  501    0 -0.17551199794E+02  0.47279507207E+02 -0.39283856161E+02  0.64099202575E+02  0.47000000000E+01 0. -1.
        -11    1    4    4    0    0  0.16648726119E+02  0.19232837314E+02 -0.15944519193E+02  0.30021822144E+02  0.00000000000E+00 0.  1.
         12    1    4    4    0    0  0.55816609188E+02 -0.47511697120E+02  0.49090851293E+02  0.88219991527E+02  0.00000000000E+00 0. -1.
         -5    1    5    5    0  503 -0.68272981752E+02 -0.42472170010E+02 -0.15139581209E+03  0.17148722163E+03  0.47000000000E+01 0.  1.
         13    1    6    6    0    0 -0.26537247618E+02  0.20730539550E+02 -0.19019178396E+02  0.38674409213E+02  0.00000000000E+00 0. -1.
        -14    1    6    6    0    0  0.39896093857E+02  0.27409830589E+01 -0.14287352946E+01  0.40015654158E+02  0.00000000000E+00 0.  1.
</event>
<event>
12    1  0.9017558E-003  0.1814811E+03  0.7818608E-02  0.1166500E+00
         21   -1    0    0  501  502  0.00000000000E+00  0.00000000000E+00  0.39595421421E+03  0.39595421421E+03  0.00000000000E+00 0. -1.
         21   -1    0    0  502  503 -0.00000000000E+00 -0.00000000000E+00 -0.84247425693E+02  0.84247425693E+02  0.00000000000E+00 0.  1.
          6    2    1    2  501    0 -0.12982559871E+02  0.54787897974E+02  0.18592953564E+03  0.25981760246E+03  0.17252574793E+03 0.  0.
         24    2    3    3    0    0 -0.11236892567E+02 -0.36173678603E+02  0.85680495185E+02  0.12435906312E+03  0.81787691903E+02 0.  0.
         -6    2    1    2    0  503  0.12982559871E+02 -0.54787897974E+02  0.12577725288E+03  0.22038403745E+03  0.17198530749E+03 0.  0.
        -24    2    5    5    0    0  0.36028737929E+02 -0.64036328073E+02  0.14610550991E+03  0.18794967579E+03  0.92625802745E+02 0.  0.
          5    1    3    3  501    0 -0.17456673042E+01  0.90961576578E+02  0.10024904045E+03  0.13545853934E+03  0.47000000000E+01 0. -1.
        -11    1    4    4    0    0  0.24415060816E+02 -0.45972611992E+02  0.59492581588E+02  0.79050259405E+02  0.00000000000E+00 0.  1.
         12    1    4    4    0    0 -0.35651953383E+02  0.97989333888E+01  0.26187913597E+02  0.45308803716E+02  0.00000000000E+00 0. -1.
         -5    1    5    5    0  503 -0.23046178058E+02  0.92484300982E+01 -0.20328257026E+02  0.32434361657E+02  0.47000000000E+01 0.  1.
         11    1    6    6    0    0 -0.24949875056E+02 -0.11283057370E+02  0.88754492418E+01  0.28785017772E+02  0.00000000000E+00 0. -1.
        -12    1    6    6    0    0  0.60978612985E+02 -0.52753270703E+02  0.13723006067E+03  0.15916465802E+03  0.00000000000E+00 0.  1.
</event>
<event>
12    1  0.9017558E-003  0.2136891E+03  0.7818608E-02  0.1138786E+00
         21   -1    0    0  501  502  0.00000000000E+00  0.00000000000E+00  0.88981009165E+03  0.88981009165E+03  0.00000000000E+00 0. -1.
         21   -1    0    0  502  503 -0.00000000000E+00 -0.00000000000E+00 -0.73023803576E+02  0.73023803576E+02  0.00000000000E+00 0.  1.
          6    2    1    2  501    0  0.12354615590E+03  0.21298205066E+02  0.14548923332E+03  0.25851528135E+03  0.17304845421E+03 0.  0.
         24    2    3    3    0    0 -0.33635414414E+01  0.12887674267E+02  0.29469600505E+02  0.86296079446E+02  0.80007189770E+02 0.  0.
         -6    2    1    2    0  503 -0.12354615590E+03 -0.21298205066E+02  0.67129705476E+03  0.70431861388E+03  0.17235924097E+03 0.  0.
        -24    2    5    5    0    0 -0.80295691673E+02 -0.17405093869E+01  0.63330127494E+03  0.64333603112E+03  0.79751593189E+02 0.  0.
          5    1    3    3  501    0  0.12690969734E+03  0.84105307990E+01  0.11601963281E+03  0.17221920190E+03  0.47000000000E+01 0. -1.
        -11    1    4    4    0    0  0.15148621484E+02  0.42384656441E+02  0.24110402769E+02  0.51061251025E+02  0.00000000000E+00 0.  1.
         12    1    4    4    0    0 -0.18512162925E+02 -0.29496982174E+02  0.53591977359E+01  0.35234828422E+02  0.00000000000E+00 0. -1.
         -5    1    5    5    0  503 -0.43250464225E+02 -0.19557695680E+02  0.37995779814E+02  0.60982582756E+02  0.47000000000E+01 0.  1.
         11    1    6    6    0    0 -0.78014891262E+02 -0.41224503658E+01  0.29959432445E+03  0.30961278575E+03  0.00000000000E+00 0. -1.
        -12    1    6    6    0    0 -0.22808004109E+01  0.23819409789E+01  0.33370695050E+03  0.33372324537E+03  0.00000000000E+00 0.  1.
</event>
<event>
12    1  0.9017558E-003  0.1866165E+03  0.7818608E-02  0.1164195E+00
         21   -1    0    0  503  502  0.00000000000E+00  0.00000000000E+00  0.13514239885E+03  0.13514239885E+03  0.00000000000E+00 0.  1.
         21   -1    0    0  501  503 -0.00000000000E+00 -0.00000000000E+00 -0.26153396103E+03  0.26153396103E+03  0.00000000000E+00 0.  1.
          6    2    1    2  501    0  0.33742657048E+02  0.74089229250E+01 -0.11832964174E+03  0.22096977174E+03  0.18339104903E+03 0.  0.
         24    2    3    3    0    0 -0.26853854131E+02  0.54891805224E+02 -0.10245380145E+03  0.14222528886E+03  0.77440374473E+02 0.  0.
         -6    2    1    2    0  502 -0.33742657048E+02 -0.74089229250E+01 -0.80619204449E+01  0.17570658814E+03  0.17208820852E+03 0.  0.
        -24    2    5    5    0    0 -0.14136234924E+02 -0.15689470502E+01 -0.72512351620E+02  0.10792410379E+03  0.78659241723E+02 0.  0.
          5    1    3    3  501    0  0.60596511179E+02 -0.47482882299E+02 -0.15875840288E+02  0.78744482876E+02  0.47000000000E+01 0. -1.
        -13    1    4    4    0    0 -0.20071969808E+02  0.70351270221E+01 -0.89768206016E+02  0.92253497470E+02  0.00000000000E+00 0.  1.
         14    1    4    4    0    0 -0.67818843225E+01  0.47856678202E+02 -0.12685595432E+02  0.49971791393E+02  0.00000000000E+00 0. -1.
         -5    1    5    5    0  502 -0.19606422124E+02 -0.58399758749E+01  0.64450431175E+02  0.67782484355E+02  0.47000000000E+01 0.  1.
         11    1    6    6    0    0 -0.15991873939E+02 -0.37157191188E+02 -0.21829025342E+02  0.45966327202E+02  0.00000000000E+00 0. -1.
        -12    1    6    6    0    0  0.18556390152E+01  0.35588244138E+02 -0.50683326278E+02  0.61957776587E+02  0.00000000000E+00 0.  1.
</event>
<event>
12    1  0.9017558E-003  0.5517909E+03  0.7818608E-02  0.1001141E+00
         21   -1    0    0  503  502  0.00000000000E+00  0.00000000000E+00  0.10081044399E+04  0.10081044399E+04  0.00000000000E+00 0.  1.
         21   -1    0    0  501  503 -0.00000000000E+00 -0.00000000000E+00 -0.30897184787E+03  0.30897184787E+03  0.00000000000E+00 0. -1.
          6    2    1    2  501    0 -0.36693783485E+03 -0.37316130788E+03  0.45261487700E+03  0.71367595903E+03  0.17487255723E+03 0.  0.
         24    2    3    3    0    0 -0.17929368222E+03 -0.22758672822E+03  0.33244575907E+03  0.44747116350E+03  0.75949431157E+02 0.  0.
         -6    2    1    2    0  502  0.36693783485E+03  0.37316130788E+03  0.24651771498E+03  0.60340032870E+03  0.17154660166E+03 0.  0.
        -24    2    5    5    0    0  0.78232205956E+02  0.11210129587E+03  0.41624209265E+02  0.16350635431E+03  0.79465555545E+02 0.  0.
          5    1    3    3  501    0 -0.18764415263E+03 -0.14557457966E+03  0.12016911793E+03  0.26620479553E+03  0.47000000000E+01 0. -1.
        -11    1    4    4    0    0 -0.27597420297E+02 -0.10093909166E+02  0.62547104700E+02  0.69106041094E+02  0.00000000000E+00 0.  1.
         12    1    4    4    0    0 -0.15169626192E+03 -0.21749281905E+03  0.26989865437E+03  0.37836512241E+03  0.00000000000E+00 0. -1.
         -5    1    5    5    0  502  0.28870562889E+03  0.26106001201E+03  0.20489350572E+03  0.43989397439E+03  0.47000000000E+01 0.  1.
         13    1    6    6    0    0  0.74599129755E+02  0.39984537825E+02  0.12118171294E+02  0.85502301143E+02  0.00000000000E+00 0. -1.
        -14    1    6    6    0    0  0.36330762015E+01  0.72116758045E+02  0.29506037971E+02  0.78004053167E+02  0.00000000000E+00 0.  1.
</event>
<event>
12    1  0.9017558E-003  0.3713527E+03  0.7818608E-02  0.1054222E+00
         21   -1    0    0  501  502  0.00000000000E+00  0.00000000000E+00  0.49724043655E+03  0.49724043655E+03  0.00000000000E+00 0.  1.
         21   -1    0    0  502  503 -0.00000000000E+00 -0.00000000000E+00 -0.54954284914E+03  0.54954284914E+03  0.00000000000E+00 0. -1.
          6    2    1    2  501    0 -0.66290300133E+02  0.32220801050E+03  0.34244023991E+03  0.50514169981E+03  0.17230906262E+03 0.  0.
         24    2    3    3    0    0 -0.73446349473E+02  0.23517408358E+03  0.17795003484E+03  0.31884829939E+03  0.96419952743E+02 0.  0.
         -6    2    1    2    0  503  0.66290300133E+02 -0.32220801050E+03 -0.39474265250E+03  0.54164158588E+03  0.17129343223E+03 0.  0.
        -24    2    5    5    0    0  0.23361393520E+02 -0.80856517651E+02 -0.18744684030E+03  0.22056982150E+03  0.80194744617E+02 0.  0.
          5    1    3    3  501    0  0.71560493399E+01  0.87033926920E+02  0.16449020507E+03  0.18629340042E+03  0.47000000000E+01 0. -1.
        -13    1    4    4    0    0 -0.89160412879E+02  0.22810699990E+03  0.17581781890E+03  0.30148679585E+03  0.00000000000E+00 0.  1.
         14    1    4    4    0    0  0.15714063406E+02  0.70670836741E+01  0.21322159434E+01  0.17361503541E+02  0.00000000000E+00 0. -1.
         -5    1    5    5    0  503  0.42928906613E+02 -0.24135149285E+03 -0.20729581221E+03  0.32107176438E+03  0.47000000000E+01 0.  1.
         11    1    6    6    0    0  0.43096231948E+02 -0.20461251218E+02 -0.49787225047E+02  0.68954447191E+02  0.00000000000E+00 0. -1.
        -12    1    6    6    0    0 -0.19734838428E+02 -0.60395266433E+02 -0.13765961525E+03  0.15161537431E+03  0.00000000000E+00 0.  1.
</event>
<event>
12    1  0.9017558E-003  0.2590381E+03  0.7818608E-02  0.1107818E+00
         21   -1    0    0  501  502  0.00000000000E+00  0.00000000000E+00  0.11050463694E+03  0.11050463694E+03  0.00000000000E+00 0. -1.
         21   -1    0    0  502  503 -0.00000000000E+00 -0.00000000000E+00 -0.60594501009E+03  0.60594501009E+03  0.00000000000E+00 0.  1.
          6    2    1    2  501    0  0.18941493627E+03 -0.35235305013E+02 -0.25402562463E+03  0.36235670407E+03  0.17220284032E+03 0.  0.
         24    2    3    3    0    0  0.58353261895E+02 -0.72688835011E+02 -0.13259669886E+03  0.17974508502E+03  0.77702259498E+02 0.  0.
         -6    2    1    2    0  503 -0.18941493627E+03  0.35235305013E+02 -0.24141474852E+03  0.35409294295E+03  0.17315076275E+03 0.  0.
        -24    2    5    5    0    0 -0.16936025395E+03 -0.85219823860E+01 -0.11810825974E+03  0.22164117566E+03  0.80123217162E+02 0.  0.
          5    1    3    3  501    0  0.13106167438E+03  0.37453529998E+02 -0.12142892577E+03  0.18261161906E+03  0.47000000000E+01 0. -1.
        -13    1    4    4    0    0  0.54787757014E+02 -0.59157585054E+02 -0.14171206382E+03  0.16304486260E+03  0.00000000000E+00 0.  1.
         14    1    4    4    0    0  0.35655048809E+01 -0.13531249957E+02  0.91153649617E+01  0.16700222419E+02  0.00000000000E+00 0. -1.
         -5    1    5    5    0  503 -0.20054682327E+02  0.43757287399E+02 -0.12330648878E+03  0.13245176729E+03  0.47000000000E+01 0.  1.
         13    1    6    6    0    0 -0.45925916819E+02  0.33721224686E+02 -0.39444832883E+02  0.69297948535E+02  0.00000000000E+00 0. -1.
        -14    1    6    6    0    0 -0.12343433713E+03 -0.42243207072E+02 -0.78663426859E+02  0.15234322712E+03  0.00000000000E+00 0.  1.
</event>
<event>
12    1  0.9017558E-003  0.2932038E+03  0.7818608E-02  0.1088689E+00
         21   -1    0    0  501  502  0.00000000000E+00  0.00000000000E+00  0.30888512258E+02  0.30888512258E+02  0.00000000000E+00 0.  1.
         21   -1    0    0  502  503 -0.00000000000E+00 -0.00000000000E+00 -0.38584739790E+04  0.38584739790E+04  0.00000000000E+00 0. -1.
          6    2    1    2  501    0  0.14901030510E+03  0.18590676270E+03 -0.88715241307E+03  0.93434726178E+03  0.17088009289E+03 0.  0.
         24    2    3    3    0    0  0.15445963896E+03  0.13889326203E+03 -0.83360648323E+03  0.86272868118E+03  0.79068894951E+02 0.  0.
         -6    2    1    2    0  503 -0.14901030510E+03 -0.18590676270E+03 -0.29404330536E+04  0.29550152294E+04  0.17088905127E+03 0.  0.
        -24    2    5    5    0    0 -0.23605966855E+02 -0.59209142006E+02 -0.67673790686E+03  0.68430689443E+03  0.78985865902E+02 0.  0.
          5    1    3    3  501    0 -0.54493338599E+01  0.47013500673E+02 -0.53545929837E+02  0.71618580600E+02  0.47000000000E+01 0. -1.
        -11    1    4    4    0    0  0.15259112451E+03  0.98055750788E+02 -0.67873075925E+03  0.70254852153E+03  0.00000000000E+00 0.  1.
         12    1    4    4    0    0  0.18685144494E+01  0.40837511240E+02 -0.15487572398E+03  0.16018015966E+03  0.00000000000E+00 0. -1.
         -5    1    5    5    0  503 -0.12540433824E+03 -0.12669762069E+03 -0.22636951468E+04  0.22707083350E+04  0.47000000000E+01 0.  1.
         11    1    6    6    0    0 -0.52358180693E+02 -0.40303733000E+02 -0.48867917779E+03  0.49312585491E+03  0.00000000000E+00 0. -1.
        -12    1    6    6    0    0  0.28752213838E+02 -0.18905409006E+02 -0.18805872908E+03  0.19118103952E+03  0.00000000000E+00 0.  1.
</event>
<event>
12    1  0.9017558E-003  0.1732663E+03  0.7818608E-02  0.1174685E+00
         21   -1    0    0  503  502  0.00000000000E+00  0.00000000000E+00  0.12526055984E+03  0.12526055984E+03  0.00000000000E+00 0.  1.
         21   -1    0    0  501  503 -0.00000000000E+00 -0.00000000000E+00 -0.25286223786E+03  0.25286223786E+03  0.00000000000E+00 0.  1.
          6    2    1    2  501    0  0.53725493737E+01  0.14597454422E+02 -0.18727492616E+02  0.17348943303E+03  0.17177285709E+03 0.  0.
         24    2    3    3    0    0  0.42722255402E+02  0.42555310397E+02 -0.54592113242E+02  0.11445551682E+03  0.80520934866E+02 0.  0.
         -6    2    1    2    0  502 -0.53725493737E+01 -0.14597454422E+02 -0.10887418540E+03  0.20463336466E+03  0.17256672832E+03 0.  0.
        -24    2    5    5    0    0  0.44850229955E+01  0.55077493585E+01  0.11631124052E+02  0.81975260328E+02  0.80834457534E+02 0.  0.
          5    1    3    3  501    0 -0.37349706028E+02 -0.27957855974E+02  0.35864620626E+02  0.59033916215E+02  0.47000000000E+01 0. -1.
        -13    1    4    4    0    0 -0.15234285371E+02  0.30313256152E+02 -0.37893284872E-01  0.33926072351E+02  0.00000000000E+00 0.  1.
         14    1    4    4    0    0  0.57956540773E+02  0.12242054245E+02 -0.54554219957E+02  0.80529444464E+02  0.00000000000E+00 0. -1.
         -5    1    5    5    0  502 -0.98575723692E+01 -0.20105203781E+02 -0.12050530946E+03  0.12265810434E+03  0.47000000000E+01 0.  1.
         11    1    6    6    0    0 -0.17803016179E+02  0.12500800458E+02  0.39814526491E+02  0.45369746714E+02  0.00000000000E+00 0. -1.
        -12    1    6    6    0    0  0.22288039174E+02 -0.69930510992E+01 -0.28183402439E+02  0.36605513614E+02  0.00000000000E+00 0.  1.
</event>
<event>
12    1  0.9017558E-003  0.1872887E+03  0.7818608E-02  0.1161301E+00
         21   -1    0    0  501  502  0.00000000000E+00  0.00000000000E+00  0.80020363489E+02  0.80020363489E+02  0.00000000000E+00 0. -1.
         21   -1    0    0  502  503 -0.00000000000E+00 -0.00000000000E+00 -0.47963901208E+03  0.47963901208E+03  0.00000000000E+00 0. -1.
          6    2    1    2  501    0 -0.38341279930E+02 -0.59037960788E+02 -0.11327270085E+03  0.21750290780E+03  0.17181756483E+03 0.  0.
         24    2    3    3    0    0 -0.80872693404E+02 -0.66636408426E+01 -0.66605807462E+02  0.13533308694E+03  0.85404415496E+02 0.  0.
         -6    2    1    2    0  503  0.38341279930E+02  0.59037960788E+02 -0.28634594774E+03  0.34215646776E+03  0.17355550145E+03 0.  0.
        -24    2    5    5    0    0  0.40159648966E+02 -0.21400973820E+02 -0.21548446732E+03  0.23483839811E+03  0.81515142668E+02 0.  0.
          5    1    3    3  501    0  0.42531413475E+02 -0.52374319946E+02 -0.46666893388E+02  0.82169820861E+02  0.47000000000E+01 0. -1.
        -11    1    4    4    0    0 -0.69506649087E+02  0.32695656517E+02 -0.44832383392E+02  0.88938871271E+02  0.00000000000E+00 0.  1.
         12    1    4    4    0    0 -0.11366044318E+02 -0.39359297360E+02 -0.21773424070E+02  0.46394215672E+02  0.00000000000E+00 0. -1.
         -5    1    5    5    0  503 -0.18183690360E+01  0.80438934608E+02 -0.70861480415E+02  0.10731806965E+03  0.47000000000E+01 0.  1.
         11    1    6    6    0    0 -0.86739984862E+01  0.16790836064E+02 -0.11664028835E+03  0.11816144587E+03  0.00000000000E+00 0. -1.
        -12    1    6    6    0    0  0.48833647452E+02 -0.38191809884E+02 -0.98844178977E+02  0.11667695224E+03  0.00000000000E+00 0.  1.
</event>
<event>
12    1  0.9017558E-003  0.2104017E+03  0.7818608E-02  0.1141331E+00
         21   -1    0    0  503  502  0.00000000000E+00  0.00000000000E+00  0.72191199823E+03  0.72191199823E+03  0.00000000000E+00 0.  1.
         21   -1    0    0  501  503 -0.00000000000E+00 -0.00000000000E+00 -0.96883073203E+02  0.96883073203E+02  0.00000000000E+00 0. -1.
          6    2    1    2  501    0  0.11453756648E+02 -0.12095840429E+03  0.64251873956E+02  0.21999356015E+03  0.17177525750E+03 0.  0.
         24    2    3    3    0    0  0.59816332559E+02 -0.36668116413E+02  0.76933730093E+01  0.10745580911E+03  0.81024801889E+02 0.  0.
         -6    2    1    2    0  502 -0.11453756648E+02  0.12095840429E+03  0.56077705107E+03  0.59880151128E+03  0.17126069250E+03 0.  0.
        -24    2    5    5    0    0 -0.45468729797E+02  0.13425617760E+02  0.19379502625E+03  0.21485071350E+03  0.79728691761E+02 0.  0.
          5    1    3    3  501    0 -0.48362575911E+02 -0.84290287881E+02  0.56558500947E+02  0.11253775104E+03  0.47000000000E+01 0. -1.
        -13    1    4    4    0    0 -0.52653979848E+01  0.90996694458E+01  0.24033084326E+02  0.26231994629E+02  0.00000000000E+00 0.  1.
         14    1    4    4    0    0  0.65081730544E+02 -0.45767785859E+02 -0.16339711317E+02  0.81223814482E+02  0.00000000000E+00 0. -1.
         -5    1    5    5    0  502  0.34014973149E+02  0.10753278653E+03  0.36698202482E+03  0.38395079778E+03  0.47000000000E+01 0.  1.
         11    1    6    6    0    0 -0.41223313979E+02 -0.13880090175E+02  0.41670228585E+02  0.60236421449E+02  0.00000000000E+00 0. -1.
        -12    1    6    6    0    0 -0.42454158186E+01  0.27305707935E+02  0.15212479767E+03  0.15461429205E+03  0.00000000000E+00 0.  1.
</event>
<event>
12    1  0.9017558E-003  0.2206001E+03  0.7818608E-02  0.1134263E+00
         21   -1    0    0  503  502  0.00000000000E+00  0.00000000000E+00  0.36860793007E+03  0.36860793007E+03  0.00000000000E+00 0.  1.
         21   -1    0    0  501  503 -0.00000000000E+00 -0.00000000000E+00 -0.32280113769E+03  0.32280113769E+03  0.00000000000E+00 0.  1.
          6    2    1    2  501    0  0.90698735771E+01  0.12933192334E+03 -0.24477068476E+03  0.32658081055E+03  0.17301251024E+03 0.  0.
         24    2    3    3    0    0  0.64432273028E+02  0.62620155609E+02 -0.18951904881E+03  0.22367168315E+03  0.77709396381E+02 0.  0.
         -6    2    1    2    0  502 -0.90698735771E+01 -0.12933192334E+03  0.29057747715E+03  0.36482825721E+03  0.17848074975E+03 0.  0.
        -24    2    5    5    0    0 -0.43679204549E+02 -0.95587299695E+02  0.97145516715E+02  0.16539275703E+03  0.82901796643E+02 0.  0.
          5    1    3    3  501    0 -0.55362399451E+02  0.66711767733E+02 -0.55251635950E+02  0.10290912740E+03  0.47000000000E+01 0. -1.
        -11    1    4    4    0    0  0.23079689917E+01  0.56193908873E+02 -0.85341116579E+02  0.10220659614E+03  0.00000000000E+00 0.  1.
         12    1    4    4    0    0  0.62124304036E+02  0.64262467358E+01 -0.10417793223E+03  0.12146508701E+03  0.00000000000E+00 0. -1.
         -5    1    5    5    0  502  0.34609330972E+02 -0.33744623646E+02  0.19343196043E+03  0.19943550018E+03  0.47000000000E+01 0.  1.
         11    1    6    6    0    0  0.16835021151E+02 -0.55900692698E+02  0.25994018375E+02  0.63906137206E+02  0.00000000000E+00 0. -1.
        -12    1    6    6    0    0 -0.60514225700E+02 -0.39686606997E+02  0.71151498340E+02  0.10148661982E+03  0.00000000000E+00 0.  1.
</event>
<event>
12    1  0.9017558E-003  0.1900481E+03  0.7818608E-02  0.1158559E+00
         21   -1    0    0  503  502  0.00000000000E+00  0.00000000000E+00  0.27042964680E+03  0.27042964680E+03  0.00000000000E+00 0.  1.
         21   -1    0    0  501  503 -0.00000000000E+00 -0.00000000000E+00 -0.22798438581E+03  0.22798438581E+03  0.00000000000E+00 0.  1.
          6    2    1    2  501    0 -0.78459844504E+02 -0.51368590557E+01 -0.13954944130E+03  0.23527841185E+03  0.17233557380E+03 0.  0.
         24    2    3    3    0    0 -0.52709994536E+02 -0.68649940422E+01 -0.17000797677E+03  0.19508073024E+03  0.79550659821E+02 0.  0.
         -6    2    1    2    0  502  0.78459844504E+02  0.51368590557E+01  0.18199470229E+03  0.26313562076E+03  0.17302008186E+03 0.  0.
        -24    2    5    5    0    0  0.10850260873E+03 -0.23185134180E+02  0.93886637274E+02  0.16571989254E+03  0.79611654767E+02 0.  0.
          5    1    3    3  501    0 -0.25749849969E+02  0.17281349865E+01  0.30458535471E+02  0.40197681612E+02  0.47000000000E+01 0. -1.
        -11    1    4    4    0    0  0.64601210310E+01 -0.29320141158E+02 -0.76385807753E+02  0.82074328918E+02  0.00000000000E+00 0.  1.
         12    1    4    4    0    0 -0.59170115567E+02  0.22455147115E+02 -0.93622169019E+02  0.11300640132E+03  0.00000000000E+00 0. -1.
         -5    1    5    5    0  502 -0.30042764230E+02  0.28321993236E+02  0.88108065018E+02  0.97415728220E+02  0.47000000000E+01 0.  1.
         11    1    6    6    0    0  0.13962153123E+02  0.12131736208E+02 -0.98796424690E+01  0.20969694289E+02  0.00000000000E+00 0. -1.
        -12    1    6    6    0    0  0.94540455611E+02 -0.35316870388E+02  0.10376627974E+03  0.14475019825E+03  0.00000000000E+00 0.  1.
</event>
<event>
12    1  0.9017558E-003  0.2085344E+03  0.7818608E-02  0.1142783E+00
         21   -1    0    0  503  502  0.00000000000E+00  0.00000000000E+00  0.39545410450E+03  0.39545410450E+03  0.00000000000E+00 0.  1.
         21   -1    0    0  501  503 -0.00000000000E+00 -0.00000000000E+00 -0.13371969586E+03  0.13371969586E+03  0.00000000000E+00 0. -1.
          6    2    1    2  501    0 -0.45835258536E+02 -0.10701175404E+03  0.18967405704E+02  0.20913878499E+03  0.17270461047E+03 0.  0.
         24    2    3    3    0    0  0.12073958507E+02 -0.28178758589E+02  0.57690205682E+02  0.10383131218E+03  0.80702903595E+02 0.  0.
         -6    2    1    2    0  502  0.45835258536E+02  0.10701175404E+03  0.24276700293E+03  0.32003501538E+03  0.17301504827E+03 0.  0.
        -24    2    5    5    0    0  0.13765543495E+02 -0.12183124653E+02  0.67399359432E+02  0.10553143472E+03  0.79096721475E+02 0.  0.
          5    1    3    3  501    0 -0.57909217042E+02 -0.78832995447E+02 -0.38722799978E+02  0.10530747280E+03  0.47000000000E+01 0. -1.
        -13    1    4    4    0    0  0.12278045447E+02  0.22975334373E+02  0.43569999346E+02  0.50763778746E+02  0.00000000000E+00 0.  1.
         14    1    4    4    0    0 -0.20408694083E+00 -0.51154092962E+02  0.14120206336E+02  0.53067533438E+02  0.00000000000E+00 0. -1.
         -5    1    5    5    0  502  0.32069715040E+02  0.11919487869E+03  0.17536764350E+03  0.21450358066E+03  0.47000000000E+01 0.  1.
         13    1    6    6    0    0 -0.28683933750E+02  0.65734690030E+01  0.86685076480E+01  0.30677704851E+02  0.00000000000E+00 0. -1.
        -14    1    6    6    0    0  0.42449477245E+02 -0.18756593656E+02  0.58730851784E+02  0.74853729868E+02  0.00000000000E+00 0.  1.
</event>
<event>
12    1  0.9017558E-003  0.1902654E+03  0.7818608E-02  0.1158239E+00
         21   -1    0    0  501  502  0.00000000000E+00  0.00000000000E+00  0.60093961121E+02  0.60093961121E+02  0.00000000000E+00 0.  1.
         21   -1    0    0  502  503 -0.00000000000E+00 -0.00000000000E+00 -0.62033736390E+03  0.62033736390E+03  0.00000000000E+00 0.  1.
          6    2    1    2  501    0 -0.18931392726E+02  0.74938232508E+02 -0.33839429623E+03  0.38821595741E+03  0.17385854463E+03 0.  0.
         24    2    3    3    0    0  0.44249634903E+02  0.46228626819E+02 -0.13121500293E+03  0.16967206414E+03  0.86464537407E+02 0.  0.
         -6    2    1    2    0  503  0.18931392726E+02 -0.74938232508E+02 -0.22184910655E+03  0.29221536761E+03  0.17377761269E+03 0.  0.
        -24    2    5    5    0    0  0.15238151295E+02 -0.28695272464E+02 -0.24088158507E+02  0.89031869378E+02  0.79314654812E+02 0.  0.
          5    1    3    3  501    0 -0.63181027628E+02  0.28709605690E+02 -0.20717929330E+03  0.21854389327E+03  0.47000000000E+01 0. -1.
        -11    1    4    4    0    0  0.15178327227E+02  0.61987786452E+02 -0.11781996530E+03  0.13399407267E+03  0.00000000000E+00 0.  1.
         12    1    4    4    0    0  0.29071307675E+02 -0.15759159633E+02 -0.13395037627E+02  0.35677991470E+02  0.00000000000E+00 0. -1.
         -5    1    5    5    0  503  0.36932414306E+01 -0.46242960044E+02 -0.19776094804E+03  0.20318349824E+03  0.47000000000E+01 0.  1.
         11    1    6    6    0    0  0.41439238969E+02 -0.54276178683E+01 -0.32562014232E+02  0.52980697739E+02  0.00000000000E+00 0. -1.
        -12    1    6    6    0    0 -0.26201087674E+02 -0.23267654596E+02  0.84738557258E+01  0.36051171639E+02  0.00000000000E+00 0.  1.
</event>
<event>
12    1  0.9017558E-003  0.1871597E+03  0.7818608E-02  0.1161084E+00
         21   -1    0    0  501  502  0.00000000000E+00  0.00000000000E+00  0.33268435211E+02  0.33268435211E+02  0.00000000000E+00 0. -1.
         21   -1    0    0  502  503 -0.00000000000E+00 -0.00000000000E+00 -0.11355389171E+04  0.11355389171E+04  0.00000000000E+00 0.  1.
          6    2    1    2  501    0  0.54528671585E+02 -0.49248703005E+02 -0.70982002191E+03  0.73407984606E+03  0.17213351246E+03 0.  0.
         24    2    3    3    0    0  0.89211351767E+02 -0.60473213686E+02 -0.65091868416E+03  0.66465120979E+03  0.80314521965E+02 0.  0.
         -6    2    1    2    0  503 -0.54528671585E+02  0.49248703005E+02 -0.39245045997E+03  0.43472750624E+03  0.17196461956E+03 0.  0.
        -24    2    5    5    0    0 -0.10156850123E+03  0.44596966328E+02 -0.25849588900E+03  0.29259974220E+03  0.80557027368E+02 0.  0.
          5    1    3    3  501    0 -0.34682680182E+02  0.11224510681E+02 -0.58901337758E+02  0.69428636270E+02  0.47000000000E+01 0. -1.
        -11    1    4    4    0    0  0.78235834868E+01 -0.51359270948E+02 -0.28284904772E+03  0.28758053996E+03  0.00000000000E+00 0.  1.
         12    1    4    4    0    0  0.81387768280E+02 -0.91139427375E+01 -0.36806963644E+03  0.37707066983E+03  0.00000000000E+00 0. -1.
         -5    1    5    5    0  503  0.47039829649E+02  0.46517366770E+01 -0.13395457097E+03  0.14212776404E+03  0.47000000000E+01 0.  1.
         11    1    6    6    0    0 -0.54298250240E+02 -0.19283972547E+02 -0.10968223893E+03  0.12389659040E+03  0.00000000000E+00 0. -1.
        -12    1    6    6    0    0 -0.47270250994E+02  0.63880938875E+02 -0.14881365007E+03  0.16870315180E+03  0.00000000000E+00 0.  1.
</event>
<event>
12    1  0.9017558E-003  0.1823667E+03  0.7818608E-02  0.1167739E+00
         21   -1    0    0  501  502  0.00000000000E+00  0.00000000000E+00  0.37451586809E+03  0.37451586809E+03  0.00000000000E+00 0.  1.
         21   -1    0    0  502  503 -0.00000000000E+00 -0.00000000000E+00 -0.11655161033E+03  0.11655161033E+03  0.00000000000E+00 0.  1.
          6    2    1    2  501    0 -0.23372269575E+02 -0.27651650994E+02  0.26016511774E+03  0.31771604482E+03  0.17873645364E+03 0.  0.
         24    2    3    3    0    0  0.15348208684E+02 -0.18029942164E+02  0.37094653893E+02  0.91056885379E+02  0.79716351542E+02 0.  0.
         -6    2    1    2    0  503  0.23372269575E+02  0.27651650994E+02 -0.22008599761E+01  0.17335143360E+03  0.16951400815E+03 0.  0.
        -24    2    5    5    0    0 -0.47113233841E+02 -0.92950212578E+01 -0.54213180828E+01  0.93565945371E+02  0.80119543311E+02 0.  0.
          5    1    3    3  501    0 -0.38720478259E+02 -0.96217088296E+01  0.22307046384E+03  0.22665915944E+03  0.47000000000E+01 0. -1.
        -13    1    4    4    0    0 -0.23141499632E+02  0.15637386961E+02  0.79711785280E-01  0.27929612066E+02  0.00000000000E+00 0.  1.
         14    1    4    4    0    0  0.38489708316E+02 -0.33667329126E+02  0.37014942108E+02  0.63127273313E+02  0.00000000000E+00 0. -1.
         -5    1    5    5    0  503  0.70485503416E+02  0.36946672252E+02  0.32204581067E+01  0.79785488234E+02  0.47000000000E+01 0.  1.
         13    1    6    6    0    0  0.36911602605E+01 -0.33228602497E+02  0.10759675599E+02  0.35121721298E+02  0.00000000000E+00 0. -1.
        -14    1    6    6    0    0 -0.50804394101E+02  0.23933581239E+02 -0.16180993682E+02  0.58444224073E+02  0.00000000000E+00 0.  1.
</event>
<event>
12    1  0.9017558E-003  0.1841926E+03  0.7818608E-02  0.1166467E+00
         21   -1    0    0  503  502  0.00000000000E+00  0.00000000000E+00  0.69974006521E+02  0.69974006521E+02  0.00000000000E+00 0.  1.
         21   -1    0    0  501  503 -0.00000000000E+00 -0.00000000000E+00 -0.63430245676E+03  0.63430245676E+03  0.00000000000E+00 0.  1.
          6    2    1    2  501    0  0.20794248534E+02  0.65942026789E+02 -0.47481509029E+03  0.50928996326E+03  0.17072242102E+03 0.  0.
         24    2    3    3    0    0 -0.18897862875E+02  0.98339398994E+02 -0.37951145908E+03  0.40098518241E+03  0.82051217656E+02 0.  0.
         -6    2    1    2    0  502 -0.20794248534E+02 -0.65942026789E+02 -0.89513359949E+02  0.19498650002E+03  0.15882802622E+03 0.  0.
        -24    2    5    5    0    0 -0.24650288576E+02 -0.10291386471E+03 -0.53399839267E+02  0.14294745487E+03  0.79897007098E+02 0.  0.
          5    1    3    3  501    0  0.39692111409E+02 -0.32397372205E+02 -0.95303631210E+02  0.10830478085E+03  0.47000000000E+01 0. -1.
        -11    1    4    4    0    0  0.26058664434E+02  0.36722240537E+02 -0.78867821395E+02  0.90816904780E+02  0.00000000000E+00 0.  1.
         12    1    4    4    0    0 -0.44956527309E+02  0.61617158456E+02 -0.30064363769E+03  0.31016827763E+03  0.00000000000E+00 0. -1.
         -5    1    5    5    0  502  0.38560400423E+01  0.36971837925E+02 -0.36113520682E+02  0.52039045153E+02  0.47000000000E+01 0.  1.
         11    1    6    6    0    0 -0.24758700830E+02 -0.18585357983E+02 -0.49680578856E+02  0.58536900444E+02  0.00000000000E+00 0. -1.
        -12    1    6    6    0    0  0.10841225381E+00 -0.84328506731E+02 -0.37192604112E+01  0.84410554427E+02  0.00000000000E+00 0.  1.
</event>
<event>
12    1  0.9017558E-003  0.2260355E+03  0.7818608E-02  0.1129588E+00
         21   -1    0    0  501  502  0.00000000000E+00  0.00000000000E+00  0.25512609774E+03  0.25512609774E+03  0.00000000000E+00 0.  1.
         21   -1    0    0  502  503 -0.00000000000E+00 -0.00000000000E+00 -0.28480724090E+03  0.28480724090E+03  0.00000000000E+00 0.  1.
          6    2    1    2  501    0 -0.28961922513E+02 -0.14337574082E+03  0.13277094668E+03  0.26214530045E+03  0.17232712570E+03 0.  0.
         24    2    3    3    0    0  0.14809861484E+02 -0.41519743825E+02  0.11866921568E+03  0.15029020662E+03  0.81003347656E+02 0.  0.
         -6    2    1    2    0  503  0.28961922513E+02  0.14337574082E+03 -0.16245208984E+03  0.27778803818E+03  0.17140629116E+03 0.  0.
        -24    2    5    5    0    0 -0.50622781435E+02  0.81921518427E+02 -0.75410561033E+02  0.14471413281E+03  0.77340974515E+02 0.  0.
          5    1    3    3  501    0 -0.43771783997E+02 -0.10185599700E+03  0.14101731003E+02  0.11185509383E+03  0.47000000000E+01 0. -1.
        -13    1    4    4    0    0 -0.25038810346E+02  0.86010045359E+01  0.22445759637E+02  0.34709241251E+02  0.00000000000E+00 0.  1.
         14    1    4    4    0    0  0.39848671830E+02 -0.50120748361E+02  0.96223456044E+02  0.11558096537E+03  0.00000000000E+00 0. -1.
         -5    1    5    5    0  503  0.79584703947E+02  0.61454222393E+02 -0.87041528810E+02  0.13307390537E+03  0.47000000000E+01 0.  1.
         11    1    6    6    0    0 -0.57688604257E+01 -0.62599763902E+00 -0.45865706315E+02  0.46231316653E+02  0.00000000000E+00 0. -1.
        -12    1    6    6    0    0 -0.44853921009E+02  0.82547516066E+02 -0.29544854718E+02  0.98482816160E+02  0.00000000000E+00 0.  1.
</event>
<event>
12    1  0.9017558E-003  0.2337050E+03  0.7818608E-02  0.1124164E+00
         21   -1    0    0  501  502  0.00000000000E+00  0.00000000000E+00  0.17320098189E+03  0.17320098189E+03  0.00000000000E+00 0.  1.
         21   -1    0    0  502  503 -0.00000000000E+00 -0.00000000000E+00 -0.42851584570E+03  0.42851584570E+03  0.00000000000E+00 0.  1.
          6    2    1    2  501    0  0.10403648304E+03 -0.11831683108E+03  0.27394222695E+02  0.23530506706E+03  0.17261392999E+03 0.  0.
         24    2    3    3    0    0 -0.12784728138E+02 -0.56927219611E+02 -0.55362822503E+01  0.99208087179E+02  0.80046464846E+02 0.  0.
         -6    2    1    2    0  503 -0.10403648304E+03  0.11831683108E+03 -0.28270908650E+03  0.36641176053E+03  0.17178675254E+03 0.  0.
        -24    2    5    5    0    0 -0.16349780254E+02  0.10466842894E+03 -0.22365803741E+03  0.25971427638E+03  0.78776851457E+02 0.  0.
          5    1    3    3  501    0  0.11682121117E+03 -0.61389611469E+02  0.32930504945E+02  0.13609697988E+03  0.47000000000E+01 0. -1.
        -11    1    4    4    0    0  0.26836030963E+00 -0.48649192314E+02  0.32259628180E+02  0.58373791554E+02  0.00000000000E+00 0.  1.
         12    1    4    4    0    0 -0.13053088448E+02 -0.82780272975E+01 -0.37795910431E+02  0.40834295626E+02  0.00000000000E+00 0. -1.
         -5    1    5    5    0  503 -0.87686702781E+02  0.13648402136E+02 -0.59051049083E+02  0.10669748415E+03  0.47000000000E+01 0.  1.
         11    1    6    6    0    0 -0.60239768633E+01 -0.11700016720E+02 -0.39420410030E+02  0.41558963118E+02  0.00000000000E+00 0. -1.
        -12    1    6    6    0    0 -0.10325803390E+02  0.11636844566E+03 -0.18423762738E+03  0.21815531327E+03  0.00000000000E+00 0.  1.
</event>
<event>
12    1  0.9017558E-003  0.3298699E+03  0.7818608E-02  0.1071484E+00
         21   -1    0    0  503  502  0.00000000000E+00  0.00000000000E+00  0.11955665166E+03  0.11955665166E+03  0.00000000000E+00 0. -1.
         21   -1    0    0  501  503 -0.00000000000E+00 -0.00000000000E+00 -0.98856289828E+03  0.98856289828E+03  0.00000000000E+00 0.  1.
          6    2    1    2  501    0 -0.28335413152E+02 -0.27727820609E+03 -0.59910751008E+03  0.68391807289E+03  0.17643135372E+03 0.  0.
         24    2    3    3    0    0 -0.34148619832E+02 -0.29081736858E+03 -0.59495210210E+03  0.66790371345E+03  0.79915558822E+02 0.  0.
         -6    2    1    2    0  502  0.28335413152E+02  0.27727820609E+03 -0.26989873654E+03  0.42420147705E+03  0.17150937565E+03 0.  0.
        -24    2    5    5    0    0 -0.42315587734E+02  0.21206404050E+03 -0.18575349770E+03  0.29634623649E+03  0.80962730541E+02 0.  0.
          5    1    3    3  501    0  0.58132066805E+01  0.13539162488E+02 -0.41554079824E+01  0.16014359440E+02  0.47000000000E+01 0. -1.
        -13    1    4    4    0    0 -0.43606601825E+01 -0.87981968676E+01 -0.75028767602E+02  0.75668616964E+02  0.00000000000E+00 0.  1.
         14    1    4    4    0    0 -0.29787959650E+02 -0.28201917171E+03 -0.51992333450E+03  0.59223509649E+03  0.00000000000E+00 0. -1.
         -5    1    5    5    0  502  0.70651000886E+02  0.65214165597E+02 -0.84145238841E+02  0.12785524057E+03  0.47000000000E+01 0.  1.
         11    1    6    6    0    0  0.26810171516E+01  0.14980384031E+03 -0.14857369638E+03  0.21100360585E+03  0.00000000000E+00 0. -1.
        -12    1    6    6    0    0 -0.44996604886E+02  0.62260200188E+02 -0.37179801315E+02  0.85342630640E+02  0.00000000000E+00 0.  1.
</event>
<event>
12    1  0.9017558E-003  0.2534065E+03  0.7818608E-02  0.1112248E+00
         21   -1    0    0  503  502  0.00000000000E+00  0.00000000000E+00  0.26027053358E+03  0.26027053358E+03  0.00000000000E+00 0.  1.
         21   -1    0    0  501  503 -0.00000000000E+00 -0.00000000000E+00 -0.25724327152E+03  0.25724327152E+03  0.00000000000E+00 0.  1.
          6    2    1    2  501    0  0.14355071091E+03  0.86341360226E+02 -0.65233466541E+02  0.26166821095E+03  0.19013997574E+03 0.  0.
         24    2    3    3    0    0  0.93280232059E+02  0.10740245258E+03 -0.10462357071E+03  0.19425633542E+03  0.80950255030E+02 0.  0.
         -6    2    1    2    0  502 -0.14355071091E+03 -0.86341360226E+02  0.68260728598E+02  0.25584559414E+03  0.18093038409E+03 0.  0.
        -24    2    5    5    0    0 -0.16705881903E+02  0.16103718126E+02  0.39365392542E+02  0.90190424679E+02  0.77757715670E+02 0.  0.
          5    1    3    3  501    0  0.50270478853E+02 -0.21061092356E+02  0.39390104172E+02  0.67411875526E+02  0.47000000000E+01 0. -1.
        -11    1    4    4    0    0  0.10489166006E+02  0.53296681366E+02 -0.71834650731E+02  0.90059846179E+02  0.00000000000E+00 0.  1.
         12    1    4    4    0    0  0.82791066053E+02  0.54105771216E+02 -0.32788919982E+02  0.10419648924E+03  0.00000000000E+00 0. -1.
         -5    1    5    5    0  502 -0.12684482901E+03 -0.10244507835E+03  0.28895336056E+02  0.16565516947E+03  0.47000000000E+01 0.  1.
         11    1    6    6    0    0 -0.99649733344E+01 -0.26284733436E+02 -0.48986340085E+01  0.28533918772E+02  0.00000000000E+00 0. -1.
        -12    1    6    6    0    0 -0.67409085684E+01  0.42388451562E+02  0.44264026551E+02  0.61656505907E+02  0.00000000000E+00 0.  1.
</event>
<event>
12    1  0.9017558E-003  0.2136465E+03  0.7818608E-02  0.1138870E+00
         21   -1    0    0  501  502  0.00000000000E+00  0.00000000000E+00  0.17331954297E+04  0.17331954297E+04  0.00000000000E+00 0.  1.
         21   -1    0    0  502  503 -0.00000000000E+00 -0.00000000000E+00 -0.33154181094E+02  0.33154181094E+02  0.00000000000E+00 0.  1.
          6    2    1    2  501    0  0.99204834403E+02  0.80297237618E+02  0.12522073523E+04  0.12701641370E+04  0.17030688854E+03 0.  0.
         24    2    3    3    0    0  0.12038384934E+02  0.94117837314E+02  0.73937054708E+03  0.74976748284E+03  0.80494611194E+02 0.  0.
         -6    2    1    2    0  503 -0.99204834403E+02 -0.80297237618E+02  0.44783389633E+03  0.49618547380E+03  0.17133470217E+03 0.  0.
        -24    2    5    5    0    0  0.17184684494E+01  0.29597747608E+01  0.21129639984E+03  0.22583510776E+03  0.79646807297E+02 0.  0.
          5    1    3    3  501    0  0.87166449469E+02 -0.13820599696E+02  0.51283680520E+03  0.52039665415E+03  0.47000000000E+01 0. -1.
        -11    1    4    4    0    0  0.21273623355E+02  0.65297904288E+02  0.67666274886E+03  0.68013885278E+03  0.00000000000E+00 0.  1.
         12    1    4    4    0    0 -0.92352384207E+01  0.28819933026E+02  0.62707798213E+02  0.69628630067E+02  0.00000000000E+00 0. -1.
         -5    1    5    5    0  503 -0.10092330285E+03 -0.83257012379E+02  0.23653749650E+03  0.27035036604E+03  0.47000000000E+01 0.  1.
         13    1    6    6    0    0 -0.15750767483E+02 -0.44724103518E+01  0.20526289496E+03  0.20591489791E+03  0.00000000000E+00 0. -1.
        -14    1    6    6    0    0  0.17469235932E+02  0.74321851127E+01  0.60335048736E+01  0.19920209855E+02  0.00000000000E+00 0.  1.
</event>
<event>
12    1  0.9017558E-003  0.2623197E+03  0.7818608E-02  0.1106168E+00
         21   -1    0    0  503  502  0.00000000000E+00  0.00000000000E+00  0.29373967653E+03  0.29373967653E+03  0.00000000000E+00 0. -1.
         21   -1    0    0  501  503 -0.00000000000E+00 -0.00000000000E+00 -0.33084415336E+03  0.33084415336E+03  0.00000000000E+00 0. -1.
          6    2    1    2  501    0 -0.64271019604E+02  0.18581988064E+03 -0.18933889532E+03  0.32129030921E+03  0.16946519851E+03 0.  0.
         24    2    3    3    0    0  0.14940755169E+02  0.48054634381E+02 -0.10350236571E+03  0.14061444432E+03  0.80791139313E+02 0.  0.
         -6    2    1    2    0  502  0.64271019604E+02 -0.18581988064E+03  0.15223441850E+03  0.30329352068E+03  0.17364287924E+03 0.  0.
        -24    2    5    5    0    0  0.92143403386E+01 -0.17227430070E+03  0.15460732492E+03  0.24635108174E+03  0.83797922459E+02 0.  0.
          5    1    3    3  501    0 -0.79211774773E+02  0.13776524626E+03 -0.85836529612E+02  0.18067586490E+03  0.47000000000E+01 0. -1.
        -13    1    4    4    0    0  0.17126499344E+02  0.27288010032E+02  0.27455281310E+01  0.32334043916E+02  0.00000000000E+00 0.  1.
         14    1    4    4    0    0 -0.21857441747E+01  0.20766624349E+02 -0.10624789384E+03  0.10828040040E+03  0.00000000000E+00 0. -1.
         -5    1    5    5    0  502  0.55056679266E+02 -0.13545579944E+02 -0.23729064193E+01  0.56942438942E+02  0.47000000000E+01 0.  1.
         13    1    6    6    0    0  0.44165571775E+02 -0.64264737165E+02  0.69693238180E+02  0.10458346725E+03  0.00000000000E+00 0. -1.
        -14    1    6    6    0    0 -0.34951231436E+02 -0.10800956353E+03  0.84914086736E+02  0.14176761450E+03  0.00000000000E+00 0.  1.
</event>
<event>
12    1  0.9017558E-003  0.1724118E+03  0.7818608E-02  0.1175520E+00
         21   -1    0    0  501  502  0.00000000000E+00  0.00000000000E+00  0.21173300073E+03  0.21173300073E+03  0.00000000000E+00 0.  1.
         21   -1    0    0  502  503 -0.00000000000E+00 -0.00000000000E+00 -0.21314807024E+03  0.21314807024E+03  0.00000000000E+00 0.  1.
          6    2    1    2  501    0  0.56196786395E+01 -0.12377526775E+02  0.12385316845E+03  0.21176615615E+03  0.17123233806E+03 0.  0.
         24    2    3    3    0    0 -0.42783243692E+02 -0.13909688397E+02  0.13365023251E+03  0.16213488704E+03  0.80009071818E+02 0.  0.
         -6    2    1    2    0  503 -0.56196786395E+01  0.12377526775E+02 -0.12526823796E+03  0.21311491482E+03  0.17187510442E+03 0.  0.
        -24    2    5    5    0    0 -0.41971665138E+02  0.50961207563E+02 -0.12171082556E+03  0.15977719338E+03  0.79728044709E+02 0.  0.
          5    1    3    3  501    0  0.48402922332E+02  0.15321616224E+01 -0.97970640588E+01  0.49631269112E+02  0.47000000000E+01 0. -1.
        -13    1    4    4    0    0 -0.22105296630E+01 -0.40804407581E+01  0.11715643530E+03  0.11724831244E+03  0.00000000000E+00 0.  1.
         14    1    4    4    0    0 -0.40572714029E+02 -0.98292476391E+01  0.16493797213E+02  0.44886574600E+02  0.00000000000E+00 0. -1.
         -5    1    5    5    0  503  0.36351986498E+02 -0.38583680788E+02 -0.35574123979E+01  0.53337721441E+02  0.47000000000E+01 0.  1.
         11    1    6    6    0    0 -0.38328900624E+02  0.34200013241E+02 -0.17656287159E+02  0.54318413130E+02  0.00000000000E+00 0. -1.
        -12    1    6    6    0    0 -0.36427645133E+01  0.16761194322E+02 -0.10405453840E+03  0.10545878025E+03  0.00000000000E+00 0.  1.
</event>
<event>
12    1  0.9017558E-003  0.2368331E+03  0.7818608E-02  0.1121956E+00
         21   -1    0    0  503  502  0.00000000000E+00  0.00000000000E+00  0.10350186336E+04  0.10350186336E+04  0.00000000000E+00 0.  1.
         21   -1    0    0  501  503 -0.00000000000E+00 -0.00000000000E+00 -0.54436378720E+02  0.54436378720E+02  0.00000000000E+00 0.  1.
          6    2    1    2  501    0  0.14524563845E+03  0.73764376345E+02  0.45013917481E+03  0.50854211449E+03  0.17161680221E+03 0.  0.
         24    2    3    3    0    0  0.28398457218E+02  0.86842161145E+02  0.26817941890E+03  0.29184939429E+03  0.70055941218E+02 0.  0.
         -6    2    1    2    0  502 -0.14524563845E+03 -0.73764376345E+02  0.53044308005E+03  0.58091289781E+03  0.17190827487E+03 0.  0.
        -24    2    5    5    0    0 -0.89521042323E+02  0.19780629125E+02  0.21094397861E+03  0.24333673680E+03  0.79436232660E+02 0.  0.
          5    1    3    3  501    0  0.11684718123E+03 -0.13077784800E+02  0.18195975592E+03  0.21669272021E+03  0.47000000000E+01 0. -1.
        -13    1    4    4    0    0  0.12371618454E+02  0.10693964382E+02  0.14653405913E+03  0.14744371232E+03  0.00000000000E+00 0.  1.
         14    1    4    4    0    0  0.16026838765E+02  0.76148196763E+02  0.12164535976E+03  0.14440568196E+03  0.00000000000E+00 0. -1.
         -5    1    5    5    0  502 -0.55724596125E+02 -0.93545005470E+02  0.31949910144E+03  0.33757616101E+03  0.47000000000E+01 0.  1.
         13    1    6    6    0    0  0.52112288728E+01  0.92041965408E+01 -0.13134008122E+01  0.10658290764E+02  0.00000000000E+00 0. -1.
        -14    1    6    6    0    0 -0.94732271196E+02  0.10576432584E+02  0.21225737942E+03  0.23267844604E+03  0.00000000000E+00 0.  1.
</event>
<event>
12    1  0.9017558E-003  0.1791363E+03  0.7818608E-02  0.1168965E+00
         21   -1    0    0  501  502  0.00000000000E+00  0.00000000000E+00  0.39017817561E+02  0.39017817561E+02  0.00000000000E+00 0. -1.
         21   -1    0    0  502  503 -0.00000000000E+00 -0.00000000000E+00 -0.88090076510E+03  0.88090076510E+03  0.00000000000E+00 0. -1.
          6    2    1    2  501    0 -0.48077198554E+02  0.86524345424E+01 -0.29789881402E+03  0.34761115511E+03  0.17234712099E+03 0.  0.
         24    2    3    3    0    0 -0.28394330356E+02  0.22775529346E+02 -0.30854446637E+03  0.32073557100E+03  0.79665902643E+02 0.  0.
         -6    2    1    2    0  503  0.48077198554E+02 -0.86524345424E+01 -0.54398413352E+03  0.57230742755E+03  0.17097009233E+03 0.  0.
        -24    2    5    5    0    0  0.96978802893E+02 -0.32693827504E+01 -0.39565870677E+03  0.41596528233E+03  0.84057877610E+02 0.  0.
          5    1    3    3  501    0 -0.19682868198E+02 -0.14123094804E+02  0.10645652345E+02  0.26875584108E+02  0.47000000000E+01 0. -1.
        -11    1    4    4    0    0 -0.53466364324E+02  0.24785384074E+02 -0.16996082782E+03  0.17988788278E+03  0.00000000000E+00 0.  1.
         12    1    4    4    0    0  0.25072033968E+02 -0.20098547280E+01 -0.13858363855E+03  0.14084768822E+03  0.00000000000E+00 0. -1.
         -5    1    5    5    0  503 -0.48901604339E+02 -0.53830517920E+01 -0.14832542675E+03  0.15634214522E+03  0.47000000000E+01 0.  1.
         13    1    6    6    0    0  0.36582508483E+02 -0.32503776494E+02 -0.26062077219E+03  0.26517534257E+03  0.00000000000E+00 0. -1.
        -14    1    6    6    0    0  0.60396294409E+02  0.29234393744E+02 -0.13503793458E+03  0.15078993976E+03  0.00000000000E+00 0.  1.
</event>
<event>
12    1  0.9017558E-003  0.2716634E+03  0.7818608E-02  0.1100403E+00
         21   -1    0    0  501  502  0.00000000000E+00  0.00000000000E+00  0.85335011514E+03  0.85335011514E+03  0.00000000000E+00 0.  1.
         21   -1    0    0  502  503 -0.00000000000E+00 -0.00000000000E+00 -0.90083624167E+02  0.90083624167E+02  0.00000000000E+00 0.  1.
          6    2    1    2  501    0  0.17485520904E+02 -0.20816052811E+03  0.47767148978E+03  0.54926942879E+03  0.17288812671E+03 0.  0.
         24    2    3    3    0    0 -0.16939301109E+02 -0.15232330483E+03  0.20795235426E+03  0.27164852551E+03  0.84020299065E+02 0.  0.
         -6    2    1    2    0  503 -0.17485520904E+02  0.20816052811E+03  0.28559500120E+03  0.39416431051E+03  0.17367915841E+03 0.  0.
        -24    2    5    5    0    0 -0.50431500809E+02  0.54213539327E+02  0.86466388390E+02  0.14027573773E+03  0.81965859696E+02 0.  0.
          5    1    3    3  501    0  0.34424822013E+02 -0.55837223286E+02  0.26971913552E+03  0.27762090329E+03  0.47000000000E+01 0. -1.
        -13    1    4    4    0    0 -0.51038925106E+02 -0.85436192529E+02  0.11233557705E+03  0.15007863519E+03  0.00000000000E+00 0.  1.
         14    1    4    4    0    0  0.34099623998E+02 -0.66887112299E+02  0.95616777210E+02  0.12156989032E+03  0.00000000000E+00 0. -1.
         -5    1    5    5    0  503  0.32945979904E+02  0.15394698879E+03  0.19912861281E+03  0.25388857278E+03  0.47000000000E+01 0.  1.
         13    1    6    6    0    0 -0.56636626461E+00 -0.20258850002E+02  0.10708597958E+02  0.22921951147E+02  0.00000000000E+00 0. -1.
        -14    1    6    6    0    0 -0.49865134544E+02  0.74472389329E+02  0.75757790431E+02  0.11735378659E+03  0.00000000000E+00 0.  1.
</event>
<event>
12    1  0.9017558E-003  0.2732864E+03  0.7818608E-02  0.1099520E+00
         21   -1    0    0  503  502  0.00000000000E+00  0.00000000000E+00  0.92964026248E+03  0.92964026248E+03  0.00000000000E+00 0. -1.
         21   -1    0    0  501  503 -0.00000000000E+00 -0.00000000000E+00 -0.85377654966E+02  0.85377654966E+02  0.00000000000E+00 0. -1.
          6    2    1    2  501    0 -0.17957735065E+03  0.11136212496E+03  0.29668110382E+03  0.40336726871E+03  0.17330876595E+03 0.  0.
         24    2    3    3    0    0 -0.74386470466E+02  0.68400110497E+01  0.61969982685E+02  0.12569589107E+03  0.79868927245E+02 0.  0.
         -6    2    1    2    0  502  0.17957735065E+03 -0.11136212496E+03  0.54758150369E+03  0.61165064874E+03  0.17210887594E+03 0.  0.
        -24    2    5    5    0    0  0.99349930298E+02 -0.87467140633E+02  0.47931323896E+03  0.50353009000E+03  0.79249360607E+02 0.  0.
          5    1    3    3  501    0 -0.10519088018E+03  0.10452211391E+03  0.23471112114E+03  0.27767137763E+03  0.47000000000E+01 0. -1.
        -13    1    4    4    0    0 -0.52789695299E+02 -0.30040330743E+02  0.55865729812E+02  0.82523652175E+02  0.00000000000E+00 0.  1.
         14    1    4    4    0    0 -0.21596775167E+02  0.36880341793E+02  0.61042528736E+01  0.43172238899E+02  0.00000000000E+00 0. -1.
         -5    1    5    5    0  502  0.80227420352E+02 -0.23894984327E+02  0.68268264736E+02  0.10812055874E+03  0.47000000000E+01 0.  1.
         13    1    6    6    0    0  0.92210385650E+02 -0.34989308693E+02  0.26464286583E+03  0.28242318138E+03  0.00000000000E+00 0. -1.
        -14    1    6    6    0    0  0.71395446481E+01 -0.52477831940E+02  0.21467037312E+03  0.22110690862E+03  0.00000000000E+00 0.  1.
</event>
<event>
12    1  0.9017558E-003  0.2520298E+03  0.7818608E-02  0.1112180E+00
         21   -1    0    0  501  502  0.00000000000E+00  0.00000000000E+00  0.11069558274E+03  0.11069558274E+03  0.00000000000E+00 0.  1.
         21   -1    0    0  502  503 -0.00000000000E+00 -0.00000000000E+00 -0.58130608077E+03  0.58130608077E+03  0.00000000000E+00 0.  1.
          6    2    1    2  501    0  0.85529989389E+02 -0.16241201426E+03 -0.19108141923E+03  0.31627697421E+03  0.17270198081E+03 0.  0.
         24    2    3    3    0    0  0.45688746862E+02 -0.17969285077E+03 -0.13617801498E+03  0.24611697339E+03  0.87476457508E+02 0.  0.
         -6    2    1    2    0  503 -0.85529989389E+02  0.16241201426E+03 -0.27952907880E+03  0.37572468931E+03  0.17128775439E+03 0.  0.
        -24    2    5    5    0    0 -0.12760908904E+02  0.36089101355E+02 -0.17493492810E+03  0.19623974911E+03  0.80265472197E+02 0.  0.
          5    1    3    3  501    0  0.39841242527E+02  0.17280836507E+02 -0.54903404251E+02  0.70160000818E+02  0.47000000000E+01 0. -1.
        -13    1    4    4    0    0 -0.16507701426E+02 -0.88891981156E+02 -0.36076860014E+02  0.97343866518E+02  0.00000000000E+00 0.  1.
         14    1    4    4    0    0  0.62196448288E+02 -0.90800869614E+02 -0.10010115496E+03  0.14877310687E+03  0.00000000000E+00 0. -1.
         -5    1    5    5    0  503 -0.72769080485E+02  0.12632291291E+03 -0.10459415070E+03  0.17948494021E+03  0.47000000000E+01 0.  1.
         13    1    6    6    0    0  0.19309658589E+01  0.16369796387E+02  0.28795745898E+01  0.16732926006E+02  0.00000000000E+00 0. -1.
        -14    1    6    6    0    0 -0.14691874762E+02  0.19719304968E+02 -0.17781450269E+03  0.17950682310E+03  0.00000000000E+00 0.  1.
</event>
<event>
12    1  0.9017558E-003  0.3024420E+03  0.7818608E-02  0.1084473E+00
         21   -1    0    0  503  502  0.00000000000E+00  0.00000000000E+00  0.14329099893E+03  0.14329099893E+03  0.00000000000E+00 0.  1.
         21   -1    0    0  501  503 -0.00000000000E+00 -0.00000000000E+00 -0.65408692018E+03  0.65408692018E+03  0.00000000000E+00 0.  1.
          6    2    1    2  501    0 -0.12684111846E+03 -0.20910202549E+03 -0.33209667103E+03  0.44917633143E+03  0.17792934387E+03 0.  0.
         24    2    3    3    0    0 -0.49496720529E+02 -0.10455302331E+03 -0.24616130570E+03  0.29322881858E+03  0.10957413745E+03 0.  0.
         -6    2    1    2    0  502  0.12684111846E+03  0.20910202549E+03 -0.17869925022E+03  0.34820158768E+03  0.17175155672E+03 0.  0.
        -24    2    5    5    0    0  0.11240119017E+03  0.76276034252E+02 -0.13433475415E+03  0.20734153660E+03  0.80576830882E+02 0.  0.
          5    1    3    3  501    0 -0.77344397927E+02 -0.10454900218E+03 -0.85935365334E+02  0.15594751285E+03  0.47000000000E+01 0. -1.
        -13    1    4    4    0    0  0.21542703135E+02 -0.61706823137E+02 -0.16366493247E+03  0.17623288626E+03  0.00000000000E+00 0.  1.
         14    1    4    4    0    0 -0.71039423664E+02 -0.42846200171E+02 -0.82496373227E+02  0.11699593232E+03  0.00000000000E+00 0. -1.
         -5    1    5    5    0  502  0.14439928288E+02  0.13282599124E+03 -0.44364496073E+02  0.14086005108E+03  0.47000000000E+01 0.  1.
         13    1    6    6    0    0  0.16250295610E+02 -0.17127580488E+02 -0.15875215322E+02  0.28450809870E+02  0.00000000000E+00 0. -1.
        -14    1    6    6    0    0  0.96150894558E+02  0.93403614739E+02 -0.11845953883E+03  0.17889072673E+03  0.00000000000E+00 0.  1.
</event>
<event>
12    1  0.9017558E-003  0.1932349E+03  0.7818608E-02  0.1155682E+00
         21   -1    0    0  503  502  0.00000000000E+00  0.00000000000E+00  0.11185688121E+03  0.11185688121E+03  0.00000000000E+00 0.  1.
         21   -1    0    0  501  503 -0.00000000000E+00 -0.00000000000E+00 -0.37499281372E+03  0.37499281372E+03  0.00000000000E+00 0.  1.
          6    2    1    2  501    0  0.76393733368E+02  0.43403066623E+02 -0.21318821017E+03  0.28773069261E+03  0.17210435736E+03 0.  0.
         24    2    3    3    0    0  0.10244527255E+03  0.38766801768E+02 -0.22150491013E+03  0.25959823549E+03  0.79554508802E+02 0.  0.
         -6    2    1    2    0  502 -0.76393733368E+02 -0.43403066623E+02 -0.49947722342E+02  0.19911900231E+03  0.17156273904E+03 0.  0.
        -24    2    5    5    0    0 -0.90823260845E+02 -0.77520275088E+02 -0.65553144543E+02  0.15864908288E+03  0.81326865060E+02 0.  0.
          5    1    3    3  501    0 -0.26051539177E+02  0.46362648557E+01  0.83166999612E+01  0.28132457119E+02  0.47000000000E+01 0. -1.
        -11    1    4    4    0    0  0.66562588992E+02  0.42161387263E+01 -0.57057387070E+02  0.87771860515E+02  0.00000000000E+00 0.  1.
         12    1    4    4    0    0  0.35882683553E+02  0.34550663041E+02 -0.16444752306E+03  0.17182637498E+03  0.00000000000E+00 0. -1.
         -5    1    5    5    0  502  0.14429527477E+02  0.34117208464E+02  0.15605422201E+02  0.40469919430E+02  0.47000000000E+01 0.  1.
         11    1    6    6    0    0 -0.19891128043E+02  0.16697541834E+02 -0.65736095067E+01  0.26789498317E+02  0.00000000000E+00 0. -1.
        -12    1    6    6    0    0 -0.70932132802E+02 -0.94217816921E+02 -0.58979535036E+02  0.13185958457E+03  0.00000000000E+00 0.  1.
</event>
<event>
12    1  0.9017558E-003  0.2881284E+03  0.7818608E-02  0.1091339E+00
         21   -1    0    0  501  502  0.00000000000E+00  0.00000000000E+00  0.28494098662E+03  0.28494098662E+03  0.00000000000E+00 0.  1.
         21   -1    0    0  502  503 -0.00000000000E+00 -0.00000000000E+00 -0.29890021890E+03  0.29890021890E+03  0.00000000000E+00 0. -1.
          6    2    1    2  501    0  0.20642584875E+03 -0.10441520839E+03 -0.53571512703E+02  0.29306631033E+03  0.17176666877E+03 0.  0.
         24    2    3    3    0    0  0.15525583457E+03 -0.12326774172E+03  0.38475440305E+01  0.21373897305E+03  0.79813749993E+02 0.  0.
         -6    2    1    2    0  503 -0.20642584875E+03  0.10441520839E+03  0.39612280432E+02  0.29077489519E+03  0.17165878986E+03 0.  0.
        -24    2    5    5    0    0 -0.13182013296E+03  0.51491155545E+02  0.91207692072E+02  0.18565047034E+03  0.78226386161E+02 0.  0.
          5    1    3    3  501    0  0.51170014179E+02  0.18852533327E+02 -0.57419056733E+02  0.79327337281E+02  0.47000000000E+01 0. -1.
        -11    1    4    4    0    0  0.14740520028E+03 -0.13464211299E+03  0.61062846627E+01  0.19973502040E+03  0.00000000000E+00 0.  1.
         12    1    4    4    0    0  0.78506342905E+01  0.11374371273E+02 -0.22587406322E+01  0.14003952652E+02  0.00000000000E+00 0. -1.
         -5    1    5    5    0  503 -0.74605715795E+02  0.52924052844E+02 -0.51595411640E+02  0.10512442485E+03  0.47000000000E+01 0.  1.
         13    1    6    6    0    0 -0.12746760978E+03  0.23569161433E+02  0.57904265005E+02  0.14197323980E+03  0.00000000000E+00 0. -1.
        -14    1    6    6    0    0 -0.43525231782E+01  0.27921994112E+02  0.33303427067E+02  0.43677230540E+02  0.00000000000E+00 0.  1.
</event>
<event>
12    1  0.9017558E-003  0.2135095E+03  0.7818608E-02  0.1139227E+00
         21   -1    0    0  503  502  0.00000000000E+00  0.00000000000E+00  0.12124474917E+03  0.12124474917E+03  0.00000000000E+00 0.  1.
         21   -1    0    0  501  503 -0.00000000000E+00 -0.00000000000E+00 -0.80494560384E+03  0.80494560384E+03  0.00000000000E+00 0.  1.
          6    2    1    2  501    0 -0.12512042864E+03 -0.22007495013E+02 -0.68058162779E+03  0.71265805260E+03  0.16896951309E+03 0.  0.
         24    2    3    3    0    0 -0.34069706668E+02  0.28363538290E+02 -0.45642531034E+03  0.46548277143E+03  0.79905640385E+02 0.  0.
         -6    2    1    2    0  502  0.12512042864E+03  0.22007495013E+02 -0.31192268854E+01  0.21353230041E+03  0.17160088066E+03 0.  0.
        -24    2    5    5    0    0  0.77469222818E+02  0.75876965632E+02 -0.22783119207E+02  0.13882409509E+03  0.83631719213E+02 0.  0.
          5    1    3    3  501    0 -0.91050721976E+02 -0.50371033303E+02 -0.22415631745E+03  0.24717528117E+03  0.47000000000E+01 0. -1.
        -11    1    4    4    0    0 -0.48729738312E+02 -0.10489580547E+02 -0.24626342684E+03  0.25125742595E+03  0.00000000000E+00 0.  1.
         12    1    4    4    0    0  0.14660031644E+02  0.38853118837E+02 -0.21016188349E+03  0.21422534548E+03  0.00000000000E+00 0. -1.
         -5    1    5    5    0  502  0.47651205825E+02 -0.53869470619E+02  0.19663892322E+02  0.74708205323E+02  0.47000000000E+01 0.  1.
         13    1    6    6    0    0  0.58595534364E+02  0.36972881870E+02 -0.52008671469E+02  0.86633322395E+02  0.00000000000E+00 0. -1.
        -14    1    6    6    0    0  0.18873688453E+02  0.38904083763E+02  0.29225552262E+02  0.52190772693E+02  0.00000000000E+00 0.  1.
</event>
<event>
12    1  0.9017558E-003  0.2792069E+03  0.7818608E-02  0.1096126E+00
         21   -1    0    0  503  502  0.00000000000E+00  0.00000000000E+00  0.39602071678E+03  0.39602071678E+03  0.00000000000E+00 0. -1.
         21   -1    0    0  501  503 -0.00000000000E+00 -0.00000000000E+00 -0.21084654705E+03  0.21084654705E+03  0.00000000000E+00 0.  1.
          6    2    1    2  501    0  0.25889405670E+02  0.21788318440E+03  0.17081515477E+03  0.32729133339E+03  0.17262229417E+03 0.  0.
         24    2    3    3    0    0  0.65585010969E+02  0.19160555226E+03  0.96051717476E+02  0.23853370506E+03  0.81598496911E+02 0.  0.
         -6    2    1    2    0  502 -0.25889405670E+02 -0.21788318440E+03  0.14359014963E+02  0.27957593044E+03  0.17266492463E+03 0.  0.
        -24    2    5    5    0    0 -0.18641812044E+02 -0.24036112348E+03  0.92436877852E+01  0.25495801155E+03  0.82444860684E+02 0.  0.
          5    1    3    3  501    0 -0.39695605299E+02  0.26277632142E+02  0.74763437298E+02  0.88757628335E+02  0.47000000000E+01 0. -1.
        -13    1    4    4    0    0  0.15657644170E+02  0.58252343956E+02 -0.97942632627E+01  0.61109941828E+02  0.00000000000E+00 0.  1.
         14    1    4    4    0    0  0.49927366799E+02  0.13335320830E+03  0.10584598074E+03  0.17742376323E+03  0.00000000000E+00 0. -1.
         -5    1    5    5    0  502 -0.72475936263E+01  0.22477939073E+02  0.51153271780E+01  0.24617918890E+02  0.47000000000E+01 0.  1.
         11    1    6    6    0    0 -0.58371440517E+01  0.47475715005E+01 -0.51107591168E+01  0.90956882413E+01  0.00000000000E+00 0. -1.
        -12    1    6    6    0    0 -0.12804667992E+02 -0.24510869498E+03  0.14354446902E+02  0.24586232331E+03  0.00000000000E+00 0.  1.
</event>
<event>
12    1  0.9017558E-003  0.1733898E+03  0.7818608E-02  0.1174521E+00
         21   -1    0    0  501  502  0.00000000000E+00  0.00000000000E+00  0.64118870611E+02  0.64118870611E+02  0.00000000000E+00 0. -1.
         21   -1    0    0  502  503 -0.00000000000E+00 -0.00000000000E+00 -0.47739445159E+03  0.47739445159E+03  0.00000000000E+00 0. -1.
          6    2    1    2  501    0 -0.56067954735E+01  0.19540371768E+01 -0.24591521124E+03  0.30052887288E+03  0.17265010251E+03 0.  0.
         24    2    3    3    0    0 -0.70021122913E+02  0.86344425447E+01 -0.15923543689E+03  0.19222694918E+03  0.81349642759E+02 0.  0.
         -6    2    1    2    0  503  0.56067954735E+01 -0.19540371768E+01 -0.16736036974E+03  0.24098444932E+03  0.17328807530E+03 0.  0.
        -24    2    5    5    0    0 -0.16857595302E+02 -0.64919435897E+02 -0.12260647904E+03  0.16039728520E+03  0.78716127445E+02 0.  0.
          5    1    3    3  501    0  0.64414327440E+02 -0.66804053679E+01 -0.86679774352E+02  0.10830192370E+03  0.47000000000E+01 0. -1.
        -11    1    4    4    0    0 -0.38392227743E+02  0.41617220759E+02 -0.11709144568E+03  0.13006291888E+03  0.00000000000E+00 0.  1.
         12    1    4    4    0    0 -0.31628895170E+02 -0.32982778214E+02 -0.42143991205E+02  0.62164030300E+02  0.00000000000E+00 0. -1.
         -5    1    5    5    0  503  0.22464390775E+02  0.62965398720E+02 -0.44753890701E+02  0.80587164126E+02  0.47000000000E+01 0.  1.
         11    1    6    6    0    0  0.97305231338E+01  0.56540458275E+01 -0.63742998491E+02  0.64728827977E+02  0.00000000000E+00 0. -1.
        -12    1    6    6    0    0 -0.26588118436E+02 -0.70573481725E+02 -0.58863480545E+02  0.95668457219E+02  0.00000000000E+00 0.  1.
</event>
<event>
12    1  0.9017558E-003  0.2005826E+03  0.7818608E-02  0.1149494E+00
         21   -1    0    0  501  502  0.00000000000E+00  0.00000000000E+00  0.38311236745E+03  0.38311236745E+03  0.00000000000E+00 0.  1.
         21   -1    0    0  502  503 -0.00000000000E+00 -0.00000000000E+00 -0.10650283744E+03  0.10650283744E+03  0.00000000000E+00 0.  1.
          6    2    1    2  501    0 -0.59668659377E+02  0.82473642921E+02  0.17223435847E+03  0.26350113149E+03  0.17148154819E+03 0.  0.
         24    2    3    3    0    0 -0.88080705805E+02  0.64500326613E+02  0.17652042261E+03  0.22928498286E+03  0.97435316485E+02 0.  0.
         -6    2    1    2    0  503  0.59668659377E+02 -0.82473642921E+02  0.10437517153E+03  0.22611407340E+03  0.17283271411E+03 0.  0.
        -24    2    5    5    0    0 -0.71520303806E+01 -0.37736412790E+02  0.11507453614E+03  0.14485528469E+03  0.79156277367E+02 0.  0.
          5    1    3    3  501    0  0.28412046428E+02  0.17973316309E+02 -0.42860641380E+01  0.34216148631E+02  0.47000000000E+01 0. -1.
        -13    1    4    4    0    0 -0.68732392968E+02  0.18772243629E+02  0.35150229924E+02  0.79448584869E+02  0.00000000000E+00 0.  1.
         14    1    4    4    0    0 -0.19348312837E+02  0.45728082984E+02  0.14137019269E+03  0.14983639799E+03  0.00000000000E+00 0. -1.
         -5    1    5    5    0  503  0.66820689758E+02 -0.44737230132E+02 -0.10699364604E+02  0.81258788709E+02  0.47000000000E+01 0.  1.
         11    1    6    6    0    0  0.12532806930E+02 -0.54459444892E+02  0.10102777697E+03  0.11545351492E+03  0.00000000000E+00 0. -1.
        -12    1    6    6    0    0 -0.19684837311E+02  0.16723032102E+02  0.14046759169E+02  0.29401769773E+02  0.00000000000E+00 0.  1.
</event>
<event>
12    1  0.9017558E-003  0.2911384E+03  0.7818608E-02  0.1089827E+00
         21   -1    0    0  503  502  0.00000000000E+00  0.00000000000E+00  0.68020687989E+02  0.68020687989E+02  0.00000000000E+00 0. -1.
         21   -1    0    0  501  503 -0.00000000000E+00 -0.00000000000E+00 -0.13915851155E+04  0.13915851155E+04  0.00000000000E+00 0.  1.
          6    2    1    2  501    0  0.21308145386E+03  0.98498223768E+02 -0.89907269355E+03  0.94486821816E+03  0.17128524551E+03 0.  0.
         24    2    3    3    0    0  0.20193424553E+03  0.10984039480E+03 -0.61259109748E+03  0.65790707099E+03  0.68785968752E+02 0.  0.
         -6    2    1    2    0  502 -0.21308145386E+03 -0.98498223768E+02 -0.42449173400E+03  0.51473758537E+03  0.17220901107E+03 0.  0.
        -24    2    5    5    0    0 -0.13486799444E+03 -0.49286798556E+02 -0.15250507181E+03  0.22744340859E+03  0.88623601519E+02 0.  0.
          5    1    3    3  501    0  0.11147208329E+02 -0.11342171028E+02 -0.28648159607E+03  0.28696114717E+03  0.47000000000E+01 0. -1.
        -13    1    4    4    0    0  0.11818726000E+03  0.32866573430E+02 -0.26137413304E+03  0.28872976552E+03  0.00000000000E+00 0.  1.
         14    1    4    4    0    0  0.83746985530E+02  0.76973821365E+02 -0.35121696444E+03  0.36917730547E+03  0.00000000000E+00 0. -1.
         -5    1    5    5    0  502 -0.78213459428E+02 -0.49211425212E+02 -0.27198666219E+03  0.28729417678E+03  0.47000000000E+01 0.  1.
         11    1    6    6    0    0 -0.59854629874E+02 -0.65325157829E+02 -0.58761231577E+02  0.10631479342E+03  0.00000000000E+00 0. -1.
        -12    1    6    6    0    0 -0.75013364562E+02  0.16038359273E+02 -0.93743840238E+02  0.12112861517E+03  0.00000000000E+00 0.  1.
</event>
<event>
12    1  0.9017558E-003  0.1766218E+03  0.7818608E-02  0.1171134E+00
         21   -1    0    0  501  502  0.00000000000E+00  0.00000000000E+00  0.13645984253E+04  0.13645984253E+04  0.00000000000E+00 0.  1.
         21   -1    0    0  502  503 -0.00000000000E+00 -0.00000000000E+00 -0.26963095996E+02  0.26963095996E+02  0.00000000000E+00 0.  1.
          6    2    1    2  501    0  0.35115692343E+02 -0.25898551347E+02  0.39692542363E+03  0.43441452234E+03  0.17106238187E+03 0.  0.
         24    2    3    3    0    0 -0.70415948007E+00  0.45847421862E+02  0.25643966638E+03  0.27258472149E+03  0.80241173738E+02 0.  0.
         -6    2    1    2    0  503 -0.35115692343E+02  0.25898551347E+02  0.94070990563E+03  0.95714699890E+03  0.17114731710E+03 0.  0.
        -24    2    5    5    0    0 -0.45469537754E+02  0.16878049706E+02  0.25653073171E+03  0.27281389026E+03  0.79164733187E+02 0.  0.
          5    1    3    3  501    0  0.35819851823E+02 -0.71745973209E+02  0.14048575725E+03  0.16182980086E+03  0.47000000000E+01 0. -1.
        -13    1    4    4    0    0  0.21852171973E+02  0.22262473784E+02  0.28288940793E+02  0.42111748125E+02  0.00000000000E+00 0.  1.
         14    1    4    4    0    0 -0.22556331453E+02  0.23584948078E+02  0.22815072559E+03  0.23047297336E+03  0.00000000000E+00 0. -1.
         -5    1    5    5    0  503  0.10353845411E+02  0.90205016415E+01  0.68417917392E+03  0.68433310865E+03  0.47000000000E+01 0.  1.
         11    1    6    6    0    0  0.19052245429E+02  0.11046930703E+02  0.30093424285E+02  0.37291244536E+02  0.00000000000E+00 0. -1.
        -12    1    6    6    0    0 -0.64521783183E+02  0.58311190025E+01  0.22643730742E+03  0.23552264572E+03  0.00000000000E+00 0.  1.
</event>
<event>
12    1  0.9017558E-003  0.2864105E+03  0.7818608E-02  0.1092314E+00
         21   -1    0    0  501  502  0.00000000000E+00  0.00000000000E+00  0.27641345607E+03  0.27641345607E+03  0.00000000000E+00 0.  1.
         21   -1    0    0  502  503 -0.00000000000E+00 -0.00000000000E+00 -0.29663973417E+03  0.29663973417E+03  0.00000000000E+00 0.  1.
          6    2    1    2  501    0  0.21140459711E+03  0.87825935924E+02  0.12262563454E+01  0.28584035389E+03  0.17116630949E+03 0.  0.
         24    2    3    3    0    0  0.20526464483E+03  0.79096583419E+02  0.46914998940E+02  0.23868686187E+03  0.79878388702E+02 0.  0.
         -6    2    1    2    0  503 -0.21140459711E+03 -0.87825935924E+02 -0.21452534453E+02  0.28721283635E+03  0.17212118821E+03 0.  0.
        -24    2    5    5    0    0 -0.37958891326E+02 -0.10757862926E+02  0.25325932268E+02  0.91679678857E+02  0.78785478514E+02 0.  0.
          5    1    3    3  501    0  0.61399522887E+01  0.87293525047E+01 -0.45688742594E+02  0.47153492014E+02  0.47000000000E+01 0. -1.
        -13    1    4    4    0    0  0.18992285373E+03  0.42917037103E+02  0.40237915220E+02  0.19882568311E+03  0.00000000000E+00 0.  1.
         14    1    4    4    0    0  0.15341791098E+02  0.36179546315E+02  0.66770837192E+01  0.39861178767E+02  0.00000000000E+00 0. -1.
         -5    1    5    5    0  503 -0.17344570579E+03 -0.77068072998E+02 -0.46778466721E+02  0.19553315750E+03  0.47000000000E+01 0.  1.
         11    1    6    6    0    0 -0.11106882272E+02  0.33871396761E+02  0.61234721466E+01  0.36168097316E+02  0.00000000000E+00 0. -1.
        -12    1    6    6    0    0 -0.26852009054E+02 -0.44629259687E+02  0.19202460122E+02  0.55511581541E+02  0.00000000000E+00 0.  1.
</event>
<event>
12    1  0.9017558E-003  0.1867104E+03  0.7818608E-02  0.1161591E+00
         21   -1    0    0  501  502  0.00000000000E+00  0.00000000000E+00  0.34803025171E+03  0.34803025171E+03  0.00000000000E+00 0. -1.
         21   -1    0    0  502  503 -0.00000000000E+00 -0.00000000000E+00 -0.10481828494E+03  0.10481828494E+03  0.00000000000E+00 0. -1.
          6    2    1    2  501    0 -0.48342893979E+02 -0.56008402317E+02  0.72219995570E+02  0.19967071035E+03  0.17081770483E+03 0.  0.
         24    2    3    3    0    0  0.17654641490E+02  0.90196119859E+01 -0.15997607144E+01  0.81113704020E+02  0.78637357401E+02 0.  0.
         -6    2    1    2    0  503  0.48342893979E+02  0.56008402317E+02  0.17099197120E+03  0.25317782630E+03  0.17142573023E+03 0.  0.
        -24    2    5    5    0    0  0.20825174756E+02 -0.32209552832E+02  0.52573731973E+02  0.10289608468E+03  0.79702344706E+02 0.  0.
          5    1    3    3  501    0 -0.65997535469E+02 -0.65028014303E+02  0.73819756285E+02  0.11855700633E+03  0.47000000000E+01 0. -1.
        -13    1    4    4    0    0 -0.22673932575E+02  0.13085936705E+02  0.22013173587E+02  0.34204221512E+02  0.00000000000E+00 0.  1.
         14    1    4    4    0    0  0.40328574065E+02 -0.40663247186E+01 -0.23612934301E+02  0.46909482508E+02  0.00000000000E+00 0. -1.
         -5    1    5    5    0  503  0.27517719223E+02  0.88217955149E+02  0.11841823922E+03  0.15028174162E+03  0.47000000000E+01 0.  1.
         11    1    6    6    0    0 -0.26256800379E+01  0.97599164019E+01  0.53861970544E+02  0.54802025827E+02  0.00000000000E+00 0. -1.
        -12    1    6    6    0    0  0.23450854794E+02 -0.41969469234E+02 -0.12882385713E+01  0.48094058853E+02  0.00000000000E+00 0.  1.
</event>
<event>
12    1  0.9017558E-003  0.2755161E+03  0.7818608E-02  0.1098264E+00
         21   -1    0    0  503  502  0.00000000000E+00  0.00000000000E+00  0.61440984139E+03  0.61440984139E+03  0.00000000000E+00 0. -1.
         21   -1    0    0  501  503 -0.00000000000E+00 -0.00000000000E+00 -0.21510578602E+03  0.21510578602E+03  0.00000000000E+00 0.  1.
          6    2    1    2  501    0 -0.20798146407E+03 -0.55655296883E+02 -0.71268013841E+02  0.28458438156E+03  0.17191666284E+03 0.  0.
         24    2    3    3    0    0 -0.19911135647E+03 -0.67133902643E+02 -0.13566737784E+02  0.22490218607E+03  0.79023058444E+02 0.  0.
         -6    2    1    2    0  502  0.20798146407E+03  0.55655296883E+02  0.47057206921E+03  0.54493124585E+03  0.17075769065E+03 0.  0.
        -24    2    5    5    0    0  0.78592986894E+02  0.17379203631E+02  0.10370162123E+03  0.15400612138E+03  0.80529279577E+02 0.  0.
          5    1    3    3  501    0 -0.88701075963E+01  0.11478605759E+02 -0.57701276057E+02  0.59682195482E+02  0.47000000000E+01 0. -1.
        -13    1    4    4    0    0 -0.60201520187E+02 -0.44573868982E+02 -0.34771120961E+02  0.82583797937E+02  0.00000000000E+00 0.  1.
         14    1    4    4    0    0 -0.13890983629E+03 -0.22560033661E+02  0.21204383177E+02  0.14231838814E+03  0.00000000000E+00 0. -1.
         -5    1    5    5    0  502  0.12938847718E+03  0.38276093252E+02  0.36687044799E+03  0.39092512448E+03  0.47000000000E+01 0.  1.
         13    1    6    6    0    0  0.29293537194E+02  0.14581562103E+02  0.99159305286E+02  0.10441887329E+03  0.00000000000E+00 0. -1.
        -14    1    6    6    0    0  0.49299449700E+02  0.27976415276E+01  0.45423159430E+01  0.49587248088E+02  0.00000000000E+00 0.  1.
</event>
<event>
12    1  0.9017558E-003  0.1722052E+03  0.7818608E-02  0.1175597E+00
         21   -1    0    0  501  502  0.00000000000E+00  0.00000000000E+00  0.15396289736E+03  0.15396289736E+03  0.00000000000E+00 0. -1.
         21   -1    0    0  502  503 -0.00000000000E+00 -0.00000000000E+00 -0.20280482021E+03  0.20280482021E+03  0.00000000000E+00 0. -1.
          6    2    1    2  501    0  0.80116837716E+01 -0.10441351616E+02  0.15823488071E+02  0.17293065342E+03  0.17170154110E+03 0.  0.
         24    2    3    3    0    0  0.69962722708E+02 -0.22823621002E+02  0.13328323778E+02  0.10953059297E+03  0.80022536432E+02 0.  0.
         -6    2    1    2    0  503 -0.80116837716E+01  0.10441351616E+02 -0.64665410923E+02  0.18383706415E+03  0.17158450363E+03 0.  0.
        -24    2    5    5    0    0 -0.56371890576E+02 -0.28397050115E+01 -0.85010747119E+02  0.12951286354E+03  0.79755255160E+02 0.  0.
          5    1    3    3  501    0 -0.61951038936E+02  0.12382269385E+02  0.24951642932E+01  0.63400060452E+02  0.47000000000E+01 0. -1.
        -11    1    4    4    0    0  0.31545238442E+02 -0.31754519369E+02 -0.27684487710E+02  0.52629672509E+02  0.00000000000E+00 0.  1.
         12    1    4    4    0    0  0.38417484266E+02  0.89308983672E+01  0.41012811488E+02  0.56900920459E+02  0.00000000000E+00 0. -1.
         -5    1    5    5    0  503  0.48360206804E+02  0.13281056628E+02  0.20345336196E+02  0.54324200613E+02  0.47000000000E+01 0.  1.
         11    1    6    6    0    0 -0.34519457191E+02 -0.37727575302E+02 -0.25475867542E+02  0.57131275935E+02  0.00000000000E+00 0. -1.
        -12    1    6    6    0    0 -0.21852433384E+02  0.34887870291E+02 -0.59534879577E+02  0.72381587607E+02  0.00000000000E+00 0.  1.
</event>
<event>
12    1  0.9017558E-003  0.1764735E+03  0.7818608E-02  0.1171278E+00
         21   -1    0    0  501  502  0.00000000000E+00  0.00000000000E+00  0.23454857796E+02  0.23454857796E+02  0.00000000000E+00 0.  1.
         21   -1    0    0  502  503 -0.00000000000E+00 -0.00000000000E+00 -0.13516677449E+04  0.13516677449E+04  0.00000000000E+00 0.  1.
          6    2    1    2  501    0 -0.26277979540E+02  0.29990151763E+02 -0.75665780045E+03  0.77696455840E+03  0.17190973394E+03 0.  0.
         24    2    3    3    0    0  0.32911784146E+02 -0.12133391849E+02 -0.56829627338E+03  0.57502403267E+03  0.80383947913E+02 0.  0.
         -6    2    1    2    0  503  0.26277979540E+02 -0.29990151763E+02 -0.57155508670E+03  0.59815804434E+03  0.17183680474E+03 0.  0.
        -24    2    5    5    0    0 -0.12961373967E+02  0.39203852734E+02 -0.37372511110E+03  0.38488280816E+03  0.82215436899E+02 0.  0.
          5    1    3    3  501    0 -0.59189763686E+02  0.42123543612E+02 -0.18836152707E+03  0.20194052573E+03  0.47000000000E+01 0. -1.
        -11    1    4    4    0    0  0.30766476091E+02  0.97517954585E+01 -0.52907727311E+03  0.53006078377E+03  0.00000000000E+00 0.  1.
         12    1    4    4    0    0  0.21453080544E+01 -0.21885187308E+02 -0.39219000268E+02  0.44963248905E+02  0.00000000000E+00 0. -1.
         -5    1    5    5    0  503  0.39239353506E+02 -0.69194004497E+02 -0.19782997560E+03  0.21327523618E+03  0.47000000000E+01 0.  1.
         11    1    6    6    0    0  0.17164136959E+02  0.54911168609E+02 -0.21515981423E+03  0.22271863347E+03  0.00000000000E+00 0. -1.
        -12    1    6    6    0    0 -0.30125510926E+02 -0.15707315875E+02 -0.15856529687E+03  0.16216417468E+03  0.00000000000E+00 0.  1.
</event>
<event>
12    1  0.9017558E-003  0.1728594E+03  0.7818608E-02  0.1174983E+00
         21   -1    0    0  503  502  0.00000000000E+00  0.00000000000E+00  0.40846917589E+03  0.40846917589E+03  0.00000000000E+00 0. -1.
         21   -1    0    0  501  503 -0.00000000000E+00 -0.00000000000E+00 -0.83526507791E+02  0.83526507791E+02  0.00000000000E+00 0. -1.
          6    2    1    2  501    0 -0.43017700788E+01 -0.89529470167E+01  0.24989097126E+03  0.30385173495E+03  0.17257380689E+03 0.  0.
         24    2    3    3    0    0 -0.22127304822E+02  0.54615012532E+02  0.11702590903E+03  0.15541370096E+03  0.83581922990E+02 0.  0.
         -6    2    1    2    0  502  0.43017700788E+01  0.89529470167E+01  0.75051696836E+02  0.18814394873E+03  0.17224031979E+03 0.  0.
        -24    2    5    5    0    0 -0.42192054044E+02 -0.13453859648E+02 -0.62738048244E+01  0.91709163067E+02  0.80062689185E+02 0.  0.
          5    1    3    3  501    0  0.17825534743E+02 -0.63567959549E+02  0.13286506224E+03  0.14843803399E+03  0.47000000000E+01 0. -1.
        -11    1    4    4    0    0 -0.46131745347E+02  0.61383683728E+02  0.94892080665E+02  0.12206802009E+03  0.00000000000E+00 0.  1.
         12    1    4    4    0    0  0.24004440524E+02 -0.67686711955E+01  0.22133828361E+02  0.33345680868E+02  0.00000000000E+00 0. -1.
         -5    1    5    5    0  502  0.46493824122E+02  0.22406806665E+02  0.81325501661E+02  0.96434785668E+02  0.47000000000E+01 0.  1.
         11    1    6    6    0    0 -0.31861058344E+02 -0.46215515996E+02 -0.10470100120E+02  0.57101873473E+02  0.00000000000E+00 0. -1.
        -12    1    6    6    0    0 -0.10330995699E+02  0.32761656348E+02  0.41962952951E+01  0.34607289594E+02  0.00000000000E+00 0.  1.
</event>
<event>
12    1  0.9017558E-003  0.1776834E+03  0.7818608E-02  0.1170622E+00
         21   -1    0    0  503  502  0.00000000000E+00  0.00000000000E+00  0.37384405281E+02  0.37384405281E+02  0.00000000000E+00 0.  1.
         21   -1    0    0  501  503 -0.00000000000E+00 -0.00000000000E+00 -0.88344434351E+03  0.88344434351E+03  0.00000000000E+00 0.  1.
          6    2    1    2  501    0  0.34241666813E+02 -0.14531299350E+02 -0.52957998232E+03  0.55788115259E+03  0.17144320439E+03 0.  0.
         24    2    3    3    0    0  0.80426372474E+02 -0.35328465164E+00 -0.25553832985E+03  0.27957383966E+03  0.79957286119E+02 0.  0.
         -6    2    1    2    0  502 -0.34241666813E+02  0.14531299350E+02 -0.31647995591E+03  0.36294759620E+03  0.17374620770E+03 0.  0.
        -24    2    5    5    0    0 -0.11511464117E+02 -0.41532424261E+02 -0.91779706290E+02  0.13019859964E+03  0.81674382712E+02 0.  0.
          5    1    3    3  501    0 -0.46184705661E+02 -0.14178014699E+02 -0.27404165247E+03  0.27830731293E+03  0.47000000000E+01 0. -1.
        -11    1    4    4    0    0  0.16558253373E+02  0.15896965702E+02 -0.17024900035E+03  0.17178943912E+03  0.00000000000E+00 0.  1.
         12    1    4    4    0    0  0.63868119101E+02 -0.16250250354E+02 -0.85289329495E+02  0.10778440054E+03  0.00000000000E+00 0. -1.
         -5    1    5    5    0  502 -0.22730202696E+02  0.56063723612E+02 -0.22470024962E+03  0.23274899655E+03  0.47000000000E+01 0.  1.
         11    1    6    6    0    0 -0.33715197146E+02 -0.25195880050E+02 -0.93543172558E+02  0.10257617668E+03  0.00000000000E+00 0. -1.
        -12    1    6    6    0    0  0.22203733028E+02 -0.16336544211E+02  0.17634662675E+01  0.27622422964E+02  0.00000000000E+00 0.  1.
</event>
<event>
12    1  0.9017558E-003  0.1949464E+03  0.7818608E-02  0.1154086E+00
         21   -1    0    0  503  502  0.00000000000E+00  0.00000000000E+00  0.29452580473E+03  0.29452580473E+03  0.00000000000E+00 0. -1.
         21   -1    0    0  501  503 -0.00000000000E+00 -0.00000000000E+00 -0.19738434302E+03  0.19738434302E+03  0.00000000000E+00 0. -1.
          6    2    1    2  501    0  0.33101430205E+02  0.85823289870E+02 -0.96205640317E+02  0.21734283587E+03  0.17181688308E+03 0.  0.
         24    2    3    3    0    0  0.19510116339E+02  0.43043676238E+02 -0.13005860984E+03  0.16092535010E+03  0.82148180791E+02 0.  0.
         -6    2    1    2    0  502 -0.33101430205E+02 -0.85823289870E+02  0.19334710202E+03  0.27456731188E+03  0.17188008939E+03 0.  0.
        -24    2    5    5    0    0 -0.45380820351E+02 -0.85492836582E+02  0.21905425890E+03  0.24569101475E+03  0.54871326070E+02 0.  0.
          5    1    3    3  501    0  0.13591313866E+02  0.42779613632E+02  0.33852969525E+02  0.56417485772E+02  0.47000000000E+01 0. -1.
        -11    1    4    4    0    0  0.35963622387E+01 -0.23356916724E+02 -0.18016081944E+02  0.29716301735E+02  0.00000000000E+00 0.  1.
         12    1    4    4    0    0  0.15913754101E+02  0.66400592962E+02 -0.11204252790E+03  0.13120904837E+03  0.00000000000E+00 0. -1.
         -5    1    5    5    0  502  0.12279390146E+02 -0.33045328765E+00 -0.25707156873E+02  0.28876297135E+02  0.47000000000E+01 0.  1.
         13    1    6    6    0    0 -0.32131130836E+02 -0.14471489638E+02  0.10425893411E+03  0.11005343667E+03  0.00000000000E+00 0. -1.
        -14    1    6    6    0    0 -0.13249689515E+02 -0.71021346944E+02  0.11479532478E+03  0.13563757808E+03  0.00000000000E+00 0.  1.
</event>
<event>
12    1  0.9017558E-003  0.1767594E+03  0.7818608E-02  0.1171086E+00
         21   -1    0    0  503  502  0.00000000000E+00  0.00000000000E+00  0.71387831415E+03  0.71387831415E+03  0.00000000000E+00 0.  1.
         21   -1    0    0  501  503 -0.00000000000E+00 -0.00000000000E+00 -0.59259247827E+02  0.59259247827E+02  0.00000000000E+00 0.  1.
          6    2    1    2  501    0 -0.13790321358E+02  0.39494051227E+02  0.52535922161E+03  0.55415812110E+03  0.17128618863E+03 0.  0.
         24    2    3    3    0    0 -0.46381959646E+02  0.80560117639E+02  0.36440060799E+03  0.38481113414E+03  0.81551131935E+02 0.  0.
         -6    2    1    2    0  502  0.13790321358E+02 -0.39494051227E+02  0.12925984472E+03  0.21897944088E+03  0.17173798364E+03 0.  0.
        -24    2    5    5    0    0 -0.23150129408E+02  0.38150023508E+02  0.60965559389E+02  0.10907312325E+03  0.78668888384E+02 0.  0.
          5    1    3    3  501    0  0.32591638289E+02 -0.41066066412E+02  0.16095861362E+03  0.16934698697E+03  0.47000000000E+01 0. -1.
        -11    1    4    4    0    0 -0.17376333001E+02  0.78990929211E+02  0.33009613525E+03  0.33986021002E+03  0.00000000000E+00 0.  1.
         12    1    4    4    0    0 -0.29005626645E+02  0.15691884283E+01  0.34304472736E+02  0.44950924118E+02  0.00000000000E+00 0. -1.
         -5    1    5    5    0  502  0.36940450766E+02 -0.77644074735E+02  0.68294285332E+02  0.10990631762E+03  0.47000000000E+01 0.  1.
         13    1    6    6    0    0 -0.23522962877E+02  0.13677613465E+02  0.75743259168E+02  0.80482595647E+02  0.00000000000E+00 0. -1.
        -14    1    6    6    0    0  0.37283346858E+00  0.24472410043E+02 -0.14777699780E+02  0.28590527608E+02  0.00000000000E+00 0.  1.
</event>
<event>
12    1  0.9017558E-003  0.2006248E+03  0.7818608E-02  0.1149843E+00
         21   -1    0    0  501  502  0.00000000000E+00  0.00000000000E+00  0.10978956761E+03  0.10978956761E+03  0.00000000000E+00 0.  1.
         21   -1    0    0  502  503 -0.00000000000E+00 -0.00000000000E+00 -0.52472348874E+03  0.52472348874E+03  0.00000000000E+00 0.  1.
          6    2    1    2  501    0  0.12451943824E+02 -0.98153407254E+02 -0.29295333231E+02  0.19980923192E+03  0.17110339083E+03 0.  0.
         24    2    3    3    0    0 -0.50990929171E+02 -0.23056019505E+02 -0.19450787628E+02  0.10089704431E+03  0.81671448609E+02 0.  0.
         -6    2    1    2    0  503 -0.12451943824E+02  0.98153407254E+02 -0.38563858790E+03  0.43470382443E+03  0.17453123571E+03 0.  0.
        -24    2    5    5    0    0 -0.69709258968E+02  0.38701508781E+02 -0.26996506520E+03  0.29252301623E+03  0.79570038475E+02 0.  0.
          5    1    3    3  501    0  0.63442872995E+02 -0.75097387748E+02 -0.98445456031E+01  0.98912187614E+02  0.47000000000E+01 0. -1.
        -11    1    4    4    0    0 -0.45189274482E+02 -0.50473630720E+02 -0.25212032165E+02  0.72286267660E+02  0.00000000000E+00 0.  1.
         12    1    4    4    0    0 -0.58016546890E+01  0.27417611215E+02  0.57612445373E+01  0.28610776650E+02  0.00000000000E+00 0. -1.
         -5    1    5    5    0  503  0.57257315144E+02  0.59451898472E+02 -0.11567352270E+03  0.14218080821E+03  0.47000000000E+01 0.  1.
         13    1    6    6    0    0 -0.18290305433E+02 -0.67060069870E+01 -0.69091925987E+01  0.20669851110E+02  0.00000000000E+00 0. -1.
        -14    1    6    6    0    0 -0.51418953535E+02  0.45407515768E+02 -0.26305587261E+03  0.27185316512E+03  0.00000000000E+00 0.  1.
</event>
<event>
12    1  0.9017558E-003  0.2272871E+03  0.7818608E-02  0.1129110E+00
         21   -1    0    0  503  502  0.00000000000E+00  0.00000000000E+00  0.16313583657E+03  0.16313583657E+03  0.00000000000E+00 0. -1.
         21   -1    0    0  501  503 -0.00000000000E+00 -0.00000000000E+00 -0.45937281815E+03  0.45937281815E+03  0.00000000000E+00 0.  1.
          6    2    1    2  501    0  0.29445599949E+02 -0.14130151890E+03 -0.32481507644E+03  0.39643949101E+03  0.17557412550E+03 0.  0.
         24    2    3    3    0    0 -0.57656698401E+01 -0.12752931241E+03 -0.12702954478E+03  0.19501775998E+03  0.74822810627E+02 0.  0.
         -6    2    1    2    0  502 -0.29445599949E+02  0.14130151890E+03  0.28578094860E+02  0.22606916371E+03  0.17163157249E+03 0.  0.
        -24    2    5    5    0    0 -0.55987152886E+01  0.14099957394E+03  0.71021301616E+02  0.17715821526E+03  0.80179688730E+02 0.  0.
          5    1    3    3  501    0  0.35211269789E+02 -0.13772206489E+02 -0.19778553167E+03  0.20142173102E+03  0.47000000000E+01 0. -1.
        -11    1    4    4    0    0  0.19681651821E+02 -0.95195038638E+02 -0.11801414546E+03  0.15289473938E+03  0.00000000000E+00 0.  1.
         12    1    4    4    0    0 -0.25447321661E+02 -0.32334273772E+02 -0.90153993117E+01  0.42123020605E+02  0.00000000000E+00 0. -1.
         -5    1    5    5    0  502 -0.23846884660E+02  0.30194495688E+00 -0.42443206756E+02  0.48910948452E+02  0.47000000000E+01 0.  1.
         13    1    6    6    0    0  0.34276872681E+02  0.94005903900E+02  0.51325620165E+02  0.11245591694E+03  0.00000000000E+00 0. -1.
        -14    1    6    6    0    0 -0.39875587970E+02  0.46993670042E+02  0.19695681451E+02  0.64702298319E+02  0.00000000000E+00 0.  1.
</event>
<event>
12    1  0.9017558E-003  0.2618816E+03  0.7818608E-02  0.1106056E+00
         21   -1    0    0  501  502  0.00000000000E+00  0.00000000000E+00  0.85158859395E+03  0.85158859395E+03  0.00000000000E+00 0. -1.
         21   -1    0    0  502  503 -0.00000000000E+00 -0.00000000000E+00 -0.81278404433E+02  0.81278404433E+02  0.00000000000E+00 0. -1.
          6    2    1    2  501    0 -0.14984407895E+03  0.12846301423E+03  0.43191890842E+03  0.50497610571E+03  0.17172923416E+03 0.  0.
         24    2    3    3    0    0 -0.58788952014E+02  0.10623654496E+03  0.15388793949E+03  0.21153384263E+03  0.79515560069E+02 0.  0.
         -6    2    1    2    0  503  0.14984407895E+03 -0.12846301423E+03  0.33839128109E+03  0.42789089267E+03  0.17212194192E+03 0.  0.
        -24    2    5    5    0    0  0.15957875325E+03 -0.53765896243E+02  0.24092828399E+03  0.30462066462E+03  0.79944738412E+02 0.  0.
          5    1    3    3  501    0 -0.91055126937E+02  0.22226469272E+02  0.27803096893E+03  0.29344226308E+03  0.47000000000E+01 0. -1.
        -13    1    4    4    0    0 -0.23513523118E+02  0.10729414943E+03  0.11561230049E+03  0.15947139021E+03  0.00000000000E+00 0.  1.
         14    1    4    4    0    0 -0.35275428897E+02 -0.10576044693E+01  0.38275639002E+02  0.52062452421E+02  0.00000000000E+00 0. -1.
         -5    1    5    5    0  503 -0.97346742999E+01 -0.74697117985E+02  0.97462997096E+02  0.12327022804E+03  0.47000000000E+01 0.  1.
         11    1    6    6    0    0  0.12128754128E+02 -0.94909751623E+00 -0.49177147622E+01  0.13122171363E+02  0.00000000000E+00 0. -1.
        -12    1    6    6    0    0  0.14744999912E+03 -0.52816798727E+02  0.24584599876E+03  0.29149849326E+03  0.00000000000E+00 0.  1.
</event>
<event>
12    1  0.9017558E-003  0.2021537E+03  0.7818608E-02  0.1148268E+00
         21   -1    0    0  501  502  0.00000000000E+00  0.00000000000E+00  0.30972153307E+03  0.30972153307E+03  0.00000000000E+00 0. -1.
         21   -1    0    0  502  503 -0.00000000000E+00 -0.00000000000E+00 -0.13259492722E+03  0.13259492722E+03  0.00000000000E+00 0. -1.
          6    2    1    2  501    0  0.10110580280E+03 -0.30129150355E+02  0.11317975025E+03  0.23028972026E+03  0.17056831573E+03 0.  0.
         24    2    3    3    0    0  0.98519547460E+01  0.33589394969E+02  0.64990053610E+02  0.10891569229E+03  0.80085032887E+02 0.  0.
         -6    2    1    2    0  503 -0.10110580280E+03  0.30129150355E+02  0.63946855596E+02  0.21202674003E+03  0.17244126271E+03 0.  0.
        -24    2    5    5    0    0 -0.12470117978E+03  0.37464687806E+02  0.89658278611E+02  0.17605843179E+03  0.77485336729E+02 0.  0.
          5    1    3    3  501    0  0.91253848054E+02 -0.63718545324E+02  0.48189696637E+02  0.12137402797E+03  0.47000000000E+01 0. -1.
        -13    1    4    4    0    0 -0.21326641112E+02  0.20551066450E+01 -0.85267357541E+01  0.23059798504E+02  0.00000000000E+00 0.  1.
         14    1    4    4    0    0  0.31178595858E+02  0.31534288324E+02  0.73516789364E+02  0.85855893788E+02  0.00000000000E+00 0. -1.
         -5    1    5    5    0  503  0.23595376982E+02 -0.73355374509E+01 -0.25711423015E+02  0.35968308245E+02  0.47000000000E+01 0.  1.
         11    1    6    6    0    0 -0.55621933418E+01  0.11210640674E+02  0.44084737385E+02  0.45826635589E+02  0.00000000000E+00 0. -1.
        -12    1    6    6    0    0 -0.11913898644E+03  0.26254047131E+02  0.45573541226E+02  0.13023179620E+03  0.00000000000E+00 0.  1.
</event>
<event>
12    1  0.9017558E-003  0.1965799E+03  0.7818608E-02  0.1152798E+00
         21   -1    0    0  503  502  0.00000000000E+00  0.00000000000E+00  0.33351390467E+04  0.33351390467E+04  0.00000000000E+00 0. -1.
         21   -1    0    0  501  503 -0.00000000000E+00 -0.00000000000E+00 -0.19492335169E+02  0.19492335169E+02  0.00000000000E+00 0. -1.
          6    2    1    2  501    0 -0.92972855573E+02 -0.13711542694E+02  0.58867536589E+03  0.62063061423E+03  0.17266069220E+03 0.  0.
         24    2    3    3    0    0 -0.28078606346E+02  0.16704221247E+02  0.49476317851E+03  0.50240214381E+03  0.80931280423E+02 0.  0.
         -6    2    1    2    0  502  0.92972855573E+02  0.13711542694E+02  0.27269713456E+04  0.27340007676E+04  0.17191718717E+03 0.  0.
        -24    2    5    5    0    0  0.11727161607E+03  0.22455185678E+02  0.26187698228E+04  0.26226610147E+04  0.78348870956E+02 0.  0.
          5    1    3    3  501    0 -0.64894249227E+02 -0.30415763941E+02  0.93912187376E+02  0.11822847041E+03  0.47000000000E+01 0. -1.
        -11    1    4    4    0    0  0.12996631921E+02 -0.23116882057E+02  0.23030009604E+03  0.23182199403E+03  0.00000000000E+00 0.  1.
         12    1    4    4    0    0 -0.41075238267E+02  0.39821103304E+02  0.26446308247E+03  0.27058014978E+03  0.00000000000E+00 0. -1.
         -5    1    5    5    0  502 -0.24298760496E+02 -0.87436429841E+01  0.10820152279E+03  0.11133975296E+03  0.47000000000E+01 0.  1.
         11    1    6    6    0    0  0.77945726835E+02  0.37429418512E+02  0.22186959151E+04  0.22203801615E+04  0.00000000000E+00 0. -1.
        -12    1    6    6    0    0  0.39325889234E+02 -0.14974232833E+02  0.40007390771E+03  0.40228085319E+03  0.00000000000E+00 0.  1.
</event>
<event>
12    1  0.9017558E-003  0.1884393E+03  0.7818608E-02  0.1160168E+00
         21   -1    0    0  503  502  0.00000000000E+00  0.00000000000E+00  0.86355932560E+02  0.86355932560E+02  0.00000000000E+00 0.  1.
         21   -1    0    0  501  503 -0.00000000000E+00 -0.00000000000E+00 -0.45904976455E+03  0.45904976455E+03  0.00000000000E+00 0.  1.
          6    2    1    2  501    0 -0.75554755253E+02 -0.10352513626E+02 -0.27634617527E+03  0.33376395661E+03  0.17092534793E+03 0.  0.
         24    2    3    3    0    0 -0.81446637032E+02 -0.33672231707E+02 -0.10041461678E+03  0.15613364727E+03  0.80791377485E+02 0.  0.
         -6    2    1    2    0  502  0.75554755253E+02  0.10352513626E+02 -0.96347656719E+02  0.21164174050E+03  0.17231848359E+03 0.  0.
        -24    2    5    5    0    0  0.42890527944E+02  0.62044906397E+02 -0.10219615243E+03  0.15003532753E+03  0.79858488211E+02 0.  0.
          5    1    3    3  501    0  0.58918817784E+01  0.23319718081E+02 -0.17593155849E+03  0.17763030934E+03  0.47000000000E+01 0. -1.
        -11    1    4    4    0    0 -0.39492474906E+02 -0.37737184321E+02 -0.10003998293E+03  0.11398135303E+03  0.00000000000E+00 0.  1.
         12    1    4    4    0    0 -0.41954162126E+02  0.40649526141E+01 -0.37463385295E+00  0.42152294243E+02  0.00000000000E+00 0. -1.
         -5    1    5    5    0  502  0.32664227309E+02 -0.51692392771E+02  0.58484957132E+01  0.61606412964E+02  0.47000000000E+01 0.  1.
         13    1    6    6    0    0  0.28469512329E+02 -0.91032637295E+01 -0.57443517912E+02  0.64754461567E+02  0.00000000000E+00 0. -1.
        -14    1    6    6    0    0  0.14421015615E+02  0.71148170126E+02 -0.44752634521E+02  0.85280865968E+02  0.00000000000E+00 0.  1.
</event>
<event>
12    1  0.9017558E-003  0.2658912E+03  0.7818608E-02  0.1104223E+00
         21   -1    0    0  503  502  0.00000000000E+00  0.00000000000E+00  0.17482812114E+04  0.17482812114E+04  0.00000000000E+00 0. -1.
         21   -1    0    0  501  503 -0.00000000000E+00 -0.00000000000E+00 -0.40616721105E+02  0.40616721105E+02  0.00000000000E+00 0. -1.
          6    2    1    2  501    0 -0.19660925720E+03  0.50512125499E+02  0.72500497633E+03  0.77090095188E+03  0.16567856547E+03 0.  0.
         24    2    3    3    0    0 -0.17695355157E+03  0.63520689370E+02  0.71689923986E+03  0.74553636118E+03  0.80823934140E+02 0.  0.
         -6    2    1    2    0  502  0.19660925720E+03 -0.50512125499E+02  0.98265951396E+03  0.10179969806E+04  0.17173076996E+03 0.  0.
        -24    2    5    5    0    0  0.16852437689E+03 -0.84266289353E+01  0.91270103959E+03  0.93153179885E+03  0.79100132278E+02 0.  0.
          5    1    3    3  501    0 -0.19655705628E+02 -0.13008563871E+02  0.81057364736E+01  0.25364590702E+02  0.47000000000E+01 0. -1.
        -13    1    4    4    0    0 -0.38815385492E+02 -0.19280402556E+02  0.16766307873E+03  0.17317412059E+03  0.00000000000E+00 0.  1.
         14    1    4    4    0    0 -0.13813816608E+03  0.82801091926E+02  0.54923616113E+03  0.57236224059E+03  0.00000000000E+00 0. -1.
         -5    1    5    5    0  502  0.28084880304E+02 -0.42085496564E+02  0.69958474369E+02  0.86465181771E+02  0.47000000000E+01 0.  1.
         13    1    6    6    0    0  0.10142736979E+03 -0.22647565728E+02  0.70942060993E+03  0.71699234680E+03  0.00000000000E+00 0. -1.
        -14    1    6    6    0    0  0.67097007101E+02  0.14220936793E+02  0.20328042966E+03  0.21453945205E+03  0.00000000000E+00 0.  1.
</event>
<event>
12    1  0.9017558E-003  0.2118578E+03  0.7818608E-02  0.1140325E+00
         21   -1    0    0  501  502  0.00000000000E+00  0.00000000000E+00  0.13830227272E+03  0.13830227272E+03  0.00000000000E+00 0. -1.
         21   -1    0    0  502  503 -0.00000000000E+00 -0.00000000000E+00 -0.48471060589E+03  0.48471060589E+03  0.00000000000E+00 0. -1.
          6    2    1    2  501    0 -0.12352624714E+03  0.46312553983E+01  0.65227368728E+01  0.21195823509E+03  0.17205686579E+03 0.  0.
         24    2    3    3    0    0 -0.48173321754E+02 -0.46329771678E+02  0.43865199604E+02  0.11351211191E+03  0.80583665479E+02 0.  0.
         -6    2    1    2    0  503  0.12352624714E+03 -0.46312553983E+01 -0.35293107004E+03  0.41105464352E+03  0.17066164622E+03 0.  0.
        -24    2    5    5    0    0  0.30951056821E+02 -0.57456191736E+02 -0.15168173269E+03  0.18327399124E+03  0.79516199281E+02 0.  0.
          5    1    3    3  501    0 -0.75352925391E+02  0.50961027076E+02 -0.37342462731E+02  0.98446123177E+02  0.47000000000E+01 0. -1.
        -11    1    4    4    0    0  0.10054298709E+02 -0.39017262246E+02  0.36500958516E+02  0.54366861674E+02  0.00000000000E+00 0.  1.
         12    1    4    4    0    0 -0.58227620463E+02 -0.73125094320E+01  0.73642410885E+01  0.59145250238E+02  0.00000000000E+00 0. -1.
         -5    1    5    5    0  503  0.92575190323E+02  0.52824936338E+02 -0.20124933736E+03  0.22778065227E+03  0.47000000000E+01 0.  1.
         13    1    6    6    0    0  0.15176646272E+02 -0.54190269502E+01 -0.11846373414E+03  0.11955481066E+03  0.00000000000E+00 0. -1.
        -14    1    6    6    0    0  0.15774410549E+02 -0.52037164786E+02 -0.33217998550E+02  0.63719180588E+02  0.00000000000E+00 0.  1.
</event>
<event>
12    1  0.9017558E-003  0.1937966E+03  0.7818608E-02  0.1155136E+00
         21   -1    0    0  503  502  0.00000000000E+00  0.00000000000E+00  0.31050330797E+03  0.31050330797E+03  0.00000000000E+00 0.  1.
         21   -1    0    0  501  503 -0.00000000000E+00 -0.00000000000E+00 -0.12717454877E+03  0.12717454877E+03  0.00000000000E+00 0.  1.
          6    2    1    2  501    0  0.87394152884E+02  0.12919513313E+02  0.42726391257E+02  0.19845068194E+03  0.17248906305E+03 0.  0.
         24    2    3    3    0    0  0.14451245642E+02 -0.24249931036E+02  0.71889397994E+02  0.11141731896E+03  0.80304643481E+02 0.  0.
         -6    2    1    2    0  502 -0.87394152884E+02 -0.12919513313E+02  0.14060236795E+03  0.23922717479E+03  0.17220906917E+03 0.  0.
        -24    2    5    5    0    0 -0.13539044853E+02 -0.32690480329E+02  0.13690529964E+03  0.16253802020E+03  0.80147200193E+02 0.  0.
          5    1    3    3  501    0  0.72942907242E+02  0.37169444350E+02 -0.29163006737E+02  0.87033362983E+02  0.47000000000E+01 0. -1.
        -13    1    4    4    0    0  0.47574121821E+02 -0.19312608022E+02  0.38979373022E+02  0.64464450799E+02  0.00000000000E+00 0.  1.
         14    1    4    4    0    0 -0.33122876179E+02 -0.49373230144E+01  0.32910024973E+02  0.46952868162E+02  0.00000000000E+00 0. -1.
         -5    1    5    5    0  502 -0.73855108031E+02  0.19770967016E+02  0.36970683050E+01  0.76689154599E+02  0.47000000000E+01 0.  1.
         11    1    6    6    0    0  0.38114123225E+00 -0.58374943633E+02  0.92866774571E+02  0.10969055170E+03  0.00000000000E+00 0. -1.
        -12    1    6    6    0    0 -0.13920186085E+02  0.25684463304E+02  0.44038525074E+02  0.52847468497E+02  0.00000000000E+00 0.  1.
</event>
<event>
12    1  0.9017558E-003  0.2454296E+03  0.7818608E-02  0.1116677E+00
         21   -1    0    0  501  502  0.00000000000E+00  0.00000000000E+00  0.32410890410E+03  0.32410890410E+03  0.00000000000E+00 0. -1.
         21   -1    0    0  502  503 -0.00000000000E+00 -0.00000000000E+00 -0.20980755675E+03  0.20980755675E+03  0.00000000000E+00 0.  1.
          6    2    1    2  501    0  0.15616059064E+03  0.68255482937E+02  0.15148274036E+03  0.28841412165E+03  0.17660901427E+03 0.  0.
         24    2    3    3    0    0  0.47119021183E+02  0.85702137726E+02  0.46742738440E+02  0.13614131503E+03  0.82368170393E+02 0.  0.
         -6    2    1    2    0  503 -0.15616059064E+03 -0.68255482937E+02 -0.37181393010E+02  0.24550233920E+03  0.17275416506E+03 0.  0.
        -24    2    5    5    0    0 -0.18427128470E+03 -0.61018205678E+02 -0.33230193540E+02  0.21583263613E+03  0.88319608620E+02 0.  0.
          5    1    3    3  501    0  0.10904156946E+03 -0.17446654789E+02  0.10474000192E+03  0.15227280662E+03  0.47000000000E+01 0. -1.
        -11    1    4    4    0    0  0.28132623784E+02  0.91135395051E+02  0.59699588979E+02  0.11252175646E+03  0.00000000000E+00 0.  1.
         12    1    4    4    0    0  0.18986397399E+02 -0.54332573253E+01 -0.12956850539E+02  0.23619558575E+02  0.00000000000E+00 0. -1.
         -5    1    5    5    0  503  0.28110694062E+02 -0.72372772592E+01 -0.39511994696E+01  0.29669703066E+02  0.47000000000E+01 0.  1.
         13    1    6    6    0    0 -0.10334619706E+03 -0.76557061626E+02 -0.49401822258E+01  0.12870829629E+03  0.00000000000E+00 0. -1.
        -14    1    6    6    0    0 -0.80925087637E+02  0.15538855947E+02 -0.28290011315E+02  0.87124339845E+02  0.00000000000E+00 0.  1.
</event>
<event>
12    1  0.9017558E-003  0.1865747E+03  0.7818608E-02  0.1161792E+00
         21   -1    0    0  501  502  0.00000000000E+00  0.00000000000E+00  0.14797458850E+02  0.14797458850E+02  0.00000000000E+00 0.  1.
         21   -1    0    0  502  503 -0.00000000000E+00 -0.00000000000E+00 -0.40197843323E+04  0.40197843323E+04  0.00000000000E+00 0.  1.
          6    2    1    2  501    0 -0.68201867952E+02  0.83254116412E+01 -0.69620174367E+03  0.72054057849E+03  0.17251391277E+03 0.  0.
         24    2    3    3    0    0 -0.24484492101E+02  0.64427482172E+02 -0.30207425460E+03  0.32001939440E+03  0.80082249520E+02 0.  0.
         -6    2    1    2    0  503  0.68201867952E+02 -0.83254116412E+01 -0.33087851298E+04  0.33140412127E+04  0.17346272462E+03 0.  0.
        -24    2    5    5    0    0  0.98035301578E+02 -0.60580267298E+01 -0.16219990100E+04  0.16269832176E+04  0.80907242307E+02 0.  0.
          5    1    3    3  501    0 -0.43717375851E+02 -0.56102070531E+02 -0.39412748907E+03  0.40052118410E+03  0.47000000000E+01 0. -1.
        -13    1    4    4    0    0  0.29033653894E+02  0.14446832696E+02 -0.93337115087E+02  0.98810328843E+02  0.00000000000E+00 0.  1.
         14    1    4    4    0    0 -0.53518145995E+02  0.49980649476E+02 -0.20873713951E+03  0.22120906555E+03  0.00000000000E+00 0. -1.
         -5    1    5    5    0  503 -0.29833433626E+02 -0.22673849114E+01 -0.16867861198E+04  0.16870579951E+04  0.47000000000E+01 0.  1.
         11    1    6    6    0    0  0.77568624909E+02 -0.19855963386E+02 -0.68572533788E+03  0.69038423350E+03  0.00000000000E+00 0. -1.
        -12    1    6    6    0    0  0.20466676669E+02  0.13797936656E+02 -0.93627367208E+03  0.93659898406E+03  0.00000000000E+00 0.  1.
</event>
<event>
12    1  0.9017558E-003  0.2590556E+03  0.7818608E-02  0.1108047E+00
         21   -1    0    0  501  502  0.00000000000E+00  0.00000000000E+00  0.75496310741E+03  0.75496310741E+03  0.00000000000E+00 0.  1.
         21   -1    0    0  502  503 -0.00000000000E+00 -0.00000000000E+00 -0.91917202966E+02  0.91917202966E+02  0.00000000000E+00 0.  1.
          6    2    1    2  501    0 -0.16916253839E+03 -0.93307813125E+02  0.41877993020E+03  0.49242910451E+03  0.17259049987E+03 0.  0.
         24    2    3    3    0    0 -0.16880728441E+03 -0.61570781783E+02  0.41623353500E+03  0.46024309059E+03  0.79287365565E+02 0.  0.
         -6    2    1    2    0  503  0.16916253839E+03  0.93307813125E+02  0.24426597424E+03  0.35445120587E+03  0.16925566101E+03 0.  0.
        -24    2    5    5    0    0  0.16121461549E+03  0.21669492896E+02  0.19794969003E+03  0.26864615597E+03  0.80789591946E+02 0.  0.
          5    1    3    3  501    0 -0.35525397656E+00 -0.31737031343E+02  0.25463952078E+01  0.32186013925E+02  0.47000000000E+01 0. -1.
        -13    1    4    4    0    0 -0.10732578486E+03 -0.18146216105E+02  0.16255384026E+03  0.19563195096E+03  0.00000000000E+00 0.  1.
         14    1    4    4    0    0 -0.61481499551E+02 -0.43424565678E+02  0.25367969474E+03  0.26461113962E+03  0.00000000000E+00 0. -1.
         -5    1    5    5    0  503  0.79479228945E+01  0.71638320229E+02  0.46316284211E+02  0.85805049891E+02  0.47000000000E+01 0.  1.
         13    1    6    6    0    0  0.13230302969E+02 -0.15326930521E+02  0.20331441346E+01  0.20349186493E+02  0.00000000000E+00 0. -1.
        -14    1    6    6    0    0  0.14798431252E+03  0.36996423417E+02  0.19591654590E+03  0.24829696948E+03  0.00000000000E+00 0.  1.
</event>
<event>
12    1  0.9017558E-003  0.2393510E+03  0.7818608E-02  0.1120227E+00
         21   -1    0    0  501  502  0.00000000000E+00  0.00000000000E+00  0.40159374154E+02  0.40159374154E+02  0.00000000000E+00 0. -1.
         21   -1    0    0  502  503 -0.00000000000E+00 -0.00000000000E+00 -0.14643069743E+04  0.14643069743E+04  0.00000000000E+00 0.  1.
          6    2    1    2  501    0  0.63808669124E+02 -0.15513232400E+03 -0.83295704420E+03  0.86666390072E+03  0.17073750360E+03 0.  0.
         24    2    3    3    0    0  0.77776565938E+02 -0.97188071296E+02 -0.75089110293E+03  0.76512795990E+03  0.78029681212E+02 0.  0.
         -6    2    1    2    0  503 -0.63808669124E+02  0.15513232400E+03 -0.59119055598E+03  0.63780244776E+03  0.17072816019E+03 0.  0.
        -24    2    5    5    0    0 -0.87626707997E+01  0.36668595562E+02 -0.37505993873E+03  0.38521929195E+03  0.79388758325E+02 0.  0.
          5    1    3    3  501    0 -0.13967896814E+02 -0.57944252705E+02 -0.82065941263E+02  0.10153594082E+03  0.47000000000E+01 0. -1.
        -11    1    4    4    0    0 -0.95443083389E+00  0.91336255756E+01 -0.12867995018E+03  0.12900722318E+03  0.00000000000E+00 0.  1.
         12    1    4    4    0    0  0.78730996772E+02 -0.10632169687E+03 -0.62221115275E+03  0.63612073672E+03  0.00000000000E+00 0. -1.
         -5    1    5    5    0  503 -0.55045998324E+02  0.11846372844E+03 -0.21613061725E+03  0.25258315581E+03  0.47000000000E+01 0.  1.
         13    1    6    6    0    0  0.14642888428E+02  0.23229797696E+02 -0.36962487649E+02  0.46046315550E+02  0.00000000000E+00 0. -1.
        -14    1    6    6    0    0 -0.23405559228E+02  0.13438797866E+02 -0.33809745108E+03  0.33917297640E+03  0.00000000000E+00 0.  1.
</event>
<event>
12    1  0.9017558E-003  0.2531014E+03  0.7818608E-02  0.1111611E+00
         21   -1    0    0  501  502  0.00000000000E+00  0.00000000000E+00  0.18417077189E+04  0.18417077189E+04  0.00000000000E+00 0. -1.
         21   -1    0    0  502  503 -0.00000000000E+00 -0.00000000000E+00 -0.36074163949E+02  0.36074163949E+02  0.00000000000E+00 0.  1.
          6    2    1    2  501    0  0.15037920048E+03 -0.10679987771E+03  0.10922345150E+04  0.11208152484E+04  0.17096920014E+03 0.  0.
         24    2    3    3    0    0  0.44550916473E+02  0.56530602578E+01  0.51148386819E+03  0.51986708694E+03  0.81420509791E+02 0.  0.
         -6    2    1    2    0  503 -0.15037920048E+03  0.10679987771E+03  0.71339903992E+03  0.75696663446E+03  0.17332102498E+03 0.  0.
        -24    2    5    5    0    0 -0.16604449849E+02  0.81382422347E+02  0.38175016103E+03  0.39842124010E+03  0.78150449094E+02 0.  0.
          5    1    3    3  501    0  0.10582828401E+03 -0.11245293797E+03  0.58075064679E+03  0.60094816141E+03  0.47000000000E+01 0. -1.
        -11    1    4    4    0    0  0.18508008252E+02  0.38787766668E+02  0.15323246296E+03  0.15914529499E+03  0.00000000000E+00 0.  1.
         12    1    4    4    0    0  0.26042908221E+02 -0.33134706411E+02  0.35825140523E+03  0.36072179195E+03  0.00000000000E+00 0. -1.
         -5    1    5    5    0  503 -0.13377475063E+03  0.25417455361E+02  0.33164887889E+03  0.35854539435E+03  0.47000000000E+01 0.  1.
         11    1    6    6    0    0  0.31015823933E+02  0.35588817540E+02  0.18233873283E+03  0.18835062718E+03  0.00000000000E+00 0. -1.
        -12    1    6    6    0    0 -0.47620273783E+02  0.45793604807E+02  0.19941142820E+03  0.21007061292E+03  0.00000000000E+00 0.  1.
</event>
<event>
12    1  0.9017558E-003  0.1869572E+03  0.7818608E-02  0.1161434E+00
         21   -1    0    0  503  502  0.00000000000E+00  0.00000000000E+00  0.11014342598E+03  0.11014342598E+03  0.00000000000E+00 0. -1.
         21   -1    0    0  501  503 -0.00000000000E+00 -0.00000000000E+00 -0.47290912543E+03  0.47290912543E+03  0.00000000000E+00 0. -1.
          6    2    1    2  501    0 -0.66012327179E+02  0.31924163029E+02 -0.34965533462E+03  0.39649949311E+03  0.17197736911E+03 0.  0.
         24    2    3    3    0    0 -0.99424201514E+02  0.32017573207E+02 -0.17645063010E+03  0.22003895435E+03  0.79824931751E+02 0.  0.
         -6    2    1    2    0  502  0.66012327179E+02 -0.31924163029E+02 -0.13110364830E+02  0.18655305830E+03  0.17103620193E+03 0.  0.
        -24    2    5    5    0    0  0.10421990132E+03 -0.48832696411E+02  0.56977125807E+01  0.14049276088E+03  0.80369968662E+02 0.  0.
          5    1    3    3  501    0  0.33411874335E+02 -0.93410178087E-01 -0.17320470451E+03  0.17646053875E+03  0.47000000000E+01 0. -1.
        -13    1    4    4    0    0 -0.38577616398E+02  0.21383408170E+02 -0.14055071304E+02  0.46292846761E+02  0.00000000000E+00 0.  1.
         14    1    4    4    0    0 -0.60846585116E+02  0.10634165037E+02 -0.16239555880E+03  0.17374610759E+03  0.00000000000E+00 0. -1.
         -5    1    5    5    0  502 -0.38207574136E+02  0.16908533383E+02 -0.18808077411E+02  0.46060297420E+02  0.47000000000E+01 0.  1.
         11    1    6    6    0    0  0.27781197782E+02 -0.52486545073E+02 -0.14933846808E+02  0.61234403275E+02  0.00000000000E+00 0. -1.
        -12    1    6    6    0    0  0.76438703533E+02  0.36538486622E+01  0.20631559388E+02  0.79258357607E+02  0.00000000000E+00 0.  1.
</event>
<event>
12    1  0.9017558E-003  0.1896507E+03  0.7818608E-02  0.1159328E+00
         21   -1    0    0  503  502  0.00000000000E+00  0.00000000000E+00  0.13916831237E+03  0.13916831237E+03  0.00000000000E+00 0.  1.
         21   -1    0    0  501  503 -0.00000000000E+00 -0.00000000000E+00 -0.25524063700E+03  0.25524063700E+03  0.00000000000E+00 0.  1.
          6    2    1    2  501    0 -0.14309801282E+02 -0.75502648934E+02 -0.54080126729E+02  0.19488348374E+03  0.17073222227E+03 0.  0.
         24    2    3    3    0    0 -0.67050961457E+02 -0.17146397176E+02 -0.29676830216E+02  0.11239292079E+03  0.83436347137E+02 0.  0.
         -6    2    1    2    0  502  0.14309801282E+02  0.75502648934E+02 -0.61992197903E+02  0.19952546563E+03  0.17338384707E+03 0.  0.
        -24    2    5    5    0    0  0.16508133103E+02 -0.26999954350E+02 -0.35445526682E+02  0.93513994102E+02  0.80541701855E+02 0.  0.
          5    1    3    3  501    0  0.52741160174E+02 -0.58356251759E+02 -0.24403296513E+02  0.82490562954E+02  0.47000000000E+01 0. -1.
        -13    1    4    4    0    0 -0.66448495628E+01 -0.36963585106E+02 -0.31163379199E+02  0.48801811982E+02  0.00000000000E+00 0.  1.
         14    1    4    4    0    0 -0.60406111894E+02  0.19817187930E+02  0.14865489825E+01  0.63591108808E+02  0.00000000000E+00 0. -1.
         -5    1    5    5    0  502 -0.21983318210E+01  0.10250260328E+03 -0.26546671222E+02  0.10601147153E+03  0.47000000000E+01 0.  1.
         13    1    6    6    0    0 -0.23937222256E+02 -0.34432633528E+02 -0.47610235157E+01  0.42205025837E+02  0.00000000000E+00 0. -1.
        -14    1    6    6    0    0  0.40445355359E+02  0.74326791777E+01 -0.30684503166E+02  0.51308968265E+02  0.00000000000E+00 0.  1.
</event>
<event>
12    1  0.9017558E-003  0.2184390E+03  0.7818608E-02  0.1135101E+00
         21   -1    0    0  501  502  0.00000000000E+00  0.00000000000E+00  0.95861984773E+02  0.95861984773E+02  0.00000000000E+00 0. -1.
         21   -1    0    0  502  503 -0.00000000000E+00 -0.00000000000E+00 -0.54361715548E+03  0.54361715548E+03  0.00000000000E+00 0.  1.
          6    2    1    2  501    0 -0.13548525308E+03 -0.93383478655E+01 -0.31747386665E+03  0.38536378869E+03  0.17109101405E+03 0.  0.
         24    2    3    3    0    0 -0.84860834479E+02  0.12116391186E+02 -0.81391335343E+02  0.14291752831E+03  0.80328713827E+02 0.  0.
         -6    2    1    2    0  503  0.13548525308E+03  0.93383478655E+01 -0.13028130405E+03  0.25411535156E+03  0.17075694764E+03 0.  0.
        -24    2    5    5    0    0  0.14092233749E+03  0.24864747711E+02 -0.49074322462E+02  0.17112562425E+03  0.79989557245E+02 0.  0.
          5    1    3    3  501    0 -0.50624418606E+02 -0.21454739052E+02 -0.23608253131E+03  0.24244626038E+03  0.47000000000E+01 0. -1.
        -11    1    4    4    0    0 -0.17466477216E+02 -0.11346398387E+02 -0.66942246054E+02  0.70107652147E+02  0.00000000000E+00 0.  1.
         12    1    4    4    0    0 -0.67394357263E+02  0.23462789573E+02 -0.14449089288E+02  0.72809876162E+02  0.00000000000E+00 0. -1.
         -5    1    5    5    0  503 -0.54370844023E+01 -0.15526399846E+02 -0.81206981592E+02  0.82989727306E+02  0.47000000000E+01 0.  1.
         13    1    6    6    0    0  0.47124724023E+02 -0.20502241477E+01 -0.56094311669E+02  0.73290619011E+02  0.00000000000E+00 0. -1.
        -14    1    6    6    0    0  0.93797613464E+02  0.26914971859E+02  0.70199892077E+01  0.97835005239E+02  0.00000000000E+00 0.  1.
</event>
<event>
12    1  0.9017558E-003  0.1842747E+03  0.7818608E-02  0.1163774E+00
         21   -1    0    0  501  502  0.00000000000E+00  0.00000000000E+00  0.81300591292E+02  0.81300591292E+02  0.00000000000E+00 0. -1.
         21   -1    0    0  502  503 -0.00000000000E+00 -0.00000000000E+00 -0.58902010619E+03  0.58902010619E+03  0.00000000000E+00 0. -1.
          6    2    1    2  501    0  0.20787338556E+02  0.63003806962E+02 -0.72954630257E+02  0.19819071272E+03  0.17191738539E+03 0.  0.
         24    2    3    3    0    0 -0.12221436652E+01 -0.29555346713E+02 -0.58785133845E+02  0.10188661694E+03  0.77782893978E+02 0.  0.
         -6    2    1    2    0  503 -0.20787338556E+02 -0.63003806962E+02 -0.43476488464E+03  0.47212998476E+03  0.17171087459E+03 0.  0.
        -24    2    5    5    0    0 -0.64177240023E+01 -0.10140001959E+03 -0.22400105368E+03  0.25736444421E+03  0.75741890246E+02 0.  0.
          5    1    3    3  501    0  0.22009482222E+02  0.92559153675E+02 -0.14169496413E+02  0.96304095786E+02  0.47000000000E+01 0. -1.
        -13    1    4    4    0    0 -0.23590979201E+02 -0.39726335211E+02 -0.10015211411E+02  0.47276003094E+02  0.00000000000E+00 0.  1.
         14    1    4    4    0    0  0.22368835536E+02  0.10170988498E+02 -0.48769922433E+02  0.54610613844E+02  0.00000000000E+00 0. -1.
         -5    1    5    5    0  503 -0.14369614554E+02  0.38396212627E+02 -0.21076383097E+03  0.21476554055E+03  0.47000000000E+01 0.  1.
         11    1    6    6    0    0  0.34027286379E+01 -0.27774434919E+02 -0.14973868028E+03  0.15233079193E+03  0.00000000000E+00 0. -1.
        -12    1    6    6    0    0 -0.98204526402E+01 -0.73625584669E+02 -0.74262373398E+02  0.10503365228E+03  0.00000000000E+00 0.  1.
</event>
<event>
12    1  0.9017558E-003  0.1893877E+03  0.7818608E-02  0.1159051E+00
         21   -1    0    0  503  502  0.00000000000E+00  0.00000000000E+00  0.51643254254E+03  0.51643254254E+03  0.00000000000E+00 0.  1.
         21   -1    0    0  501  503 -0.00000000000E+00 -0.00000000000E+00 -0.84274416071E+02  0.84274416071E+02  0.00000000000E+00 0.  1.
          6    2    1    2  501    0 -0.52851960352E+02  0.57382538469E+02  0.34236027768E+03  0.39125216624E+03  0.17257349861E+03 0.  0.
         24    2    3    3    0    0  0.32145298361E+02  0.20060380111E+02  0.12709929267E+03  0.15678071987E+03  0.83607564675E+02 0.  0.
         -6    2    1    2    0  502  0.52851960352E+02 -0.57382538469E+02  0.89797848796E+02  0.20945479238E+03  0.17239945176E+03 0.  0.
        -24    2    5    5    0    0  0.11497976908E+02  0.33739905256E+02  0.32259135376E+02  0.93928841875E+02  0.80693189558E+02 0.  0.
          5    1    3    3  501    0 -0.84997258713E+02  0.37322158358E+02  0.21526098501E+03  0.23447144637E+03  0.47000000000E+01 0. -1.
        -11    1    4    4    0    0  0.55168537252E+01 -0.16099253849E+02  0.10565489935E+03  0.10701672489E+03  0.00000000000E+00 0.  1.
         12    1    4    4    0    0  0.26628444636E+02  0.36159633960E+02  0.21444393312E+02  0.49763994980E+02  0.00000000000E+00 0. -1.
         -5    1    5    5    0  502  0.41353983445E+02 -0.91122443725E+02  0.57538713420E+02  0.11552595050E+03  0.47000000000E+01 0.  1.
         13    1    6    6    0    0  0.22413223333E+02  0.42912654022E+02  0.51040327214E+02  0.70348869625E+02  0.00000000000E+00 0. -1.
        -14    1    6    6    0    0 -0.10915246426E+02 -0.91727487660E+01 -0.18781191838E+02  0.23579972250E+02  0.00000000000E+00 0.  1.
</event>
<event>
12    1  0.9017558E-003  0.1816977E+03  0.7818608E-02  0.1166525E+00
         21   -1    0    0  501  502  0.00000000000E+00  0.00000000000E+00  0.21408605822E+03  0.21408605822E+03  0.00000000000E+00 0.  1.
         21   -1    0    0  502  503 -0.00000000000E+00 -0.00000000000E+00 -0.26532100437E+03  0.26532100437E+03  0.00000000000E+00 0.  1.
          6    2    1    2  501    0 -0.51309655505E+02  0.18467233525E+02  0.13031369397E+03  0.22359722283E+03  0.17332149250E+03 0.  0.
         24    2    3    3    0    0 -0.57680413250E+01  0.73106469081E+02  0.94900299337E+02  0.14400021784E+03  0.79700500637E+02 0.  0.
         -6    2    1    2    0  503  0.51309655505E+02 -0.18467233525E+02 -0.18154864011E+03  0.25580983975E+03  0.17177032900E+03 0.  0.
        -24    2    5    5    0    0  0.60676812132E+02 -0.28220723302E+02 -0.40421568668E+02  0.11395845809E+03  0.82912859086E+02 0.  0.
          5    1    3    3  501    0 -0.45541614180E+02 -0.54639235556E+02  0.35413394629E+02  0.79597004990E+02  0.47000000000E+01 0. -1.
        -11    1    4    4    0    0  0.12777508805E+02 -0.69713220187E+01  0.46245953951E+02  0.48482494973E+02  0.00000000000E+00 0.  1.
         12    1    4    4    0    0 -0.18545550130E+02  0.80077791099E+02  0.48654345386E+02  0.95517722868E+02  0.00000000000E+00 0. -1.
         -5    1    5    5    0  503 -0.93671566267E+01  0.97534897771E+01 -0.14112707144E+03  0.14185138167E+03  0.47000000000E+01 0.  1.
         11    1    6    6    0    0  0.18645065509E+02  0.15862490207E+02  0.17353239200E+02  0.30006532191E+02  0.00000000000E+00 0. -1.
        -12    1    6    6    0    0  0.42031746623E+02 -0.44083213509E+02 -0.57774807867E+02  0.83951925896E+02  0.00000000000E+00 0.  1.
</event>
<event>
12    1  0.9017558E-003  0.2081257E+03  0.7818608E-02  0.1143442E+00
         21   -1    0    0  503  502  0.00000000000E+00  0.00000000000E+00  0.74885365973E+03  0.74885365973E+03  0.00000000000E+00 0.  1.
         21   -1    0    0  501  503 -0.00000000000E+00 -0.00000000000E+00 -0.58462218869E+02  0.58462218869E+02  0.00000000000E+00 0.  1.
          6    2    1    2  501    0  0.86602913333E+02 -0.69360023928E+02  0.40328689753E+03  0.45382446133E+03  0.17608362350E+03 0.  0.
         24    2    3    3    0    0  0.27104595950E+02 -0.52132927048E+02  0.84397179955E+02  0.12894053650E+03  0.77783525019E+02 0.  0.
         -6    2    1    2    0  502 -0.86602913333E+02  0.69360023928E+02  0.28710454333E+03  0.35349141727E+03  0.17382832267E+03 0.  0.
        -24    2    5    5    0    0 -0.69277448247E+01  0.57456497541E+02  0.72490276409E+02  0.12420731406E+03  0.82603716224E+02 0.  0.
          5    1    3    3  501    0  0.59498317383E+02 -0.17227096880E+02  0.31888971757E+03  0.32488392483E+03  0.47000000000E+01 0. -1.
        -13    1    4    4    0    0  0.26887278534E+02 -0.67434993899E+02  0.42012365785E+02  0.83877547817E+02  0.00000000000E+00 0.  1.
         14    1    4    4    0    0  0.21731741663E+00  0.15302066851E+02  0.42384814170E+02  0.45062988683E+02  0.00000000000E+00 0. -1.
         -5    1    5    5    0  502 -0.79675168508E+02  0.11903526386E+02  0.21461426692E+03  0.22928410321E+03  0.47000000000E+01 0.  1.
         11    1    6    6    0    0  0.31733483246E+02  0.19304303584E+02  0.56445820180E+02  0.67570708976E+02  0.00000000000E+00 0. -1.
        -12    1    6    6    0    0 -0.38661228070E+02  0.38152193957E+02  0.16044456229E+02  0.56636605083E+02  0.00000000000E+00 0.  1.
</event>
<event>
12    1  0.9017558E-003  0.1901115E+03  0.7818608E-02  0.1161632E+00
         21   -1    0    0  503  502  0.00000000000E+00  0.00000000000E+00  0.44118680986E+03  0.44118680986E+03  0.00000000000E+00 0. -1.
         21   -1    0    0  501  503 -0.00000000000E+00 -0.00000000000E+00 -0.96521769146E+02  0.96521769146E+02  0.00000000000E+00 0.  1.
          6    2    1    2  501    0  0.80495019718E+02 -0.88923818957E+00  0.43342830242E+02  0.18142577052E+03  0.15670504245E+03 0.  0.
         24    2    3    3    0    0 -0.22129188144E+02  0.54681689048E+01  0.17758575164E+02  0.75365463275E+02  0.69605920895E+02 0.  0.
         -6    2    1    2    0  502 -0.80495019718E+02  0.88923818957E+00  0.30132221047E+03  0.35628280849E+03  0.17222696118E+03 0.  0.
        -24    2    5    5    0    0 -0.39588525704E+02 -0.15244852800E+02  0.29799118994E+03  0.31193378548E+03  0.81879669858E+02 0.  0.
          5    1    3    3  501    0  0.10262420786E+03 -0.63574070944E+01  0.25584255078E+02  0.10606030724E+03  0.47000000000E+01 0. -1.
        -13    1    4    4    0    0 -0.15711592492E+01  0.43804795837E+01 -0.26313703301E+02  0.26722053143E+02  0.00000000000E+00 0.  1.
         14    1    4    4    0    0 -0.20558028895E+02  0.10876893211E+01  0.44072278465E+02  0.48643410131E+02  0.00000000000E+00 0. -1.
         -5    1    5    5    0  502 -0.40906494015E+02  0.16134090989E+02  0.33310205356E+01  0.44349023015E+02  0.47000000000E+01 0.  1.
         13    1    6    6    0    0 -0.95801567594E+01 -0.32549438166E+02  0.43858066013E+02  0.55450656289E+02  0.00000000000E+00 0. -1.
        -14    1    6    6    0    0 -0.30008368944E+02  0.17304585366E+02  0.25413312393E+03  0.25648312919E+03  0.00000000000E+00 0.  1.
</event>
<event>
12    1  0.9017558E-003  0.2483816E+03  0.7818608E-02  0.1114507E+00
         21   -1    0    0  503  502  0.00000000000E+00  0.00000000000E+00  0.18648685079E+03  0.18648685079E+03  0.00000000000E+00 0. -1.
         21   -1    0    0  501  503 -0.00000000000E+00 -0.00000000000E+00 -0.33698634779E+03  0.33698634779E+03  0.00000000000E+00 0.  1.
          6    2    1    2  501    0 -0.15216202659E+03 -0.92551000297E+02 -0.35704493697E+02  0.24984694196E+03  0.17155090657E+03 0.  0.
         24    2    3    3    0    0 -0.12989260765E+03 -0.36302776647E+01 -0.34548838333E+01  0.15255897112E+03  0.79856339825E+02 0.  0.
         -6    2    1    2    0  502  0.15216202659E+03  0.92551000297E+02 -0.11479500330E+03  0.27362625662E+03  0.17313135342E+03 0.  0.
        -24    2    5    5    0    0  0.21513122267E+02  0.77746906262E+02 -0.75585511365E+02  0.13633906982E+03  0.79798349404E+02 0.  0.
          5    1    3    3  501    0 -0.22269418947E+02 -0.88920722633E+02 -0.32249609864E+02  0.97287970840E+02  0.47000000000E+01 0. -1.
        -11    1    4    4    0    0 -0.66852554159E+01 -0.18050382765E+02 -0.19591862566E+02  0.27465433489E+02  0.00000000000E+00 0.  1.
         12    1    4    4    0    0 -0.12320735223E+03  0.14420105100E+02  0.16136978733E+02  0.12509353763E+03  0.00000000000E+00 0. -1.
         -5    1    5    5    0  502  0.13064890433E+03  0.14804094035E+02 -0.39209491937E+02  0.13728718680E+03  0.47000000000E+01 0.  1.
         13    1    6    6    0    0  0.12936007512E+02  0.33474918997E+02  0.11988015112E+02  0.37836794243E+02  0.00000000000E+00 0. -1.
        -14    1    6    6    0    0  0.85771147545E+01  0.44271987265E+02 -0.87573526477E+02  0.98502275576E+02  0.00000000000E+00 0.  1.
</event>
<event>
12    1  0.9017558E-003  0.1834066E+03  0.7818608E-02  0.1164667E+00
         21   -1    0    0  501  502  0.00000000000E+00  0.00000000000E+00  0.38402494854E+03  0.38402494854E+03  0.00000000000E+00 0. -1.
         21   -1    0    0  502  503 -0.00000000000E+00 -0.00000000000E+00 -0.10993373300E+03  0.10993373300E+03  0.00000000000E+00 0. -1.
          6    2    1    2  501    0  0.30501534086E+02  0.54925161554E+02  0.24913811583E+03  0.30936677050E+03  0.17231042039E+03 0.  0.
         24    2    3    3    0    0  0.19866205746E+02 -0.29835907253E+02  0.17543409299E+03  0.19644236225E+03  0.80793769643E+02 0.  0.
         -6    2    1    2    0  503 -0.30501534086E+02 -0.54925161554E+02  0.24953099699E+02  0.18459191104E+03  0.17176844729E+03 0.  0.
        -24    2    5    5    0    0 -0.16604389454E+02 -0.36210904018E+02  0.81050020213E+02  0.12366319404E+03  0.84478070913E+02 0.  0.
          5    1    3    3  501    0  0.10635328340E+02  0.84761068807E+02  0.73704022847E+02  0.11292440825E+03  0.47000000000E+01 0. -1.
        -13    1    4    4    0    0  0.13434097155E+02  0.61896875034E+01 -0.23094378007E+01  0.14970661332E+02  0.00000000000E+00 0.  1.
         14    1    4    4    0    0  0.64321085911E+01 -0.36025594757E+02  0.17774353079E+03  0.18147170092E+03  0.00000000000E+00 0. -1.
         -5    1    5    5    0  503 -0.13897144632E+02 -0.18714257536E+02 -0.56096920514E+02  0.60928716999E+02  0.47000000000E+01 0.  1.
         11    1    6    6    0    0  0.49707983557E+00  0.18440550515E+02 -0.60593579591E+01  0.19416920727E+02  0.00000000000E+00 0. -1.
        -12    1    6    6    0    0 -0.17101469289E+02 -0.54651454533E+02  0.87109378172E+02  0.10424627331E+03  0.00000000000E+00 0.  1.
</event>
<event>
12    1  0.9017558E-003  0.2230782E+03  0.7818608E-02  0.1131786E+00
         21   -1    0    0  503  502  0.00000000000E+00  0.00000000000E+00  0.52661862000E+03  0.52661862000E+03  0.00000000000E+00 0. -1.
         21   -1    0    0  501  503 -0.00000000000E+00 -0.00000000000E+00 -0.13596182138E+03  0.13596182138E+03  0.00000000000E+00 0.  1.
          6    2    1    2  501    0 -0.14032073904E+03 -0.53146724859E+01  0.37947156748E+03  0.44018466817E+03  0.17333700130E+03 0.  0.
         24    2    3    3    0    0 -0.34315696151E+02 -0.52079758534E+02  0.22216728090E+03  0.24476007666E+03  0.81604694556E+02 0.  0.
         -6    2    1    2    0  502  0.14032073904E+03  0.53146724859E+01  0.11185231139E+02  0.22239577321E+03  0.17209478492E+03 0.  0.
        -24    2    5    5    0    0  0.14235415716E+03 -0.40858332332E+02  0.21819820304E+02  0.17473797584E+03  0.90128498603E+02 0.  0.
          5    1    3    3  501    0 -0.10600504289E+03  0.46765086048E+02  0.15730428658E+03  0.19542459151E+03  0.47000000000E+01 0. -1.
        -13    1    4    4    0    0 -0.32344528290E+02 -0.59320858815E+02  0.22631499881E+03  0.23618554462E+03  0.00000000000E+00 0.  1.
         14    1    4    4    0    0 -0.19711678617E+01  0.72411002809E+01 -0.41477179044E+01  0.85745320474E+01  0.00000000000E+00 0. -1.
         -5    1    5    5    0  502 -0.20334181233E+01  0.46173004818E+02 -0.10634589165E+02  0.47657797367E+02  0.47000000000E+01 0.  1.
         13    1    6    6    0    0  0.69046960729E+02 -0.10480216771E+02  0.54833627385E+02  0.88792141666E+02  0.00000000000E+00 0. -1.
        -14    1    6    6    0    0  0.73307196433E+02 -0.30378115561E+02 -0.33013807081E+02  0.85945834175E+02  0.00000000000E+00 0.  1.
</event>
<event>
12    1  0.9017558E-003  0.1867735E+03  0.7818608E-02  0.1161581E+00
         21   -1    0    0  503  502  0.00000000000E+00  0.00000000000E+00  0.21582893455E+03  0.21582893455E+03  0.00000000000E+00 0.  1.
         21   -1    0    0  501  503 -0.00000000000E+00 -0.00000000000E+00 -0.16101378804E+03  0.16101378804E+03  0.00000000000E+00 0.  1.
          6    2    1    2  501    0  0.17906798445E+02 -0.72101605094E+02  0.24145831829E+02  0.18756788657E+03  0.17052681897E+03 0.  0.
         24    2    3    3    0    0  0.48496095497E+02 -0.84917794640E+02  0.59198096807E+02  0.13908375423E+03  0.79227349439E+02 0.  0.
         -6    2    1    2    0  502 -0.17906798445E+02  0.72101605094E+02  0.30669314685E+02  0.18927483603E+03  0.17136236985E+03 0.  0.
        -24    2    5    5    0    0 -0.41404308254E+02 -0.86918505662E+01 -0.77577995628E+01  0.96654921568E+02  0.86557064420E+02 0.  0.
          5    1    3    3  501    0 -0.30589297053E+02  0.12816189547E+02 -0.35052264978E+02  0.48484132340E+02  0.47000000000E+01 0. -1.
        -13    1    4    4    0    0  0.44613742773E+02 -0.16944304819E+02 -0.16780924399E+01  0.47752607303E+02  0.00000000000E+00 0.  1.
         14    1    4    4    0    0  0.38823527249E+01 -0.67973489821E+02  0.60876189247E+02  0.91331146923E+02  0.00000000000E+00 0. -1.
         -5    1    5    5    0  502  0.23497509809E+02  0.80793455660E+02  0.38427114248E+02  0.92619914458E+02  0.47000000000E+01 0.  1.
         11    1    6    6    0    0 -0.51011567539E+02 -0.28567431075E+02  0.19451248614E+02  0.61616793276E+02  0.00000000000E+00 0. -1.
        -12    1    6    6    0    0  0.96072592850E+01  0.19875580509E+02 -0.27209048177E+02  0.35038128292E+02  0.00000000000E+00 0.  1.
</event>
<event>
12    1  0.9017558E-003  0.1817963E+03  0.7818608E-02  0.1166851E+00
         21   -1    0    0  501  502  0.00000000000E+00  0.00000000000E+00  0.39139815236E+03  0.39139815236E+03  0.00000000000E+00 0. -1.
         21   -1    0    0  502  503 -0.00000000000E+00 -0.00000000000E+00 -0.83066633573E+02  0.83066633573E+02  0.00000000000E+00 0. -1.
          6    2    1    2  501    0  0.34480066700E+02 -0.38438960772E+02  0.16152504392E+03  0.24079402825E+03  0.17095319687E+03 0.  0.
         24    2    3    3    0    0  0.24554745555E+02 -0.69401865848E+02  0.17568452685E+03  0.20501981341E+03  0.75818971259E+02 0.  0.
         -6    2    1    2    0  503 -0.34480066700E+02  0.38438960772E+02  0.14680647487E+03  0.23367075769E+03  0.17430850017E+03 0.  0.
        -24    2    5    5    0    0 -0.14991728805E+02  0.83049386955E+02  0.14340737358E+03  0.18464495501E+03  0.80038315873E+02 0.  0.
          5    1    3    3  501    0  0.99253211448E+01  0.30962905076E+02 -0.14159482929E+02  0.35774214840E+02  0.47000000000E+01 0. -1.
        -11    1    4    4    0    0  0.21452865010E+01 -0.20168205690E+02  0.13705832480E+03  0.13855086853E+03  0.00000000000E+00 0.  1.
         12    1    4    4    0    0  0.22409459054E+02 -0.49233660158E+02  0.38626202050E+02  0.66468944873E+02  0.00000000000E+00 0. -1.
         -5    1    5    5    0  503 -0.19488337895E+02 -0.44610426183E+02  0.33991012828E+01  0.49025802672E+02  0.47000000000E+01 0.  1.
         13    1    6    6    0    0 -0.47391849596E+02  0.59909992732E+02  0.90466813428E+02  0.11840371180E+03  0.00000000000E+00 0. -1.
        -14    1    6    6    0    0  0.32400120791E+02  0.23139394223E+02  0.52940560155E+02  0.66241243209E+02  0.00000000000E+00 0.  1.
</event>
<event>
12    1  0.9017558E-003  0.2105577E+03  0.7818608E-02  0.1141480E+00
         21   -1    0    0  503  502  0.00000000000E+00  0.00000000000E+00  0.39481488966E+02  0.39481488966E+02  0.00000000000E+00 0. -1.
         21   -1    0    0  501  503 -0.00000000000E+00 -0.00000000000E+00 -0.19070835715E+04  0.19070835715E+04  0.00000000000E+00 0. -1.
          6    2    1    2  501    0  0.36914415962E+02  0.11565738163E+03 -0.15640173584E+04  0.15781270021E+04  0.17203265278E+03 0.  0.
         24    2    3    3    0    0 -0.12404346270E+02  0.13035051238E+03 -0.13054405410E+04  0.13144372434E+04  0.80156951224E+02 0.  0.
         -6    2    1    2    0  502 -0.36914415962E+02 -0.11565738163E+03 -0.30358472415E+03  0.36843805829E+03  0.16983407794E+03 0.  0.
        -24    2    5    5    0    0 -0.70765392854E+00 -0.77324492455E+02 -0.77501628569E+02  0.13623987545E+03  0.81087750762E+02 0.  0.
          5    1    3    3  501    0  0.49318762233E+02 -0.14693130750E+02 -0.25857681737E+03  0.26368975877E+03  0.47000000000E+01 0. -1.
        -11    1    4    4    0    0 -0.12148923370E+02  0.49019498791E+02 -0.21022750598E+03  0.21620849167E+03  0.00000000000E+00 0.  1.
         12    1    4    4    0    0 -0.25542290053E+00  0.81331013592E+02 -0.10952130350E+04  0.10982287517E+04  0.00000000000E+00 0. -1.
         -5    1    5    5    0  502 -0.36206762034E+02 -0.38332889178E+02 -0.22608309558E+03  0.23219818284E+03  0.47000000000E+01 0.  1.
         11    1    6    6    0    0  0.18130013388E+02 -0.85221747610E+02 -0.45549711610E+02  0.98316935870E+02  0.00000000000E+00 0. -1.
        -12    1    6    6    0    0 -0.18837667316E+02  0.78972551545E+01 -0.31951916959E+02  0.37922939578E+02  0.00000000000E+00 0.  1.
</event>
<event>
12    1  0.9017558E-003  0.1794602E+03  0.7818608E-02  0.1168349E+00
         21   -1    0    0  503  502  0.00000000000E+00  0.00000000000E+00  0.13034348729E+03  0.13034348729E+03  0.00000000000E+00 0. -1.
         21   -1    0    0  501  503 -0.00000000000E+00 -0.00000000000E+00 -0.26522925292E+03  0.26522925292E+03  0.00000000000E+00 0. -1.
          6    2    1    2  501    0 -0.12094428456E+02 -0.47951585049E+02 -0.11936800798E+03  0.21553348316E+03  0.17251182952E+03 0.  0.
         24    2    3    3    0    0 -0.59573944770E+02  0.15305403456E+02 -0.68362953845E+02  0.12130314509E+03  0.79105305007E+02 0.  0.
         -6    2    1    2    0  502  0.12094428456E+02  0.47951585049E+02 -0.15517757649E+02  0.18003925706E+03  0.17241723687E+03 0.  0.
        -24    2    5    5    0    0 -0.27698742107E+01  0.58217053985E+02 -0.70577727140E+02  0.12190133839E+03  0.80509770564E+02 0.  0.
          5    1    3    3  501    0  0.47479516314E+02 -0.63256988505E+02 -0.51005054138E+02  0.94230338065E+02  0.47000000000E+01 0. -1.
        -13    1    4    4    0    0 -0.18575787137E+02  0.41032948171E+02 -0.11224106132E+02  0.46419212206E+02  0.00000000000E+00 0.  1.
         14    1    4    4    0    0 -0.40998157633E+02 -0.25727544715E+02 -0.57138847713E+02  0.74883932885E+02  0.00000000000E+00 0. -1.
         -5    1    5    5    0  502  0.14864302666E+02 -0.10265468936E+02  0.55059969491E+02  0.58137918664E+02  0.47000000000E+01 0.  1.
         11    1    6    6    0    0 -0.12146979172E+02 -0.14637875210E+02 -0.35994914484E+02  0.40711796354E+02  0.00000000000E+00 0. -1.
        -12    1    6    6    0    0  0.93771049617E+01  0.72854929195E+02 -0.34582812656E+02  0.81189542040E+02  0.00000000000E+00 0.  1.
</event>
<event>
12    1  0.9017558E-003  0.1960384E+03  0.7818608E-02  0.1153793E+00
         21   -1    0    0  503  502  0.00000000000E+00  0.00000000000E+00  0.12175202669E+03  0.12175202669E+03  0.00000000000E+00 0. -1.
         21   -1    0    0  501  503 -0.00000000000E+00 -0.00000000000E+00 -0.31273988409E+03  0.31273988409E+03  0.00000000000E+00 0. -1.
          6    2    1    2  501    0 -0.90732185545E+02 -0.27087240806E+02 -0.11359934737E+03  0.22657417623E+03  0.17165371392E+03 0.  0.
         24    2    3    3    0    0 -0.53389694992E+02 -0.55934480498E+02 -0.11536921488E+02  0.11403327870E+03  0.83014230434E+02 0.  0.
         -6    2    1    2    0  502  0.90732185545E+02  0.27087240806E+02 -0.77388510028E+02  0.20791773455E+03  0.16815098795E+03 0.  0.
        -24    2    5    5    0    0  0.50400107621E+01  0.36857102229E+02  0.10943143514E+02  0.84373531821E+02  0.74935257315E+02 0.  0.
          5    1    3    3  501    0 -0.37342490552E+02  0.28847239692E+02 -0.10206242589E+03  0.11254089753E+03  0.47000000000E+01 0. -1.
        -11    1    4    4    0    0 -0.26982210537E+01  0.20610527809E+02 -0.76279070910E+01  0.22141798030E+02  0.00000000000E+00 0.  1.
         12    1    4    4    0    0 -0.50691473939E+02 -0.76545008307E+02 -0.39090143973E+01  0.91891480674E+02  0.00000000000E+00 0. -1.
         -5    1    5    5    0  502  0.85692174782E+02 -0.97698614232E+01 -0.88331653542E+02  0.12354420273E+03  0.47000000000E+01 0.  1.
         11    1    6    6    0    0  0.36881056639E+02  0.12922653098E+02 -0.85840218680E+01  0.40011157610E+02  0.00000000000E+00 0. -1.
        -12    1    6    6    0    0 -0.31841045877E+02  0.23934449132E+02  0.19527165382E+02  0.44362374211E+02  0.00000000000E+00 0.  1.
</event>
<event>
12    1  0.9017558E-003  0.2026074E+03  0.7818608E-02  0.1147826E+00
         21   -1    0    0  503  502  0.00000000000E+00  0.00000000000E+00  0.41464636578E+03  0.41464636578E+03  0.00000000000E+00 0.  1.
         21   -1    0    0  501  503 -0.00000000000E+00 -0.00000000000E+00 -0.10118777130E+03  0.10118777130E+03  0.00000000000E+00 0.  1.
          6    2    1    2  501    0 -0.17023664704E+02 -0.10494552916E+03  0.11418559882E+03  0.23256850067E+03  0.17247141003E+03 0.  0.
         24    2    3    3    0    0  0.48825698483E+02 -0.78332849457E+02  0.10564155555E+03  0.16087844538E+03  0.78751201843E+02 0.  0.
         -6    2    1    2    0  502  0.17023664704E+02  0.10494552916E+03  0.19927299567E+03  0.28326563641E+03  0.17095708443E+03 0.  0.
        -24    2    5    5    0    0  0.15416340714E+02  0.12541808965E+03  0.21162683806E+03  0.25884399344E+03  0.79037545370E+02 0.  0.
          5    1    3    3  501    0 -0.65849363187E+02 -0.26612679702E+02  0.85440432705E+01  0.71690055296E+02  0.47000000000E+01 0. -1.
        -13    1    4    4    0    0  0.29984366626E+02 -0.19300882455E+02 -0.30232562282E+01  0.35787237721E+02  0.00000000000E+00 0.  1.
         14    1    4    4    0    0  0.18841331857E+02 -0.59031967002E+02  0.10866481178E+03  0.12509120765E+03  0.00000000000E+00 0. -1.
         -5    1    5    5    0  502  0.16073239901E+01 -0.20472560493E+02 -0.12353842392E+02  0.24421642971E+02  0.47000000000E+01 0.  1.
         13    1    6    6    0    0 -0.25707282506E+02  0.26848676860E+02  0.87649230291E+02  0.95205584886E+02  0.00000000000E+00 0. -1.
        -14    1    6    6    0    0  0.41123623219E+02  0.98569412791E+02  0.12397760777E+03  0.16363840855E+03  0.00000000000E+00 0.  1.
</event>
<event>
12    1  0.9017558E-003  0.1828323E+03  0.7818608E-02  0.1165522E+00
         21   -1    0    0  503  502  0.00000000000E+00  0.00000000000E+00  0.67745265623E+02  0.67745265623E+02  0.00000000000E+00 0. -1.
         21   -1    0    0  501  503 -0.00000000000E+00 -0.00000000000E+00 -0.51853974483E+03  0.51853974483E+03  0.00000000000E+00 0. -1.
          6    2    1    2  501    0  0.30215073029E+02  0.51888729549E+02 -0.29483397276E+03  0.34596991334E+03  0.17077095348E+03 0.  0.
         24    2    3    3    0    0  0.29214182584E+02  0.77177677675E+02 -0.10966605005E+03  0.15902130468E+03  0.80319800883E+02 0.  0.
         -6    2    1    2    0  502 -0.30215073029E+02 -0.51888729549E+02 -0.15596050644E+03  0.24031509711E+03  0.17269127203E+03 0.  0.
        -24    2    5    5    0    0  0.42678128228E+01 -0.93846251450E+02 -0.81949635416E+02  0.14839555571E+03  0.80499472497E+02 0.  0.
          5    1    3    3  501    0  0.10008904449E+01 -0.25288948127E+02 -0.18516792271E+03  0.18694860866E+03  0.47000000000E+01 0. -1.
        -11    1    4    4    0    0 -0.16007404003E+02  0.66029611856E+02 -0.73171918955E+02  0.99851271141E+02  0.00000000000E+00 0.  1.
         12    1    4    4    0    0  0.45221586587E+02  0.11148065819E+02 -0.36494131098E+02  0.59170033544E+02  0.00000000000E+00 0. -1.
         -5    1    5    5    0  502 -0.34482885852E+02  0.41957521901E+02 -0.74010871029E+02  0.91919541400E+02  0.47000000000E+01 0.  1.
         13    1    6    6    0    0 -0.37893833912E+02 -0.37484185959E+02 -0.33765094016E+02  0.63095866897E+02  0.00000000000E+00 0. -1.
        -14    1    6    6    0    0  0.42161646735E+02 -0.56362065492E+02 -0.48184541399E+02  0.85299688814E+02  0.00000000000E+00 0.  1.
</event>
<event>
12    1  0.9017558E-003  0.2178900E+03  0.7818608E-02  0.1135611E+00
         21   -1    0    0  503  502  0.00000000000E+00  0.00000000000E+00  0.12065210171E+04  0.12065210171E+04  0.00000000000E+00 0. -1.
         21   -1    0    0  501  503 -0.00000000000E+00 -0.00000000000E+00 -0.41238587518E+02  0.41238587518E+02  0.00000000000E+00 0. -1.
          6    2    1    2  501    0 -0.98744830751E+02 -0.88615764282E+02  0.44529693433E+03  0.49574733151E+03  0.17283738514E+03 0.  0.
         24    2    3    3    0    0 -0.76108968685E+00  0.64156461056E+01  0.13226976752E+03  0.15422152043E+03  0.79039522980E+02 0.  0.
         -6    2    1    2    0  502  0.98744830751E+02  0.88615764282E+02  0.71998549522E+03  0.75201227307E+03  0.17187219158E+03 0.  0.
        -24    2    5    5    0    0  0.32814156538E+02 -0.20161337536E+02  0.27047242131E+03  0.28482558094E+03  0.80542116129E+02 0.  0.
          5    1    3    3  501    0 -0.97983741064E+02 -0.95031410387E+02  0.31302716681E+03  0.34152581108E+03  0.47000000000E+01 0. -1.
        -13    1    4    4    0    0 -0.69767753345E+01 -0.46947065256E+01  0.13938419300E+03  0.13963763434E+03  0.00000000000E+00 0.  1.
         14    1    4    4    0    0  0.62156856477E+01  0.11110352631E+02 -0.71144254873E+01  0.14583886097E+02  0.00000000000E+00 0. -1.
         -5    1    5    5    0  502  0.65930674213E+02  0.10877710182E+03  0.44951307391E+03  0.46718669212E+03  0.47000000000E+01 0.  1.
         13    1    6    6    0    0  0.25418560407E+01  0.29466913447E+02  0.11791425136E+03  0.12156698028E+03  0.00000000000E+00 0. -1.
        -14    1    6    6    0    0  0.30272300498E+02 -0.49628250983E+02  0.15255816995E+03  0.16325860067E+03  0.00000000000E+00 0.  1.
</event>
<event>
12    1  0.9017558E-003  0.1902403E+03  0.7818608E-02  0.1158710E+00
         21   -1    0    0  501  502  0.00000000000E+00  0.00000000000E+00  0.29326253847E+03  0.29326253847E+03  0.00000000000E+00 0. -1.
         21   -1    0    0  502  503 -0.00000000000E+00 -0.00000000000E+00 -0.13276311310E+03  0.13276311310E+03  0.00000000000E+00 0.  1.
          6    2    1    2  501    0  0.80187573683E+02 -0.22513541627E+02  0.14107759563E+03  0.23684227255E+03  0.17103937426E+03 0.  0.
         24    2    3    3    0    0  0.44731572560E+02  0.14613948630E+02  0.60741858364E+01  0.92330718673E+02  0.79205964415E+02 0.  0.
         -6    2    1    2    0  503 -0.80187573683E+02  0.22513541627E+02  0.19421829739E+02  0.18918337903E+03  0.16874903525E+03 0.  0.
        -24    2    5    5    0    0 -0.75853446896E+02 -0.44816005689E+02  0.29966253333E+02  0.12073392712E+03  0.76918691146E+02 0.  0.
          5    1    3    3  501    0  0.35456001123E+02 -0.37127490258E+02  0.13500340979E+03  0.14451155388E+03  0.47000000000E+01 0. -1.
        -13    1    4    4    0    0  0.22958043893E+02  0.46391654169E+02 -0.56388404340E+01  0.52067781568E+02  0.00000000000E+00 0.  1.
         14    1    4    4    0    0  0.21773528666E+02 -0.31777705539E+02  0.11713026270E+02  0.40262937105E+02  0.00000000000E+00 0. -1.
         -5    1    5    5    0  503 -0.43341267865E+01  0.67329547317E+02 -0.10544423595E+02  0.68449451903E+02  0.47000000000E+01 0.  1.
         13    1    6    6    0    0 -0.81405978239E+02 -0.25627093637E+02  0.75787328208E+00  0.85347850549E+02  0.00000000000E+00 0. -1.
        -14    1    6    6    0    0  0.55525313434E+01 -0.19188912052E+02  0.29208380051E+02  0.35386076574E+02  0.00000000000E+00 0.  1.
</event>
<event>
12    1  0.9017558E-003  0.2587129E+03  0.7818608E-02  0.1110612E+00
         21   -1    0    0  501  502  0.00000000000E+00  0.00000000000E+00  0.13715835811E+03  0.13715835811E+03  0.00000000000E+00 0.  1.
         21   -1    0    0  502  503 -0.00000000000E+00 -0.00000000000E+00 -0.91837240012E+03  0.91837240012E+03  0.00000000000E+00 0.  1.
          6    2    1    2  501    0 -0.16207748001E+03  0.53598146302E+02 -0.96295944773E+01  0.24172801776E+03  0.17087373896E+03 0.  0.
         24    2    3    3    0    0 -0.62753353682E+02  0.82656946467E+02  0.18064296460E+02  0.13449585125E+03  0.83622132236E+02 0.  0.
         -6    2    1    2    0  503  0.16207748001E+03 -0.53598146302E+02 -0.77158444753E+03  0.81380274048E+03  0.19439771072E+03 0.  0.
        -24    2    5    5    0    0  0.10452808878E+02 -0.48491738545E+02 -0.18323726692E+03  0.20619216517E+03  0.80489769968E+02 0.  0.
          5    1    3    3  501    0 -0.99324126328E+02 -0.29058800164E+02 -0.27693890938E+02  0.10723216650E+03  0.47000000000E+01 0. -1.
        -11    1    4    4    0    0 -0.58106009285E+02  0.14363610543E+02  0.26628208585E+02  0.65510938898E+02  0.00000000000E+00 0.  1.
         12    1    4    4    0    0 -0.46473443966E+01  0.68293335924E+02 -0.85639121245E+01  0.68984912353E+02  0.00000000000E+00 0. -1.
         -5    1    5    5    0  503  0.15162467113E+03 -0.51064077573E+01 -0.58834718061E+03  0.60761057531E+03  0.47000000000E+01 0.  1.
         11    1    6    6    0    0  0.28158961896E+02 -0.24342627946E+02 -0.24284850323E+02  0.44443724255E+02  0.00000000000E+00 0. -1.
        -12    1    6    6    0    0 -0.17706153018E+02 -0.24149110599E+02 -0.15895241660E+03  0.16174844092E+03  0.00000000000E+00 0.  1.
</event>
<event>
12    1  0.9017558E-003  0.1772834E+03  0.7818608E-02  0.1171007E+00
         21   -1    0    0  501  502  0.00000000000E+00  0.00000000000E+00  0.19606788192E+03  0.19606788192E+03  0.00000000000E+00 0. -1.
         21   -1    0    0  502  503 -0.00000000000E+00 -0.00000000000E+00 -0.24945117022E+03  0.24945117022E+03  0.00000000000E+00 0. -1.
          6    2    1    2  501    0 -0.19714995887E+02 -0.41284546625E+02  0.10806214667E+03  0.20573993012E+03  0.16899229701E+03 0.  0.
         24    2    3    3    0    0  0.43683529071E+02 -0.71353621204E+01  0.94910451696E+02  0.13238737836E+03  0.80989258564E+02 0.  0.
         -6    2    1    2    0  503  0.19714995887E+02  0.41284546625E+02 -0.16144543497E+03  0.23977912202E+03  0.17127844007E+03 0.  0.
        -24    2    5    5    0    0 -0.43439481219E+02  0.56886202145E+02 -0.94218136157E+02  0.14611216232E+03  0.85724432190E+02 0.  0.
          5    1    3    3  501    0 -0.63398524958E+02 -0.34149184504E+02  0.13151694971E+02  0.73352551760E+02  0.47000000000E+01 0. -1.
        -11    1    4    4    0    0  0.11620937849E+02 -0.33380559240E+02  0.81978020304E+01  0.36283768958E+02  0.00000000000E+00 0.  1.
         12    1    4    4    0    0  0.32062591222E+02  0.26245197119E+02  0.86712649666E+02  0.96103609401E+02  0.00000000000E+00 0. -1.
         -5    1    5    5    0  503  0.63154477106E+02 -0.15601655520E+02 -0.67227298813E+02  0.93666959698E+02  0.47000000000E+01 0.  1.
         13    1    6    6    0    0  0.15751841367E+02  0.29902981633E+02 -0.68075959193E+02  0.76004243546E+02  0.00000000000E+00 0. -1.
        -14    1    6    6    0    0 -0.59191322586E+02  0.26983220512E+02 -0.26142176965E+02  0.70107918776E+02  0.00000000000E+00 0.  1.
</event>
<event>
12    1  0.9017558E-003  0.3019676E+03  0.7818608E-02  0.1084340E+00
         21   -1    0    0  503  502  0.00000000000E+00  0.00000000000E+00  0.82268188957E+03  0.82268188957E+03  0.00000000000E+00 0.  1.
         21   -1    0    0  501  503 -0.00000000000E+00 -0.00000000000E+00 -0.25947669555E+03  0.25947669555E+03  0.00000000000E+00 0. -1.
          6    2    1    2  501    0  0.92094987732E+02  0.23065557322E+03 -0.12836758555E+03  0.32753462743E+03  0.17063767146E+03 0.  0.
         24    2    3    3    0    0  0.65893519540E+02  0.51085062877E+02 -0.18132920685E+02  0.11515323357E+03  0.77329327052E+02 0.  0.
         -6    2    1    2    0  502 -0.92094987732E+02 -0.23065557322E+03  0.69157277957E+03  0.75462395770E+03  0.17175834148E+03 0.  0.
        -24    2    5    5    0    0 -0.13522506163E+02 -0.17069156723E+03  0.33898883664E+03  0.38841794506E+03  0.81465326298E+02 0.  0.
          5    1    3    3  501    0  0.26201468191E+02  0.17957051035E+03 -0.11023466486E+03  0.21238139386E+03  0.47000000000E+01 0. -1.
        -13    1    4    4    0    0 -0.15045265352E+02 -0.10495568067E+01  0.54403885263E+01  0.16033072267E+02  0.00000000000E+00 0.  1.
         14    1    4    4    0    0  0.80938784892E+02  0.52134619684E+02 -0.23573309211E+02  0.99120161302E+02  0.00000000000E+00 0. -1.
         -5    1    5    5    0  502 -0.78572481569E+02 -0.59964005994E+02  0.35258394293E+03  0.36620601263E+03  0.47000000000E+01 0.  1.
         11    1    6    6    0    0  0.26678429405E+02 -0.12049361128E+03  0.24781943734E+03  0.27684819392E+03  0.00000000000E+00 0. -1.
        -12    1    6    6    0    0 -0.40200935568E+02 -0.50197955946E+02  0.91169399297E+02  0.11156975114E+03  0.00000000000E+00 0.  1.
</event>
<event>
12    1  0.9017558E-003  0.2222972E+03  0.7818608E-02  0.1132677E+00
         21   -1    0    0  503  502  0.00000000000E+00  0.00000000000E+00  0.32069401819E+03  0.32069401819E+03  0.00000000000E+00 0.  1.
         21   -1    0    0  501  503 -0.00000000000E+00 -0.00000000000E+00 -0.19076921316E+03  0.19076921316E+03  0.00000000000E+00 0. -1.
          6    2    1    2  501    0 -0.10505843639E+03 -0.88738749702E+02 -0.49646026760E+02  0.22777347711E+03  0.17465448219E+03 0.  0.
         24    2    3    3    0    0 -0.48880426594E+02 -0.79225046060E+02  0.32744910912E+02  0.12748970000E+03  0.80718587626E+02 0.  0.
         -6    2    1    2    0  502  0.10505843639E+03  0.88738749702E+02  0.17957083179E+03  0.28368975424E+03  0.17123770693E+03 0.  0.
        -24    2    5    5    0    0  0.86505417466E+02  0.67709283774E+02  0.40729512939E+02  0.14196659181E+03  0.80174095608E+02 0.  0.
          5    1    3    3  501    0 -0.56178009798E+02 -0.95137036419E+01 -0.82390937672E+02  0.10028377711E+03  0.47000000000E+01 0. -1.
        -11    1    4    4    0    0  0.20131369943E+02 -0.68514020969E+01 -0.26017310090E+01  0.21423883185E+02  0.00000000000E+00 0.  1.
         12    1    4    4    0    0 -0.69011796537E+02 -0.72373643963E+02  0.35346641921E+02  0.10606581682E+03  0.00000000000E+00 0. -1.
         -5    1    5    5    0  502  0.18553018926E+02  0.21029465928E+02  0.13884131885E+03  0.14172316243E+03  0.47000000000E+01 0.  1.
         11    1    6    6    0    0  0.59994140200E+02 -0.29614175538E+01  0.12321554804E+02  0.61317922055E+02  0.00000000000E+00 0. -1.
        -12    1    6    6    0    0  0.26511277265E+02  0.70670701328E+02  0.28407958135E+02  0.80648669758E+02  0.00000000000E+00 0.  1.
</event>
<event>
12    1  0.9017558E-003  0.1728792E+03  0.7818608E-02  0.1174957E+00
         21   -1    0    0  501  502  0.00000000000E+00  0.00000000000E+00  0.14131907553E+04  0.14131907553E+04  0.00000000000E+00 0. -1.
         21   -1    0    0  502  503 -0.00000000000E+00 -0.00000000000E+00 -0.22160738046E+02  0.22160738046E+02  0.00000000000E+00 0. -1.
          6    2    1    2  501    0  0.20163489896E+02  0.90551262123E+01  0.85232236739E+03  0.86967846166E+03  0.17146033679E+03 0.  0.
         24    2    3    3    0    0  0.17646986581E+02 -0.40862154059E+02  0.27002764382E+03  0.28522375618E+03  0.80352541312E+02 0.  0.
         -6    2    1    2    0  503 -0.20163489896E+02 -0.90551262123E+01  0.53870764984E+03  0.56567303166E+03  0.17114755363E+03 0.  0.
        -24    2    5    5    0    0 -0.43429424858E+02 -0.64843629699E+02  0.34787449299E+03  0.36544055526E+03  0.80245406723E+02 0.  0.
          5    1    3    3  501    0  0.25165033146E+01  0.49917280271E+02  0.58229472357E+03  0.58445470548E+03  0.47000000000E+01 0. -1.
        -13    1    4    4    0    0 -0.25071833906E+02 -0.39766135699E+02  0.11077023699E+03  0.12033282099E+03  0.00000000000E+00 0.  1.
         14    1    4    4    0    0  0.42718820488E+02 -0.10960183595E+01  0.15925740683E+03  0.16489093520E+03  0.00000000000E+00 0. -1.
         -5    1    5    5    0  503  0.23265934962E+02  0.55788503487E+02  0.19083315684E+03  0.20023247639E+03  0.47000000000E+01 0.  1.
         13    1    6    6    0    0  0.20438386326E+02 -0.33736494539E+02  0.97327303439E+02  0.10501658295E+03  0.00000000000E+00 0. -1.
        -14    1    6    6    0    0 -0.63867811184E+02 -0.31107135161E+02  0.25054718955E+03  0.26042397232E+03  0.00000000000E+00 0.  1.
</event>
<event>
12    1  0.9017558E-003  0.2161229E+03  0.7818608E-02  0.1137435E+00
         21   -1    0    0  503  502  0.00000000000E+00  0.00000000000E+00  0.13306505008E+03  0.13306505008E+03  0.00000000000E+00 0. -1.
         21   -1    0    0  501  503 -0.00000000000E+00 -0.00000000000E+00 -0.34600178828E+03  0.34600178828E+03  0.00000000000E+00 0. -1.
          6    2    1    2  501    0  0.11607933779E+03 -0.56650341395E+02 -0.11388397060E+03  0.24429217399E+03  0.17327848589E+03 0.  0.
         24    2    3    3    0    0  0.70133354732E+00  0.91764416461E+01 -0.27715727822E+02  0.85886664956E+02  0.80769169232E+02 0.  0.
         -6    2    1    2    0  502 -0.11607933779E+03  0.56650341395E+02 -0.99052767603E+02  0.23477466437E+03  0.16918634229E+03 0.  0.
        -24    2    5    5    0    0 -0.14340172118E+03  0.23945264643E+02 -0.60448327026E+02  0.17708127210E+03  0.81033001608E+02 0.  0.
          5    1    3    3  501    0  0.11537800424E+03 -0.65826783041E+02 -0.86168242779E+02  0.15840550904E+03  0.47000000000E+01 0. -1.
        -11    1    4    4    0    0 -0.31795953707E+02  0.16662659675E+02 -0.36712249538E+02  0.51346043331E+02  0.00000000000E+00 0.  1.
         12    1    4    4    0    0  0.32497287255E+02 -0.74862180284E+01  0.89965217156E+01  0.34540621625E+02  0.00000000000E+00 0. -1.
         -5    1    5    5    0  502  0.27322383391E+02  0.32705076752E+02 -0.38604440577E+02  0.57693392271E+02  0.47000000000E+01 0.  1.
         13    1    6    6    0    0  0.84778090799E+01  0.11174122048E+02 -0.48102180408E+01  0.14828096572E+02  0.00000000000E+00 0. -1.
        -14    1    6    6    0    0 -0.15187953026E+03  0.12771142594E+02 -0.55638108985E+02  0.16225317552E+03  0.00000000000E+00 0.  1.
</event>
<event>
12    1  0.9017558E-003  0.2040415E+03  0.7818608E-02  0.1146950E+00
         21   -1    0    0  503  502  0.00000000000E+00  0.00000000000E+00  0.18772438145E+03  0.18772438145E+03  0.00000000000E+00 0.  1.
         21   -1    0    0  501  503 -0.00000000000E+00 -0.00000000000E+00 -0.26710906613E+03  0.26710906613E+03  0.00000000000E+00 0.  1.
          6    2    1    2  501    0  0.91624681141E+01 -0.10650182417E+03 -0.13666737462E+03  0.24558282463E+03  0.17379977874E+03 0.  0.
         24    2    3    3    0    0  0.39853537399E+02 -0.12685745689E+03 -0.72329265711E+02  0.17130109218E+03  0.80196151348E+02 0.  0.
         -6    2    1    2    0  502 -0.91624681141E+01  0.10650182417E+03  0.57282689938E+02  0.20925062296E+03  0.17052251249E+03 0.  0.
        -24    2    5    5    0    0 -0.17942800863E+00  0.11920742226E+03 -0.59992142734E+01  0.14391444130E+03  0.80404814082E+02 0.  0.
          5    1    3    3  501    0 -0.30691069285E+02  0.20355632719E+02 -0.64338108910E+02  0.74281732447E+02  0.47000000000E+01 0. -1.
        -13    1    4    4    0    0 -0.76232153211E+01 -0.91439300907E+02 -0.63087150573E+02  0.11135190941E+03  0.00000000000E+00 0.  1.
         14    1    4    4    0    0  0.47476752720E+02 -0.35418155985E+02 -0.92421151385E+01  0.59949182767E+02  0.00000000000E+00 0. -1.
         -5    1    5    5    0  502 -0.89830401054E+01 -0.12705598087E+02  0.63281904212E+02  0.65336181653E+02  0.47000000000E+01 0.  1.
         13    1    6    6    0    0  0.33272237370E+02  0.43253704916E+02 -0.22962494262E+02  0.59204737237E+02  0.00000000000E+00 0. -1.
        -14    1    6    6    0    0 -0.33451665379E+02  0.75953717345E+02  0.16963279989E+02  0.84709704067E+02  0.00000000000E+00 0.  1.
</event>
<event>
12    1  0.9017558E-003  0.1870983E+03  0.7818608E-02  0.1163152E+00
         21   -1    0    0  503  502  0.00000000000E+00  0.00000000000E+00  0.16664167567E+03  0.16664167567E+03  0.00000000000E+00 0. -1.
         21   -1    0    0  501  503 -0.00000000000E+00 -0.00000000000E+00 -0.21946076438E+03  0.21946076438E+03  0.00000000000E+00 0. -1.
          6    2    1    2  501    0 -0.41542556785E+02 -0.21606801319E+02 -0.82656495795E+02  0.19663993896E+03  0.17217006536E+03 0.  0.
         24    2    3    3    0    0 -0.66140601204E+02 -0.23245337993E+02  0.40301956190E+01  0.10639349271E+03  0.79927516839E+02 0.  0.
         -6    2    1    2    0  502  0.41542556785E+02  0.21606801319E+02  0.29837407085E+02  0.18946250109E+03  0.18114394986E+03 0.  0.
        -24    2    5    5    0    0  0.36622820028E+02  0.84012436804E+02  0.32991668327E+02  0.12660785517E+03  0.80881260661E+02 0.  0.
          5    1    3    3  501    0  0.24598044420E+02  0.16385366741E+01 -0.86686691414E+02  0.90246446246E+02  0.47000000000E+01 0. -1.
        -11    1    4    4    0    0 -0.28501283755E+02 -0.32262780158E+02  0.36058688289E+02  0.56155490918E+02  0.00000000000E+00 0.  1.
         12    1    4    4    0    0 -0.37639317450E+02  0.90174421642E+01 -0.32028492670E+02  0.50238001791E+02  0.00000000000E+00 0. -1.
         -5    1    5    5    0  502  0.49197367571E+01 -0.62405635485E+02 -0.31542612424E+01  0.62854645922E+02  0.47000000000E+01 0.  1.
         11    1    6    6    0    0  0.16986292719E+02  0.69613055239E+02 -0.14619015214E+02  0.73131574616E+02  0.00000000000E+00 0. -1.
        -12    1    6    6    0    0  0.19636527309E+02  0.14399381566E+02  0.47610683541E+02  0.53476280550E+02  0.00000000000E+00 0.  1.
</event>
<event>
12    1  0.9017558E-003  0.2007232E+03  0.7818608E-02  0.1152106E+00
         21   -1    0    0  503  502  0.00000000000E+00  0.00000000000E+00  0.62941225624E+03  0.62941225624E+03  0.00000000000E+00 0. -1.
         21   -1    0    0  501  503 -0.00000000000E+00 -0.00000000000E+00 -0.59790874533E+02  0.59790874533E+02  0.00000000000E+00 0. -1.
          6    2    1    2  501    0 -0.32167342062E+02  0.66451968120E+02  0.28410936555E+03  0.34786196050E+03  0.18665264532E+03 0.  0.
         24    2    3    3    0    0 -0.34775042506E+02 -0.41010942794E+02  0.15355997214E+03  0.17868657387E+03  0.73871683514E+02 0.  0.
         -6    2    1    2    0  502  0.32167342062E+02 -0.66451968120E+02  0.28551201616E+03  0.34134117027E+03  0.17188973556E+03 0.  0.
        -24    2    5    5    0    0 -0.20910345361E+02 -0.95574023045E+02  0.17458130519E+03  0.21487754854E+03  0.78243800537E+02 0.  0.
          5    1    3    3  501    0  0.26077004442E+01  0.10746291091E+03  0.13054939341E+03  0.16917538663E+03  0.47000000000E+01 0. -1.
        -11    1    4    4    0    0  0.17878866922E+02 -0.23144310740E+02  0.24475751700E+02  0.38136274377E+02  0.00000000000E+00 0.  1.
         12    1    4    4    0    0 -0.52653909428E+02 -0.17866632053E+02  0.12908422044E+03  0.14055029949E+03  0.00000000000E+00 0. -1.
         -5    1    5    5    0  502  0.53077687423E+02  0.29122054925E+02  0.11093071097E+03  0.12646362173E+03  0.47000000000E+01 0.  1.
         13    1    6    6    0    0  0.72983297412E+01 -0.96631774416E+02  0.13085882346E+03  0.16283426274E+03  0.00000000000E+00 0. -1.
        -14    1    6    6    0    0 -0.28208675102E+02  0.10577513715E+01  0.43722481724E+02  0.52043285802E+02  0.00000000000E+00 0.  1.
</event>
<event>
12    1  0.9017558E-003  0.1875213E+03  0.7818608E-02  0.1160721E+00
         21   -1    0    0  501  502  0.00000000000E+00  0.00000000000E+00  0.30683264418E+02  0.30683264418E+02  0.00000000000E+00 0.  1.
         21   -1    0    0  502  503 -0.00000000000E+00 -0.00000000000E+00 -0.11535738466E+04  0.11535738466E+04  0.00000000000E+00 0.  1.
          6    2    1    2  501    0  0.52862285129E+02 -0.51934857731E+02 -0.60974956626E+03  0.63793318919E+03  0.17225727755E+03 0.  0.
         24    2    3    3    0    0  0.27657636087E+02 -0.23429396454E+01 -0.54849540036E+03  0.55505499234E+03  0.80426401758E+02 0.  0.
         -6    2    1    2    0  503 -0.52862285129E+02  0.51934857731E+02 -0.51314101594E+03  0.54632392185E+03  0.17223377925E+03 0.  0.
        -24    2    5    5    0    0  0.23637482790E+02  0.28621521019E+02 -0.39472957110E+03  0.40335858889E+03  0.74221256202E+02 0.  0.
          5    1    3    3  501    0  0.25204649042E+02 -0.49591918085E+02 -0.61254165902E+02  0.82878196849E+02  0.47000000000E+01 0. -1.
        -11    1    4    4    0    0  0.54415750392E+02  0.94403404663E+01 -0.38913940160E+03  0.39303901562E+03  0.00000000000E+00 0.  1.
         12    1    4    4    0    0 -0.26758114305E+02 -0.11783280112E+02 -0.15935599876E+03  0.16201597672E+03  0.00000000000E+00 0. -1.
         -5    1    5    5    0  503 -0.76499767920E+02  0.23313336712E+02 -0.11841144484E+03  0.14296533296E+03  0.47000000000E+01 0.  1.
         13    1    6    6    0    0  0.16495808646E+02  0.52672693416E+02 -0.31420056319E+03  0.31901178387E+03  0.00000000000E+00 0. -1.
        -14    1    6    6    0    0  0.71416741440E+01 -0.24051172397E+02 -0.80529007912E+02  0.84346805028E+02  0.00000000000E+00 0.  1.
</event>
<event>
12    1  0.9017558E-003  0.2296469E+03  0.7818608E-02  0.1126963E+00
         21   -1    0    0  503  502  0.00000000000E+00  0.00000000000E+00  0.48217602319E+02  0.48217602319E+02  0.00000000000E+00 0. -1.
         21   -1    0    0  501  503 -0.00000000000E+00 -0.00000000000E+00 -0.11327276231E+04  0.11327276231E+04  0.00000000000E+00 0. -1.
          6    2    1    2  501    0  0.10277703340E+03 -0.11020144564E+03 -0.43041455865E+03  0.48784670854E+03  0.17329235851E+03 0.  0.
         24    2    3    3    0    0  0.60404345344E+02  0.67562415521E+01 -0.15152421754E+03  0.18243476108E+03  0.81415734431E+02 0.  0.
         -6    2    1    2    0  502 -0.10277703340E+03  0.11020144564E+03 -0.65409546212E+03  0.69309851686E+03  0.17273448788E+03 0.  0.
        -24    2    5    5    0    0  0.65035299845E+01  0.67234916748E+02 -0.21937277559E+03  0.24277167076E+03  0.79062250931E+02 0.  0.
          5    1    3    3  501    0  0.42372688060E+02 -0.11695768719E+03 -0.27889034110E+03  0.30541194745E+03  0.47000000000E+01 0. -1.
        -13    1    4    4    0    0  0.74317649830E+02  0.18737505322E+01 -0.15024889378E+03  0.16763458504E+03  0.00000000000E+00 0.  1.
         14    1    4    4    0    0 -0.13913304486E+02  0.48824910199E+01 -0.12753237597E+01  0.14800176046E+02  0.00000000000E+00 0. -1.
         -5    1    5    5    0  502 -0.10928056339E+03  0.42966528890E+02 -0.43472268653E+03  0.45032684610E+03  0.47000000000E+01 0.  1.
         11    1    6    6    0    0 -0.13814812219E+01 -0.80524174878E+01 -0.10681208584E+03  0.10712409439E+03  0.00000000000E+00 0. -1.
        -12    1    6    6    0    0  0.78850112064E+01  0.75287334236E+02 -0.11256068975E+03  0.13564757637E+03  0.00000000000E+00 0.  1.
</event>
<event>
12    1  0.9017558E-003  0.2156429E+03  0.7818608E-02  0.1138189E+00
         21   -1    0    0  501  502  0.00000000000E+00  0.00000000000E+00  0.22603306070E+03  0.22603306070E+03  0.00000000000E+00 0. -1.
         21   -1    0    0  502  503 -0.00000000000E+00 -0.00000000000E+00 -0.25210788331E+03  0.25210788331E+03  0.00000000000E+00 0.  1.
          6    2    1    2  501    0  0.11939707878E+03 -0.54101845354E+02  0.94975947549E+02  0.23084530585E+03  0.16457962367E+03 0.  0.
         24    2    3    3    0    0  0.15934586866E+02  0.15555805202E+02  0.20139354724E+02  0.85314274314E+02  0.79856356409E+02 0.  0.
         -6    2    1    2    0  503 -0.11939707878E+03  0.54101845354E+02 -0.12105077016E+03  0.24729563817E+03  0.17122841940E+03 0.  0.
        -24    2    5    5    0    0 -0.60270528829E+02  0.56693579057E+02 -0.23249994675E+01  0.11455316336E+03  0.79185371510E+02 0.  0.
          5    1    3    3  501    0  0.10346249191E+03 -0.69657650556E+02  0.74836592825E+02  0.14553103153E+03  0.47000000000E+01 0. -1.
        -13    1    4    4    0    0 -0.69811888638E+01  0.59318731537E+01  0.47485279568E+02  0.48360892183E+02  0.00000000000E+00 0.  1.
         14    1    4    4    0    0  0.22915775729E+02  0.96239320482E+01 -0.27345924844E+02  0.36953382131E+02  0.00000000000E+00 0. -1.
         -5    1    5    5    0  503 -0.59126549947E+02 -0.25917337029E+01 -0.11872577069E+03  0.13274247481E+03  0.47000000000E+01 0.  1.
         13    1    6    6    0    0  0.32565225117E+01  0.46679905794E+02  0.12748439964E+02  0.48498879011E+02  0.00000000000E+00 0. -1.
        -14    1    6    6    0    0 -0.63527051341E+02  0.10013673263E+02 -0.15073439432E+02  0.66054284347E+02  0.00000000000E+00 0.  1.
</event>
<event>
12    1  0.9017558E-003  0.2101379E+03  0.7818608E-02  0.1141647E+00
         21   -1    0    0  501  502  0.00000000000E+00  0.00000000000E+00  0.21769236179E+02  0.21769236179E+02  0.00000000000E+00 0. -1.
         21   -1    0    0  502  503 -0.00000000000E+00 -0.00000000000E+00 -0.20201234644E+04  0.20201234644E+04  0.00000000000E+00 0. -1.
          6    2    1    2  501    0 -0.70910861902E+02  0.95833466622E+02 -0.97499993787E+03  0.99718607939E+03  0.17188017462E+03 0.  0.
         24    2    3    3    0    0 -0.12728714226E+02  0.11808908501E+03 -0.59271617127E+03  0.60983166408E+03  0.80468296007E+02 0.  0.
         -6    2    1    2    0  503  0.70910861902E+02 -0.95833466622E+02 -0.10233542903E+04  0.10447066212E+04  0.17304773073E+03 0.  0.
        -24    2    5    5    0    0  0.80141173121E+02 -0.11435753343E+03 -0.66960881962E+03  0.69032506444E+03  0.93126098421E+02 0.  0.
          5    1    3    3  501    0 -0.58182147676E+02 -0.22255618387E+02 -0.38228376660E+03  0.38735441531E+03  0.47000000000E+01 0. -1.
        -13    1    4    4    0    0 -0.21164201884E+02  0.83983538791E+01 -0.37905019475E+02  0.44218166976E+02  0.00000000000E+00 0.  1.
         14    1    4    4    0    0  0.84354876581E+01  0.10969073113E+03 -0.55481115180E+03  0.56561349710E+03  0.00000000000E+00 0. -1.
         -5    1    5    5    0  503 -0.92303112184E+01  0.18524066807E+02 -0.35374547070E+03  0.35438155671E+03  0.47000000000E+01 0.  1.
         13    1    6    6    0    0  0.55769472634E+02 -0.95679296144E+02 -0.30603473571E+03  0.32545663498E+03  0.00000000000E+00 0. -1.
        -14    1    6    6    0    0  0.24371700487E+02 -0.18678237284E+02 -0.36357408391E+03  0.36486842947E+03  0.00000000000E+00 0.  1.
</event>
<event>
12    1  0.9017558E-003  0.1814890E+03  0.7818608E-02  0.1167766E+00
         21   -1    0    0  501  502  0.00000000000E+00  0.00000000000E+00  0.27459224625E+03  0.27459224625E+03  0.00000000000E+00 0.  1.
         21   -1    0    0  502  503 -0.00000000000E+00 -0.00000000000E+00 -0.11953123027E+03  0.11953123027E+03  0.00000000000E+00 0.  1.
          6    2    1    2  501    0 -0.39535643446E+02 -0.49190093351E+02  0.11166587131E+03  0.21309044813E+03  0.17016327419E+03 0.  0.
         24    2    3    3    0    0  0.29877048924E+02 -0.42162902301E+02  0.10752221852E+03  0.14304215668E+03  0.78928339209E+02 0.  0.
         -6    2    1    2    0  503  0.39535643446E+02  0.49190093351E+02  0.43395144661E+02  0.18103302839E+03  0.16403379652E+03 0.  0.
        -24    2    5    5    0    0  0.25057554786E+02  0.93761942520E+02  0.44536402846E+02  0.13391978970E+03  0.80819774672E+02 0.  0.
          5    1    3    3  501    0 -0.69412692370E+02 -0.70271910495E+01  0.41436527897E+01  0.70048291447E+02  0.47000000000E+01 0. -1.
        -11    1    4    4    0    0 -0.16563315056E+02  0.12123070374E+02  0.38899815175E+02  0.43983040613E+02  0.00000000000E+00 0.  1.
         12    1    4    4    0    0  0.46440363980E+02 -0.54285972675E+02  0.68622403346E+02  0.99059116071E+02  0.00000000000E+00 0. -1.
         -5    1    5    5    0  503  0.14478088661E+02 -0.44571849169E+02 -0.11412581844E+01  0.47113238690E+02  0.47000000000E+01 0.  1.
         11    1    6    6    0    0 -0.10448166767E+02  0.82631334317E+02  0.48693492852E+02  0.96478794799E+02  0.00000000000E+00 0. -1.
        -12    1    6    6    0    0  0.35505721552E+02  0.11130608203E+02 -0.41570900059E+01  0.37440994902E+02  0.00000000000E+00 0.  1.
</event>
<event>
12    1  0.9017558E-003  0.2184475E+03  0.7818608E-02  0.1135187E+00
         21   -1    0    0  501  502  0.00000000000E+00  0.00000000000E+00  0.80478848933E+02  0.80478848933E+02  0.00000000000E+00 0. -1.
         21   -1    0    0  502  503 -0.00000000000E+00 -0.00000000000E+00 -0.62148028747E+03  0.62148028747E+03  0.00000000000E+00 0. -1.
          6    2    1    2  501    0 -0.13338316009E+03 -0.21017057403E+02 -0.19310083046E+03  0.29156003927E+03  0.17171645722E+03 0.  0.
         24    2    3    3    0    0 -0.81618716717E+01  0.72899642463E+01 -0.11159135052E+03  0.13941687029E+03  0.82853331152E+02 0.  0.
         -6    2    1    2    0  503  0.13338316009E+03  0.21017057403E+02 -0.34790060808E+03  0.41039909713E+03  0.17076241309E+03 0.  0.
        -24    2    5    5    0    0 -0.59815302201E+00  0.94940844475E+01 -0.13245208409E+03  0.15638349198E+03  0.82593865139E+02 0.  0.
          5    1    3    3  501    0 -0.12522128842E+03 -0.28307021650E+02 -0.81509479933E+02  0.15214316898E+03  0.47000000000E+01 0. -1.
        -11    1    4    4    0    0  0.34230317173E+02 -0.30819431479E+00 -0.23989721425E+02  0.41800913046E+02  0.00000000000E+00 0.  1.
         12    1    4    4    0    0 -0.42392188844E+02  0.75981585611E+01 -0.87601629098E+02  0.97615957247E+02  0.00000000000E+00 0. -1.
         -5    1    5    5    0  503  0.13398131311E+03  0.11522972956E+02 -0.21544852399E+03  0.25401560515E+03  0.47000000000E+01 0.  1.
         13    1    6    6    0    0  0.15654575344E+02 -0.29175523609E+02 -0.26430465611E+02  0.42365627807E+02  0.00000000000E+00 0. -1.
        -14    1    6    6    0    0 -0.16252728366E+02  0.38669608057E+02 -0.10602161847E+03  0.11401786417E+03  0.00000000000E+00 0.  1.
</event>
<event>
12    1  0.9017558E-003  0.1862665E+03  0.7818608E-02  0.1161942E+00
         21   -1    0    0  501  502  0.00000000000E+00  0.00000000000E+00  0.90808093921E+02  0.90808093921E+02  0.00000000000E+00 0.  1.
         21   -1    0    0  502  503 -0.00000000000E+00 -0.00000000000E+00 -0.49845434041E+03  0.49845434041E+03  0.00000000000E+00 0.  1.
          6    2    1    2  501    0  0.56408893205E+02 -0.39339115010E+02 -0.60954157232E+02  0.19570098398E+03  0.17278291768E+03 0.  0.
         24    2    3    3    0    0  0.53195395713E+02 -0.63357424231E+02  0.14599570344E+02  0.11621726555E+03  0.80308106865E+02 0.  0.
         -6    2    1    2    0  503 -0.56408893205E+02  0.39339115010E+02 -0.34669208925E+03  0.39356145035E+03  0.17310598270E+03 0.  0.
        -24    2    5    5    0    0 -0.42917381712E+02 -0.16200233857E+02 -0.31859981715E+03  0.32970296692E+03  0.71371238406E+02 0.  0.
          5    1    3    3  501    0  0.32134974916E+01  0.24018309221E+02 -0.75553727576E+02  0.79483718425E+02  0.47000000000E+01 0. -1.
        -11    1    4    4    0    0 -0.19246098150E+02 -0.55619663530E+01 -0.67088157484E+01  0.21127138293E+02  0.00000000000E+00 0.  1.
         12    1    4    4    0    0  0.72441493863E+02 -0.57795457878E+02  0.21308386092E+02  0.95090127260E+02  0.00000000000E+00 0. -1.
         -5    1    5    5    0  503 -0.13491511493E+02  0.55539348867E+02 -0.28092272100E+02  0.63858483435E+02  0.47000000000E+01 0.  1.
         13    1    6    6    0    0 -0.45505617133E+02 -0.24064534041E+02 -0.11570489965E+03  0.12663919927E+03  0.00000000000E+00 0. -1.
        -14    1    6    6    0    0  0.25882354216E+01  0.78643001842E+01 -0.20289491751E+03  0.20306376765E+03  0.00000000000E+00 0.  1.
</event>
<event>
12    1  0.9017558E-003  0.3908955E+03  0.7818608E-02  0.1046991E+00
         21   -1    0    0  501  502  0.00000000000E+00  0.00000000000E+00  0.25842654380E+03  0.25842654380E+03  0.00000000000E+00 0.  1.
         21   -1    0    0  502  503 -0.00000000000E+00 -0.00000000000E+00 -0.59239494433E+03  0.59239494433E+03  0.00000000000E+00 0.  1.
          6    2    1    2  501    0 -0.10491152673E+03 -0.33518575090E+03 -0.18712135440E+03  0.43325307602E+03  0.17128312982E+03 0.  0.
         24    2    3    3    0    0 -0.96614434057E+02 -0.26722508834E+03 -0.81410380796E+02  0.30721977350E+03  0.83742118576E+02 0.  0.
         -6    2    1    2    0  503  0.10491152673E+03  0.33518575090E+03 -0.14684704613E+03  0.41756841211E+03  0.17159081498E+03 0.  0.
        -24    2    5    5    0    0  0.71100435644E+01  0.73472952213E+02 -0.22951736995E+02  0.11190379732E+03  0.80912608398E+02 0.  0.
          5    1    3    3  501    0 -0.82970926707E+01 -0.67960662558E+02 -0.10571097360E+03  0.12603330251E+03  0.47000000000E+01 0. -1.
        -13    1    4    4    0    0 -0.69066304938E+02 -0.16338507684E+03 -0.90994473168E+02  0.19936105928E+03  0.00000000000E+00 0.  1.
         14    1    4    4    0    0 -0.27548129119E+02 -0.10384001151E+03  0.95840923714E+01  0.10785871422E+03  0.00000000000E+00 0. -1.
         -5    1    5    5    0  503  0.97801483164E+02  0.26171279869E+03 -0.12389530914E+03  0.30566461479E+03  0.47000000000E+01 0.  1.
         13    1    6    6    0    0 -0.12110206884E+02  0.76104028698E+02  0.57335415138E+01  0.77274535218E+02  0.00000000000E+00 0. -1.
        -14    1    6    6    0    0  0.19220250448E+02 -0.26310764856E+01 -0.28685278509E+02  0.34629262105E+02  0.00000000000E+00 0.  1.
</event>
<event>
12    1  0.9017558E-003  0.1921930E+03  0.7818608E-02  0.1156541E+00
         21   -1    0    0  501  502  0.00000000000E+00  0.00000000000E+00  0.40125637091E+03  0.40125637091E+03  0.00000000000E+00 0. -1.
         21   -1    0    0  502  503 -0.00000000000E+00 -0.00000000000E+00 -0.12854425675E+03  0.12854425675E+03  0.00000000000E+00 0.  1.
          6    2    1    2  501    0  0.43271234226E+02  0.74230356218E+02  0.27762096157E+03  0.33754491738E+03  0.17169923543E+03 0.  0.
         24    2    3    3    0    0  0.72013189577E+01  0.68449531262E+02  0.69025697554E+02  0.12572298533E+03  0.79401037735E+02 0.  0.
         -6    2    1    2    0  503 -0.43271234226E+02 -0.74230356218E+02 -0.49088474117E+01  0.19225571029E+03  0.17191746817E+03 0.  0.
        -24    2    5    5    0    0 -0.81506545877E+02 -0.39402699474E+02  0.37260019949E+02  0.12535871405E+03  0.78298201485E+02 0.  0.
          5    1    3    3  501    0  0.36069915268E+02  0.57808249558E+01  0.20859526402E+03  0.21182193204E+03  0.47000000000E+01 0. -1.
        -13    1    4    4    0    0 -0.13654602172E+02  0.66883324683E+02  0.77393225093E+02  0.10319660155E+03  0.00000000000E+00 0.  1.
         14    1    4    4    0    0  0.20855921130E+02  0.15662065797E+01 -0.83675275388E+01  0.22526383783E+02  0.00000000000E+00 0. -1.
         -5    1    5    5    0  503  0.38235311651E+02 -0.34827656744E+02 -0.42168867361E+02  0.66896996239E+02  0.47000000000E+01 0.  1.
         11    1    6    6    0    0 -0.32701065830E+02 -0.58713680666E+02  0.20795448394E+02  0.70349887546E+02  0.00000000000E+00 0. -1.
        -12    1    6    6    0    0 -0.48805480046E+02  0.19310981192E+02  0.16464571555E+02  0.55008826507E+02  0.00000000000E+00 0.  1.
</event>
<event>
12    1  0.9017558E-003  0.1776161E+03  0.7818608E-02  0.1170544E+00
         21   -1    0    0  503  502  0.00000000000E+00  0.00000000000E+00  0.37040385633E+02  0.37040385633E+02  0.00000000000E+00 0.  1.
         21   -1    0    0  501  503 -0.00000000000E+00 -0.00000000000E+00 -0.13444036792E+04  0.13444036792E+04  0.00000000000E+00 0.  1.
          6    2    1    2  501    0 -0.33797483310E+02 -0.65750862412E+01 -0.10771495946E+04  0.10916953489E+04  0.17424690491E+03 0.  0.
         24    2    3    3    0    0 -0.18891013926E+02 -0.70670144455E+02 -0.58212688742E+03  0.59229575938E+03  0.81187522437E+02 0.  0.
         -6    2    1    2    0  502  0.33797483310E+02  0.65750862412E+01 -0.23021369892E+03  0.28974871595E+03  0.17254121128E+03 0.  0.
        -24    2    5    5    0    0  0.87090389128E+01  0.54625839982E+02 -0.21075537479E+03  0.23196445032E+03  0.79560344740E+02 0.  0.
          5    1    3    3  501    0 -0.14906469384E+02  0.64095058214E+02 -0.49502270722E+03  0.49939958949E+03  0.47000000000E+01 0. -1.
        -11    1    4    4    0    0 -0.35593955360E+02 -0.96557071694E+01 -0.34175245972E+03  0.34373668129E+03  0.00000000000E+00 0.  1.
         12    1    4    4    0    0  0.16702941433E+02 -0.61014437286E+02 -0.24037442769E+03  0.24855907808E+03  0.00000000000E+00 0. -1.
         -5    1    5    5    0  502  0.25088444397E+02 -0.48050753741E+02 -0.19458324125E+02  0.57784265636E+02  0.47000000000E+01 0.  1.
         13    1    6    6    0    0  0.29414558208E+02  0.60246719901E+02 -0.10897223147E+03  0.12794463930E+03  0.00000000000E+00 0. -1.
        -14    1    6    6    0    0 -0.20705519295E+02 -0.56208799191E+01 -0.10178314332E+03  0.10401981102E+03  0.00000000000E+00 0.  1.
</event>
<event>
12    1  0.9017558E-003  0.1734845E+03  0.7818608E-02  0.1174984E+00
         21   -1    0    0  503  502  0.00000000000E+00  0.00000000000E+00  0.11270112066E+04  0.11270112066E+04  0.00000000000E+00 0.  1.
         21   -1    0    0  501  503 -0.00000000000E+00 -0.00000000000E+00 -0.26358063604E+02  0.26358063604E+02  0.00000000000E+00 0.  1.
          6    2    1    2  501    0 -0.70635450050E+01  0.15380584890E+02  0.57858165572E+03  0.60322791059E+03  0.16982556850E+03 0.  0.
         24    2    3    3    0    0 -0.36419137484E+02  0.60375532688E+02  0.46957175565E+03  0.48160741704E+03  0.80476778774E+02 0.  0.
         -6    2    1    2    0  502  0.70635450050E+01 -0.15380584890E+02  0.52207148724E+03  0.55014135958E+03  0.17265694794E+03 0.  0.
        -24    2    5    5    0    0 -0.20060352779E+02  0.52157063835E+02  0.34545249434E+03  0.35905656563E+03  0.80382923648E+02 0.  0.
          5    1    3    3  501    0  0.29355592479E+02 -0.44994947798E+02  0.10900990007E+03  0.12162049354E+03  0.47000000000E+01 0. -1.
        -13    1    4    4    0    0  0.18555028291E+02 -0.66548817807E+01  0.68885916618E+02  0.71650862065E+02  0.00000000000E+00 0.  1.
         14    1    4    4    0    0 -0.54974165775E+02  0.67030414469E+02  0.40068583903E+03  0.40995655498E+03  0.00000000000E+00 0. -1.
         -5    1    5    5    0  502  0.27123897784E+02 -0.67537648726E+02  0.17661899289E+03  0.19108479395E+03  0.47000000000E+01 0.  1.
         11    1    6    6    0    0 -0.32290986251E+02 -0.90097682333E+01  0.15733059369E+03  0.16086267257E+03  0.00000000000E+00 0. -1.
        -12    1    6    6    0    0  0.12230633472E+02  0.61166832069E+02  0.18812190065E+03  0.19819389306E+03  0.00000000000E+00 0.  1.
</event>
<event>
12    1  0.9017558E-003  0.3947178E+03  0.7818608E-02  0.1045749E+00
         21   -1    0    0  503  502  0.00000000000E+00  0.00000000000E+00  0.25608359091E+03  0.25608359091E+03  0.00000000000E+00 0.  1.
         21   -1    0    0  501  503 -0.00000000000E+00 -0.00000000000E+00 -0.65582818166E+03  0.65582818166E+03  0.00000000000E+00 0.  1.
          6    2    1    2  501    0  0.12108290641E+03  0.33232752787E+03 -0.32558968676E+03  0.51167445864E+03  0.17521258944E+03 0.  0.
         24    2    3    3    0    0  0.31604974747E+02  0.17836171773E+03 -0.24867978984E+03  0.31764097392E+03  0.79008693572E+02 0.  0.
         -6    2    1    2    0  502 -0.12108290641E+03 -0.33232752787E+03 -0.74154903992E+02  0.40023731393E+03  0.17201250439E+03 0.  0.
        -24    2    5    5    0    0 -0.14073578157E+02 -0.20124747881E+03 -0.79045894787E+02  0.23088859859E+03  0.79766397353E+02 0.  0.
          5    1    3    3  501    0  0.89477931665E+02  0.15396581014E+03 -0.76909896915E+02  0.19403348472E+03  0.47000000000E+01 0. -1.
        -13    1    4    4    0    0  0.31996681376E+02  0.16793353950E+03 -0.25380836131E+03  0.30601330948E+03  0.00000000000E+00 0.  1.
         14    1    4    4    0    0 -0.39170662871E+00  0.10428178227E+02  0.51285714644E+01  0.11627664446E+02  0.00000000000E+00 0. -1.
         -5    1    5    5    0  502 -0.10700932826E+03 -0.13108004906E+03  0.48909907948E+01  0.16934871534E+03  0.47000000000E+01 0.  1.
         11    1    6    6    0    0 -0.75349990505E+01 -0.13686765183E+03 -0.91743448845E+02  0.16494359865E+03  0.00000000000E+00 0. -1.
        -12    1    6    6    0    0 -0.65385791065E+01 -0.64379826978E+02  0.12697554058E+02  0.65944999943E+02  0.00000000000E+00 0.  1.
</event>
<event>
12    1  0.9017558E-003  0.2081770E+03  0.7818608E-02  0.1143143E+00
         21   -1    0    0  503  502  0.00000000000E+00  0.00000000000E+00  0.13583083733E+03  0.13583083733E+03  0.00000000000E+00 0. -1.
         21   -1    0    0  501  503 -0.00000000000E+00 -0.00000000000E+00 -0.32504204174E+03  0.32504204174E+03  0.00000000000E+00 0. -1.
          6    2    1    2  501    0  0.11590242269E+03  0.13901946505E+02 -0.12842555776E+03  0.24460330821E+03  0.17236884522E+03 0.  0.
         24    2    3    3    0    0  0.62443234982E+02 -0.37893915772E+02 -0.13131391787E+03  0.16996331409E+03  0.79429696341E+02 0.  0.
         -6    2    1    2    0  502 -0.11590242269E+03 -0.13901946505E+02 -0.60785646658E+02  0.21626957086E+03  0.17161292707E+03 0.  0.
        -24    2    5    5    0    0 -0.11293269350E+02  0.33721976507E+02 -0.27292119019E+01  0.87414021416E+02  0.79806346304E+02 0.  0.
          5    1    3    3  501    0  0.53459187706E+02  0.51795862277E+02  0.28883601116E+01  0.74639994127E+02  0.47000000000E+01 0. -1.
        -11    1    4    4    0    0  0.47022521826E+02 -0.61603733947E+02 -0.80076018486E+02  0.11143745480E+03  0.00000000000E+00 0.  1.
         12    1    4    4    0    0  0.15420713156E+02  0.23709818175E+02 -0.51237899385E+02  0.58525859289E+02  0.00000000000E+00 0. -1.
         -5    1    5    5    0  502 -0.10460915334E+03 -0.47623923012E+02 -0.58056434756E+02  0.12885554944E+03  0.47000000000E+01 0.  1.
         11    1    6    6    0    0 -0.25649110979E+02 -0.79296159437E+01 -0.26185663191E+02  0.37502595374E+02  0.00000000000E+00 0. -1.
        -12    1    6    6    0    0  0.14355841629E+02  0.41651592450E+02  0.23456451289E+02  0.49911426042E+02  0.00000000000E+00 0.  1.
</event>
<event>
12    1  0.9017558E-003  0.2832492E+03  0.7818608E-02  0.1093985E+00
         21   -1    0    0  501  502  0.00000000000E+00  0.00000000000E+00  0.64752728798E+03  0.64752728798E+03  0.00000000000E+00 0. -1.
         21   -1    0    0  502  503 -0.00000000000E+00 -0.00000000000E+00 -0.14667340248E+03  0.14667340248E+03  0.00000000000E+00 0.  1.
          6    2    1    2  501    0 -0.18969351503E+03 -0.12027852201E+03  0.40736948512E+03  0.49592325383E+03  0.17187036911E+03 0.  0.
         24    2    3    3    0    0 -0.10562667786E+03 -0.61318929224E+02  0.11359112756E+03  0.18468173978E+03  0.79293092962E+02 0.  0.
         -6    2    1    2    0  503  0.18969351503E+03  0.12027852201E+03  0.93484400379E+02  0.29827743664E+03  0.17256750445E+03 0.  0.
        -24    2    5    5    0    0  0.85406792489E+02  0.70462283282E+02  0.11746692628E+03  0.18014772112E+03  0.79971676781E+02 0.  0.
          5    1    3    3  501    0 -0.84066837174E+02 -0.58959592784E+02  0.29377835756E+03  0.31124151405E+03  0.47000000000E+01 0. -1.
        -11    1    4    4    0    0 -0.14701353345E+01  0.12104140503E+02  0.29719758576E+02  0.32123753907E+02  0.00000000000E+00 0.  1.
         12    1    4    4    0    0 -0.10415654252E+03 -0.73423069727E+02  0.83871368981E+02  0.15255798587E+03  0.00000000000E+00 0. -1.
         -5    1    5    5    0  503  0.10428672254E+03  0.49816238726E+02 -0.23982525901E+02  0.11812971552E+03  0.47000000000E+01 0.  1.
         13    1    6    6    0    0 -0.24893526026E+01 -0.10996823711E+02  0.29228747685E+02  0.31328049722E+02  0.00000000000E+00 0. -1.
        -14    1    6    6    0    0  0.87896145092E+02  0.81459106993E+02  0.88238178595E+02  0.14881967140E+03  0.00000000000E+00 0.  1.
</event>
<event>
12    1  0.9017558E-003  0.1735407E+03  0.7818608E-02  0.1174211E+00
         21   -1    0    0  503  502  0.00000000000E+00  0.00000000000E+00  0.11638238143E+03  0.11638238143E+03  0.00000000000E+00 0. -1.
         21   -1    0    0  501  503 -0.00000000000E+00 -0.00000000000E+00 -0.28800743563E+03  0.28800743563E+03  0.00000000000E+00 0. -1.
          6    2    1    2  501    0 -0.75107467744E+01  0.18174812972E+02 -0.21358958294E+02  0.17485020492E+03  0.17242289267E+03 0.  0.
         24    2    3    3    0    0  0.92707760005E+01 -0.49943963352E+02 -0.43017710420E+02  0.10127725651E+03  0.76329630635E+02 0.  0.
         -6    2    1    2    0  502  0.75107467744E+01 -0.18174812972E+02 -0.15026609590E+03  0.22953961214E+03  0.17240011258E+03 0.  0.
        -24    2    5    5    0    0  0.18319946508E+02  0.30930139761E+02 -0.19749336829E+02  0.89593731235E+02  0.79653665237E+02 0.  0.
          5    1    3    3  501    0 -0.16781522775E+02  0.68118776325E+02  0.21658752126E+02  0.73572948414E+02  0.47000000000E+01 0. -1.
        -11    1    4    4    0    0 -0.20061939452E-01  0.16791898333E+02 -0.27360675550E+02  0.32102567166E+02  0.00000000000E+00 0.  1.
         12    1    4    4    0    0  0.92908379400E+01 -0.66735861685E+02 -0.15657034871E+02  0.69174689341E+02  0.00000000000E+00 0. -1.
         -5    1    5    5    0  502 -0.10809199733E+02 -0.49104952734E+02 -0.13051675908E+03  0.13994588090E+03  0.47000000000E+01 0.  1.
         13    1    6    6    0    0 -0.26916571313E+02  0.70610338294E+01 -0.25977620600E+02  0.38068317299E+02  0.00000000000E+00 0. -1.
        -14    1    6    6    0    0  0.45236517820E+02  0.23869105932E+02  0.62282837714E+01  0.51525413935E+02  0.00000000000E+00 0.  1.
</event>
<event>
12    1  0.9017558E-003  0.1984653E+03  0.7818608E-02  0.1151051E+00
         21   -1    0    0  501  502  0.00000000000E+00  0.00000000000E+00  0.34664614151E+03  0.34664614151E+03  0.00000000000E+00 0.  1.
         21   -1    0    0  502  503 -0.00000000000E+00 -0.00000000000E+00 -0.11725356995E+03  0.11725356995E+03  0.00000000000E+00 0.  1.
          6    2    1    2  501    0  0.96323806271E+02 -0.25367852571E+02  0.15566495712E+03  0.25223015012E+03  0.17165857437E+03 0.  0.
         24    2    3    3    0    0  0.25733440775E+02 -0.81596433537E+01  0.21250374500E+02  0.99362585915E+02  0.93233874260E+02 0.  0.
         -6    2    1    2    0  503 -0.96323806271E+02  0.25367852571E+02  0.73727614444E+02  0.21166956133E+03  0.17159964588E+03 0.  0.
        -24    2    5    5    0    0 -0.11126445937E+03  0.38008182085E+02  0.10255276059E+03  0.17651305276E+03  0.82555358803E+02 0.  0.
          5    1    3    3  501    0  0.70590365496E+02 -0.17208209217E+02  0.13441458262E+03  0.15286756421E+03  0.47000000000E+01 0. -1.
        -11    1    4    4    0    0 -0.17819405042E+02 -0.38261873563E+02  0.19226491280E+02  0.46380600810E+02  0.00000000000E+00 0.  1.
         12    1    4    4    0    0  0.43552845817E+02  0.30102230209E+02  0.20238832199E+01  0.52981985104E+02  0.00000000000E+00 0. -1.
         -5    1    5    5    0  503  0.14940653094E+02 -0.12640329514E+02 -0.28825146142E+02  0.35156508575E+02  0.47000000000E+01 0.  1.
         11    1    6    6    0    0  0.57029778205E+00 -0.18302832343E+02  0.15783081274E+02  0.24174874681E+02  0.00000000000E+00 0. -1.
        -12    1    6    6    0    0 -0.11183475715E+03  0.56311014428E+02  0.86769679312E+02  0.15233817808E+03  0.00000000000E+00 0.  1.
</event>
<event>
12    1  0.9017558E-003  0.1748864E+03  0.7818608E-02  0.1172950E+00
         21   -1    0    0  501  502  0.00000000000E+00  0.00000000000E+00  0.46548046668E+03  0.46548046668E+03  0.00000000000E+00 0. -1.
         21   -1    0    0  502  503 -0.00000000000E+00 -0.00000000000E+00 -0.65923056626E+02  0.65923056626E+02  0.00000000000E+00 0. -1.
          6    2    1    2  501    0  0.19726224053E+02 -0.14517279479E+02  0.17957572306E+03  0.25037469495E+03  0.17274308160E+03 0.  0.
         24    2    3    3    0    0 -0.10080970761E+02 -0.21675447717E+02  0.19734231594E+03  0.21463326160E+03  0.80944402644E+02 0.  0.
         -6    2    1    2    0  503 -0.19726224053E+02  0.14517279479E+02  0.21998168699E+03  0.28102882835E+03  0.17316288411E+03 0.  0.
        -24    2    5    5    0    0 -0.70071439674E+02 -0.16996666377E+02  0.17823115816E+03  0.20827605399E+03  0.80085426891E+02 0.  0.
          5    1    3    3  501    0  0.29807194814E+02  0.71581682381E+01 -0.17766592885E+02  0.35741433350E+02  0.47000000000E+01 0. -1.
        -13    1    4    4    0    0 -0.14962510678E+02  0.25018453551E+02  0.34543851576E+02  0.45200413998E+02  0.00000000000E+00 0.  1.
         14    1    4    4    0    0  0.48815399172E+01 -0.46693901267E+02  0.16279846436E+03  0.16943284760E+03  0.00000000000E+00 0. -1.
         -5    1    5    5    0  503  0.50345215621E+02  0.31513945855E+02  0.41750528832E+02  0.72752774359E+02  0.47000000000E+01 0.  1.
         13    1    6    6    0    0 -0.58503193677E+02 -0.22373652198E+02  0.52016017108E+02  0.81417872846E+02  0.00000000000E+00 0. -1.
        -14    1    6    6    0    0 -0.11568245997E+02  0.53769858208E+01  0.12621514105E+03  0.12685818114E+03  0.00000000000E+00 0.  1.
</event>
<event>
12    1  0.9017558E-003  0.2036027E+03  0.7818608E-02  0.1147137E+00
         21   -1    0    0  501  502  0.00000000000E+00  0.00000000000E+00  0.39162037110E+03  0.39162037110E+03  0.00000000000E+00 0.  1.
         21   -1    0    0  502  503 -0.00000000000E+00 -0.00000000000E+00 -0.10906955030E+03  0.10906955030E+03  0.00000000000E+00 0.  1.
          6    2    1    2  501    0 -0.53291816859E+02 -0.87649956119E+02  0.91351413926E+02  0.22138493419E+03  0.17361934141E+03 0.  0.
         24    2    3    3    0    0 -0.88179357441E+02 -0.52761439916E+02  0.16134062200E+02  0.13130669569E+03  0.80135957911E+02 0.  0.
         -6    2    1    2    0  503  0.53291816859E+02  0.87649956119E+02  0.19119940688E+03  0.27930498720E+03  0.17587361978E+03 0.  0.
        -24    2    5    5    0    0  0.31450262990E+01  0.34796050120E+02  0.18779741165E+03  0.20621668749E+03  0.77696834448E+02 0.  0.
          5    1    3    3  501    0  0.34887540582E+02 -0.34888516203E+02  0.75217351726E+02  0.90078238500E+02  0.47000000000E+01 0. -1.
        -11    1    4    4    0    0 -0.45132911440E+02 -0.92136973203E+01  0.44298165228E+02  0.63907740971E+02  0.00000000000E+00 0.  1.
         12    1    4    4    0    0 -0.43046446001E+02 -0.43547742596E+02 -0.28164103028E+02  0.67398954724E+02  0.00000000000E+00 0. -1.
         -5    1    5    5    0  503  0.50146790560E+02  0.52853905999E+02  0.34019952258E+01  0.73088299709E+02  0.47000000000E+01 0.  1.
         11    1    6    6    0    0 -0.36036508895E+02  0.72887661809E+01  0.70124794010E+02  0.79178550256E+02  0.00000000000E+00 0. -1.
        -12    1    6    6    0    0  0.39181535194E+02  0.27507283939E+02  0.11767261764E+03  0.12703813724E+03  0.00000000000E+00 0.  1.
</event>
<event>
12    1  0.9017558E-003  0.2183458E+03  0.7818608E-02  0.1135262E+00
         21   -1    0    0  501  502  0.00000000000E+00  0.00000000000E+00  0.24043894564E+03  0.24043894564E+03  0.00000000000E+00 0.  1.
         21   -1    0    0  502  503 -0.00000000000E+00 -0.00000000000E+00 -0.19815500150E+03  0.19815500150E+03  0.00000000000E+00 0.  1.
          6    2    1    2  501    0  0.13157585759E+03 -0.23932895584E+02  0.32603107568E+02  0.22003362773E+03  0.17165909507E+03 0.  0.
         24    2    3    3    0    0  0.55686256060E+02  0.14712514868E+02  0.76876690160E+02  0.12393503521E+03  0.78309962679E+02 0.  0.
         -6    2    1    2    0  503 -0.13157585759E+03  0.23932895584E+02  0.96808365697E+01  0.21856031941E+03  0.17259752267E+03 0.  0.
        -24    2    5    5    0    0 -0.86426660256E+02  0.82657555593E+02 -0.24559605501E+01  0.14335109419E+03  0.79004211053E+02 0.  0.
          5    1    3    3  501    0  0.75889601530E+02 -0.38645410452E+02 -0.44273582591E+02  0.96098592523E+02  0.47000000000E+01 0. -1.
        -11    1    4    4    0    0  0.54967109658E+02 -0.19236524793E+02  0.28514191723E+02  0.64842009221E+02  0.00000000000E+00 0.  1.
         12    1    4    4    0    0  0.71914640246E+00  0.33949039661E+02  0.48362498437E+02  0.59093025989E+02  0.00000000000E+00 0. -1.
         -5    1    5    5    0  503 -0.45149197335E+02 -0.58724660009E+02  0.12136797120E+02  0.75209225215E+02  0.47000000000E+01 0.  1.
         13    1    6    6    0    0 -0.46898870844E+02  0.11645140149E+02 -0.30769832917E+02  0.57287834601E+02  0.00000000000E+00 0. -1.
        -14    1    6    6    0    0 -0.39527789412E+02  0.71012415444E+02  0.28313872367E+02  0.86063259591E+02  0.00000000000E+00 0.  1.
</event>
<event>
12    1  0.9017558E-003  0.2012172E+03  0.7818608E-02  0.1151155E+00
         21   -1    0    0  501  502  0.00000000000E+00  0.00000000000E+00  0.14720272269E+03  0.14720272269E+03  0.00000000000E+00 0.  1.
         21   -1    0    0  502  503 -0.00000000000E+00 -0.00000000000E+00 -0.26491473937E+03  0.26491473937E+03  0.00000000000E+00 0.  1.
          6    2    1    2  501    0 -0.94796407592E+02 -0.40806289927E+02 -0.28636268097E+02  0.19206557157E+03  0.15942909315E+03 0.  0.
         24    2    3    3    0    0 -0.75155741401E+02 -0.44281092650E+02  0.38024839137E+02  0.12232588961E+03  0.76866990618E+02 0.  0.
         -6    2    1    2    0  503  0.94796407592E+02  0.40806289927E+02 -0.89075748578E+02  0.22005189049E+03  0.17273341695E+03 0.  0.
        -24    2    5    5    0    0  0.23388760548E+02  0.20718946433E+02  0.20177783347E+02  0.87911897817E+02  0.79655821982E+02 0.  0.
          5    1    3    3  501    0 -0.19640666190E+02  0.34748027221E+01 -0.66661107234E+02  0.69739681961E+02  0.47000000000E+01 0. -1.
        -11    1    4    4    0    0 -0.23159295706E+02  0.21803463052E+02  0.61365612732E+01  0.32394465005E+02  0.00000000000E+00 0.  1.
         12    1    4    4    0    0 -0.51996445695E+02 -0.66084555702E+02  0.31888277864E+02  0.89931424609E+02  0.00000000000E+00 0. -1.
         -5    1    5    5    0  503  0.71407647043E+02  0.20087343495E+02 -0.10925353193E+03  0.13213999267E+03  0.47000000000E+01 0.  1.
         13    1    6    6    0    0 -0.14891892631E+02 -0.16422667021E+02 -0.12410610738E+02  0.25406607745E+02  0.00000000000E+00 0. -1.
        -14    1    6    6    0    0  0.38280653179E+02  0.37141613454E+02  0.32588394086E+02  0.62505290071E+02  0.00000000000E+00 0.  1.
</event>
<event>
12    1  0.9017558E-003  0.1985268E+03  0.7818608E-02  0.1151386E+00
         21   -1    0    0  503  502  0.00000000000E+00  0.00000000000E+00  0.81192132267E+03  0.81192132267E+03  0.00000000000E+00 0. -1.
         21   -1    0    0  501  503 -0.00000000000E+00 -0.00000000000E+00 -0.61439783302E+02  0.61439783302E+02  0.00000000000E+00 0.  1.
          6    2    1    2  501    0 -0.94333766914E+02  0.14130290688E+02  0.17030347583E+03  0.26015682972E+03  0.17198772478E+03 0.  0.
         24    2    3    3    0    0 -0.11746214329E+03 -0.29290988529E+02  0.14467910292E+03  0.20448791766E+03  0.78917352546E+02 0.  0.
         -6    2    1    2    0  502  0.94333766914E+02 -0.14130290688E+02  0.58017806354E+03  0.61320427626E+03  0.17411023610E+03 0.  0.
        -24    2    5    5    0    0  0.78482300543E+02 -0.67038417266E+02  0.29512912839E+03  0.32281570164E+03  0.80343972440E+02 0.  0.
          5    1    3    3  501    0  0.23128376374E+02  0.43421279217E+02  0.25624372914E+02  0.55668912059E+02  0.47000000000E+01 0. -1.
        -13    1    4    4    0    0 -0.37798651651E+01  0.58651793403E+00 -0.97155616918E+01  0.10441432993E+02  0.00000000000E+00 0.  1.
         14    1    4    4    0    0 -0.11368227812E+03 -0.29877506463E+02  0.15439466461E+03  0.19404648467E+03  0.00000000000E+00 0. -1.
         -5    1    5    5    0  502  0.15851466371E+02  0.52908126577E+02  0.28504893514E+03  0.29038857462E+03  0.47000000000E+01 0.  1.
         13    1    6    6    0    0  0.17183220229E+02 -0.67099674567E+02  0.14685158968E+03  0.16236692637E+03  0.00000000000E+00 0. -1.
        -14    1    6    6    0    0  0.61299080314E+02  0.61257301227E-01  0.14827753871E+03  0.16044877527E+03  0.00000000000E+00 0.  1.
</event>
<event>
12    1  0.9017558E-003  0.1860522E+03  0.7818608E-02  0.1163210E+00
         21   -1    0    0  501  502  0.00000000000E+00  0.00000000000E+00  0.88861680614E+03  0.88861680614E+03  0.00000000000E+00 0.  1.
         21   -1    0    0  502  503 -0.00000000000E+00 -0.00000000000E+00 -0.38258835832E+02  0.38258835832E+02  0.00000000000E+00 0.  1.
          6    2    1    2  501    0  0.50332781959E+02 -0.12576617080E+02  0.46148983437E+03  0.49579113098E+03  0.17362147935E+03 0.  0.
         24    2    3    3    0    0  0.31764890095E+02 -0.37942171409E+02  0.11740989094E+03  0.15024623458E+03  0.79625573160E+02 0.  0.
         -6    2    1    2    0  503 -0.50332781959E+02  0.12576617080E+02  0.38886813594E+03  0.43108451100E+03  0.17867251673E+03 0.  0.
        -24    2    5    5    0    0  0.36088688285E+02  0.52486320921E+01  0.11723650283E+03  0.14590350885E+03  0.78825723825E+02 0.  0.
          5    1    3    3  501    0  0.18567891864E+02  0.25365554328E+02  0.34407994343E+03  0.34554489640E+03  0.47000000000E+01 0. -1.
        -11    1    4    4    0    0  0.44238958556E+02 -0.90074743690E+00  0.27217145474E+02  0.51948722870E+02  0.00000000000E+00 0.  1.
         12    1    4    4    0    0 -0.12474068461E+02 -0.37041423972E+02  0.90192745465E+02  0.98297511710E+02  0.00000000000E+00 0. -1.
         -5    1    5    5    0  503 -0.86421470244E+02  0.73279849881E+01  0.27163163311E+03  0.28518100215E+03  0.47000000000E+01 0.  1.
         13    1    6    6    0    0 -0.33848975796E+01 -0.21279195536E+02  0.24884394884E+01  0.21689952176E+02  0.00000000000E+00 0. -1.
        -14    1    6    6    0    0  0.39473585864E+02  0.26527827628E+02  0.11474806335E+03  0.12421355667E+03  0.00000000000E+00 0.  1.
</event>
<event>
12    1  0.9017558E-003  0.1748012E+03  0.7818608E-02  0.1173034E+00
         21   -1    0    0  501  502  0.00000000000E+00  0.00000000000E+00  0.18779089729E+03  0.18779089729E+03  0.00000000000E+00 0.  1.
         21   -1    0    0  502  503 -0.00000000000E+00 -0.00000000000E+00 -0.19718233783E+03  0.19718233783E+03  0.00000000000E+00 0.  1.
          6    2    1    2  501    0 -0.10714826191E+02  0.26925363453E+02  0.76225207681E+02  0.19069808216E+03  0.17238240500E+03 0.  0.
         24    2    3    3    0    0 -0.47469107909E+02  0.66944722681E+02  0.74025392259E+02  0.13611460915E+03  0.79451343755E+02 0.  0.
         -6    2    1    2    0  503  0.10714826191E+02 -0.26925363453E+02 -0.85616648230E+02  0.19427515296E+03  0.17196756063E+03 0.  0.
        -24    2    5    5    0    0  0.44659198424E+02 -0.49086437550E+02 -0.50489882639E+01  0.10396141401E+03  0.79865893628E+02 0.  0.
          5    1    3    3  501    0  0.36754281718E+02 -0.40019359227E+02  0.21998154225E+01  0.54583473006E+02  0.47000000000E+01 0. -1.
        -11    1    4    4    0    0 -0.46480615139E+02  0.47796501068E+02  0.77476165188E+01  0.67119137806E+02  0.00000000000E+00 0.  1.
         12    1    4    4    0    0 -0.98849276907E+00  0.19148221613E+02  0.66277775740E+02  0.68995471344E+02  0.00000000000E+00 0. -1.
         -5    1    5    5    0  503 -0.33944372234E+02  0.22161074096E+02 -0.80567659966E+02  0.90313738954E+02  0.47000000000E+01 0.  1.
         13    1    6    6    0    0  0.18188292823E+02  0.11734897253E+02  0.23320134466E+02  0.31817455600E+02  0.00000000000E+00 0. -1.
        -14    1    6    6    0    0  0.26470905602E+02 -0.60821334802E+02 -0.28369122730E+02  0.72143958409E+02  0.00000000000E+00 0.  1.
</event>
<event>
12    1  0.9017558E-003  0.3206006E+03  0.7818608E-02  0.1075395E+00
         21   -1    0    0  501  502  0.00000000000E+00  0.00000000000E+00  0.49695675049E+03  0.49695675049E+03  0.00000000000E+00 0.  1.
         21   -1    0    0  502  503 -0.00000000000E+00 -0.00000000000E+00 -0.33137991954E+03  0.33137991954E+03  0.00000000000E+00 0. -1.
          6    2    1    2  501    0 -0.23922165262E+03 -0.12529590294E+03  0.33684110750E+03  0.46502331856E+03  0.17279668032E+03 0.  0.
         24    2    3    3    0    0 -0.26039168606E+03 -0.11109026525E+03  0.31549952792E+03  0.43144470220E+03  0.80372269681E+02 0.  0.
         -6    2    1    2    0  503  0.23922165262E+03  0.12529590294E+03 -0.17126427655E+03  0.36331335147E+03  0.17245021473E+03 0.  0.
        -24    2    5    5    0    0  0.19434198490E+03  0.12712618740E+03 -0.19390137442E+03  0.31279540698E+03  0.79456585712E+02 0.  0.
          5    1    3    3  501    0  0.21170033442E+02 -0.14205637692E+02  0.21341579582E+02  0.33578616368E+02  0.47000000000E+01 0. -1.
        -13    1    4    4    0    0 -0.15340157608E+03 -0.96047248918E+02  0.23547159703E+03  0.29699156651E+03  0.00000000000E+00 0.  1.
         14    1    4    4    0    0 -0.10699010998E+03 -0.15043016330E+02  0.80027930888E+02  0.13445313569E+03  0.00000000000E+00 0. -1.
         -5    1    5    5    0  503  0.44879667717E+02 -0.18302844562E+01  0.22637097867E+02  0.50517944489E+02  0.47000000000E+01 0.  1.
         13    1    6    6    0    0  0.86588876746E+02  0.12358421870E+02 -0.59309543135E+02  0.10567869262E+03  0.00000000000E+00 0. -1.
        -14    1    6    6    0    0  0.10775310815E+03  0.11476776553E+03 -0.13459183128E+03  0.20711671436E+03  0.00000000000E+00 0.  1.
</event>
<event>
12    1  0.9017558E-003  0.1842492E+03  0.7818608E-02  0.1164350E+00
         21   -1    0    0  501  502  0.00000000000E+00  0.00000000000E+00  0.51368308028E+02  0.51368308028E+02  0.00000000000E+00 0. -1.
         21   -1    0    0  502  503 -0.00000000000E+00 -0.00000000000E+00 -0.71870481236E+03  0.71870481236E+03  0.00000000000E+00 0. -1.
          6    2    1    2  501    0  0.48432474504E+02 -0.43040558486E+02 -0.21832135901E+03  0.28567809240E+03  0.17248061460E+03 0.  0.
         24    2    3    3    0    0  0.87328313041E+02 -0.54822872338E+02 -0.10844267463E+03  0.16842996040E+03  0.77311424062E+02 0.  0.
         -6    2    1    2    0  503 -0.48432474504E+02  0.43040558486E+02 -0.44901514533E+03  0.48439502800E+03  0.16978147176E+03 0.  0.
        -24    2    5    5    0    0 -0.82320263578E+02 -0.89380441936E+01 -0.34049079239E+03  0.35929593701E+03  0.79391915334E+02 0.  0.
          5    1    3    3  501    0 -0.38895838537E+02  0.11782313852E+02 -0.10987868438E+03  0.11724813199E+03  0.47000000000E+01 0. -1.
        -11    1    4    4    0    0  0.31953919213E+02 -0.65011249938E+02 -0.57227348618E+02  0.92317306078E+02  0.00000000000E+00 0.  1.
         12    1    4    4    0    0  0.55374393828E+02  0.10188377600E+02 -0.51215326014E+02  0.76112654327E+02  0.00000000000E+00 0. -1.
         -5    1    5    5    0  503  0.33887789074E+02  0.51978602679E+02 -0.10852435294E+03  0.12509909099E+03  0.47000000000E+01 0.  1.
         11    1    6    6    0    0 -0.68543225255E+02  0.20466618807E+02 -0.29406742441E+03  0.30264286926E+03  0.00000000000E+00 0. -1.
        -12    1    6    6    0    0 -0.13777038323E+02 -0.29404663001E+02 -0.46423367980E+02  0.56653067752E+02  0.00000000000E+00 0.  1.
</event>
<event>
12    1  0.9017558E-003  0.1733090E+03  0.7818608E-02  0.1174782E+00
         21   -1    0    0  501  502  0.00000000000E+00  0.00000000000E+00  0.67914684568E+03  0.67914684568E+03  0.00000000000E+00 0. -1.
         21   -1    0    0  502  503 -0.00000000000E+00 -0.00000000000E+00 -0.53457525807E+02  0.53457525807E+02  0.00000000000E+00 0. -1.
          6    2    1    2  501    0 -0.17061918635E+02  0.54232145189E+01  0.46685202094E+03  0.49751861945E+03  0.17103639065E+03 0.  0.
         24    2    3    3    0    0 -0.65906747401E+02 -0.12021626312E+02  0.20103414202E+03  0.22664711021E+03  0.80411239609E+02 0.  0.
         -6    2    1    2    0  503  0.17061918635E+02 -0.54232145189E+01  0.15883729893E+03  0.23508575203E+03  0.17238185216E+03 0.  0.
        -24    2    5    5    0    0  0.69642945494E+02 -0.30683685066E+02  0.77318768169E+02  0.13473528310E+03  0.79898536992E+02 0.  0.
          5    1    3    3  501    0  0.48844828766E+02  0.17444840831E+02  0.26581787892E+03  0.27087150925E+03  0.47000000000E+01 0. -1.
        -13    1    4    4    0    0 -0.28620120723E+01 -0.80812550217E+01 -0.58207086425E+01  0.10362357113E+02  0.00000000000E+00 0.  1.
         14    1    4    4    0    0 -0.63044735329E+02 -0.39403712908E+01  0.20685485067E+03  0.21628475310E+03  0.00000000000E+00 0. -1.
         -5    1    5    5    0  503 -0.52581026859E+02  0.25260470547E+02  0.81518530765E+02  0.10035046894E+03  0.47000000000E+01 0.  1.
         13    1    6    6    0    0  0.23468689968E+02  0.26011167953E+02  0.13047178788E+02  0.37384343533E+02  0.00000000000E+00 0. -1.
        -14    1    6    6    0    0  0.46174255525E+02 -0.56694853019E+02  0.64271589381E+02  0.97350939562E+02  0.00000000000E+00 0.  1.
</event>
<event>
12    1  0.9017558E-003  0.2010314E+03  0.7818608E-02  0.1148897E+00
         21   -1    0    0  503  502  0.00000000000E+00  0.00000000000E+00  0.51410013470E+03  0.51410013470E+03  0.00000000000E+00 0.  1.
         21   -1    0    0  501  503 -0.00000000000E+00 -0.00000000000E+00 -0.78908224647E+02  0.78908224647E+02  0.00000000000E+00 0.  1.
          6    2    1    2  501    0  0.70147304320E+02 -0.76266164054E+02  0.23714868238E+03  0.31081204463E+03  0.17212628343E+03 0.  0.
         24    2    3    3    0    0  0.70106163359E+02 -0.55530892743E+02  0.25587421675E+03  0.28248028143E+03  0.79529493948E+02 0.  0.
         -6    2    1    2    0  502 -0.70147304320E+02  0.76266164054E+02  0.19804322767E+03  0.28219631472E+03  0.17226859241E+03 0.  0.
        -24    2    5    5    0    0 -0.61554155426E+02 -0.12603628997E+02  0.12229596289E+03  0.16501517099E+03  0.91246581315E+02 0.  0.
          5    1    3    3  501    0  0.41140960735E-01 -0.20735271311E+02 -0.18725534367E+02  0.28331763204E+02  0.47000000000E+01 0. -1.
        -11    1    4    4    0    0  0.68253409139E+02 -0.13490688843E+02  0.10586436295E+03  0.12667987168E+03  0.00000000000E+00 0.  1.
         12    1    4    4    0    0  0.18527542203E+01 -0.42040203901E+02  0.15000985379E+03  0.15580040975E+03  0.00000000000E+00 0. -1.
         -5    1    5    5    0  502 -0.85931488939E+01  0.88869793051E+02  0.75747264781E+02  0.11718114373E+03  0.47000000000E+01 0.  1.
         11    1    6    6    0    0 -0.15270601507E+02  0.46224964594E+01  0.11378952936E+03  0.11490263590E+03  0.00000000000E+00 0. -1.
        -12    1    6    6    0    0 -0.46283553919E+02 -0.17226125456E+02  0.85064335317E+01  0.50112535089E+02  0.00000000000E+00 0.  1.
</event>
<event>
12    1  0.9017558E-003  0.2348321E+03  0.7818608E-02  0.1123578E+00
         21   -1    0    0  501  502  0.00000000000E+00  0.00000000000E+00  0.82640900156E+03  0.82640900156E+03  0.00000000000E+00 0.  1.
         21   -1    0    0  502  503 -0.00000000000E+00 -0.00000000000E+00 -0.67095429680E+02  0.67095429680E+02  0.00000000000E+00 0.  1.
          6    2    1    2  501    0  0.12430772385E+03 -0.97859691574E+02  0.42859773315E+03  0.48789492656E+03  0.17122065605E+03 0.  0.
         24    2    3    3    0    0  0.76323217562E+02 -0.29107552209E+01  0.30720543203E+03  0.32641429574E+03  0.79607844844E+02 0.  0.
         -6    2    1    2    0  503 -0.12430772385E+03  0.97859691574E+02  0.33071583873E+03  0.40560950468E+03  0.17354300579E+03 0.  0.
        -24    2    5    5    0    0 -0.69612228970E+02  0.12459175403E+03  0.25995587160E+03  0.31214687434E+03  0.97414826293E+02 0.  0.
          5    1    3    3  501    0  0.47984506284E+02 -0.94948936354E+02  0.12139230112E+03  0.16148063082E+03  0.47000000000E+01 0. -1.
        -11    1    4    4    0    0  0.47361320617E+02 -0.34323992186E+02  0.10948285526E+03  0.12412786442E+03  0.00000000000E+00 0.  1.
         12    1    4    4    0    0  0.28961896945E+02  0.31413236965E+02  0.19772257677E+03  0.20228643132E+03  0.00000000000E+00 0. -1.
         -5    1    5    5    0  503 -0.54695494876E+02 -0.26732062458E+02  0.70759967127E+02  0.93462630345E+02  0.47000000000E+01 0.  1.
         11    1    6    6    0    0 -0.55539423333E+02  0.81076600951E+02  0.80743649465E+02  0.12719111484E+03  0.00000000000E+00 0. -1.
        -12    1    6    6    0    0 -0.14072805637E+02  0.43515153082E+02  0.17921222214E+03  0.18495575949E+03  0.00000000000E+00 0.  1.
</event>
<event>
12    1  0.9017558E-003  0.1700480E+03  0.7818608E-02  0.1177866E+00
         21   -1    0    0  503  502  0.00000000000E+00  0.00000000000E+00  0.10569361794E+04  0.10569361794E+04  0.00000000000E+00 0.  1.
         21   -1    0    0  501  503 -0.00000000000E+00 -0.00000000000E+00 -0.29457405828E+02  0.29457405828E+02  0.00000000000E+00 0.  1.
          6    2    1    2  501    0  0.12085558787E+02 -0.18449675061E+02  0.65980404732E+03  0.68129971783E+03  0.16834926019E+03 0.  0.
         24    2    3    3    0    0  0.59293098835E+02 -0.51200038002E+02  0.47527821519E+03  0.48797871319E+03  0.78081542190E+02 0.  0.
         -6    2    1    2    0  502 -0.12085558787E+02  0.18449675061E+02  0.36767472623E+03  0.40509386739E+03  0.16861164207E+03 0.  0.
        -24    2    5    5    0    0 -0.39037854551E+01 -0.52244679149E+02  0.24016352782E+03  0.25899174950E+03  0.81568745051E+02 0.  0.
          5    1    3    3  501    0 -0.47207540047E+02  0.32750362941E+02  0.18452583213E+03  0.19332100464E+03  0.47000000000E+01 0. -1.
        -13    1    4    4    0    0 -0.74111915171E+01  0.91146323145E+01  0.15116341119E+03  0.15161919128E+03  0.00000000000E+00 0.  1.
         14    1    4    4    0    0  0.66704290352E+02 -0.60314670317E+02  0.32411480400E+03  0.33635952191E+03  0.00000000000E+00 0. -1.
         -5    1    5    5    0  502 -0.81817733323E+01  0.70694354211E+02  0.12751119841E+03  0.14610211789E+03  0.47000000000E+01 0.  1.
         13    1    6    6    0    0 -0.37110596105E+02 -0.91758971947E+01  0.13870799288E+03  0.14387946595E+03  0.00000000000E+00 0. -1.
        -14    1    6    6    0    0  0.33206810650E+02 -0.43068781954E+02  0.10145553494E+03  0.11511228354E+03  0.00000000000E+00 0.  1.
</event>
<event>
12    1  0.9017558E-003  0.2479993E+03  0.7818608E-02  0.1115734E+00
         21   -1    0    0  501  502  0.00000000000E+00  0.00000000000E+00  0.10103992587E+04  0.10103992587E+04  0.00000000000E+00 0.  1.
         21   -1    0    0  502  503 -0.00000000000E+00 -0.00000000000E+00 -0.59592042953E+02  0.59592042953E+02  0.00000000000E+00 0. -1.
          6    2    1    2  501    0  0.17025516523E+03 -0.53437648943E+02  0.43522279165E+03  0.50092167118E+03  0.17222438467E+03 0.  0.
         24    2    3    3    0    0  0.86086698734E+02  0.40745571060E+02  0.20476151069E+03  0.23807323252E+03  0.75368869734E+02 0.  0.
         -6    2    1    2    0  503 -0.17025516523E+03  0.53437648943E+02  0.51558442406E+03  0.56906963044E+03  0.16177311994E+03 0.  0.
        -24    2    5    5    0    0 -0.16957587623E+03  0.68360017357E+02  0.35268445520E+03  0.40541869592E+03  0.80925424253E+02 0.  0.
          5    1    3    3  501    0  0.84168466498E+02 -0.94183220002E+02  0.23046128096E+03  0.26284843866E+03  0.47000000000E+01 0. -1.
        -11    1    4    4    0    0  0.38285653158E+02 -0.89843795500E+01  0.13233770232E+03  0.13805715399E+03  0.00000000000E+00 0.  1.
         12    1    4    4    0    0  0.47801045576E+02  0.49729950610E+02  0.72423808367E+02  0.10001607853E+03  0.00000000000E+00 0. -1.
         -5    1    5    5    0  503 -0.67928900504E+00 -0.14922368414E+02  0.16289996886E+03  0.16365093452E+03  0.47000000000E+01 0.  1.
         11    1    6    6    0    0 -0.12491960474E+03  0.16440821850E+02  0.27076563842E+03  0.29864567504E+03  0.00000000000E+00 0. -1.
        -12    1    6    6    0    0 -0.44656271483E+02  0.51919195507E+02  0.81918816784E+02  0.10677302088E+03  0.00000000000E+00 0.  1.
</event>
<event>
12    1  0.9017558E-003  0.2671114E+03  0.7818608E-02  0.1102956E+00
         21   -1    0    0  503  502  0.00000000000E+00  0.00000000000E+00  0.40234701230E+03  0.40234701230E+03  0.00000000000E+00 0. -1.
         21   -1    0    0  501  503 -0.00000000000E+00 -0.00000000000E+00 -0.23591372412E+03  0.23591372412E+03  0.00000000000E+00 0.  1.
          6    2    1    2  501    0  0.17667366215E+03  0.10288491809E+03 -0.75875320704E+02  0.27767891475E+03  0.17190004695E+03 0.  0.
         24    2    3    3    0    0  0.14196773933E+03  0.10404198857E+03 -0.11494447468E+03  0.22519721620E+03  0.80758773707E+02 0.  0.
         -6    2    1    2    0  502 -0.17667366215E+03 -0.10288491809E+03  0.24230860888E+03  0.36058182166E+03  0.17177572270E+03 0.  0.
        -24    2    5    5    0    0 -0.10376626657E+03 -0.13412523443E+03  0.17227503350E+03  0.25466564077E+03  0.80117943246E+02 0.  0.
          5    1    3    3  501    0  0.34705922816E+02 -0.11570704784E+01  0.39069153973E+02  0.52481698551E+02  0.47000000000E+01 0. -1.
        -11    1    4    4    0    0  0.14076419749E+03  0.65923201605E+02 -0.89708522896E+02  0.17946600481E+03  0.00000000000E+00 0.  1.
         12    1    4    4    0    0  0.12035418420E+01  0.38118786966E+02 -0.25235951781E+02  0.45731211388E+02  0.00000000000E+00 0. -1.
         -5    1    5    5    0  502 -0.72907395572E+02  0.31240316342E+02  0.70033575384E+02  0.10591618089E+03  0.47000000000E+01 0.  1.
         13    1    6    6    0    0 -0.10287841064E+03 -0.82295654252E+02  0.14563912376E+03  0.19638558108E+03  0.00000000000E+00 0. -1.
        -14    1    6    6    0    0 -0.88785593164E+00 -0.51829580183E+02  0.26635909738E+02  0.58280059692E+02  0.00000000000E+00 0.  1.
</event>
<event>
12    1  0.9017558E-003  0.1990830E+03  0.7818608E-02  0.1152058E+00
         21   -1    0    0  501  502  0.00000000000E+00  0.00000000000E+00  0.24190203672E+03  0.24190203672E+03  0.00000000000E+00 0. -1.
         21   -1    0    0  502  503 -0.00000000000E+00 -0.00000000000E+00 -0.18367407908E+03  0.18367407908E+03  0.00000000000E+00 0.  1.
          6    2    1    2  501    0  0.81861682612E+02  0.40700015897E+02 -0.50846068947E+02  0.19857133626E+03  0.16878218650E+03 0.  0.
         24    2    3    3    0    0  0.10906378895E+03  0.51320850007E+02 -0.72725890092E+02  0.16178039607E+03  0.79718892088E+02 0.  0.
         -6    2    1    2    0  503 -0.81861682612E+02 -0.40700015897E+02  0.10907402659E+03  0.22700477955E+03  0.17685078537E+03 0.  0.
        -24    2    5    5    0    0 -0.12219276316E+03 -0.11202717127E+02  0.66204785254E+02  0.16100062403E+03  0.80508105854E+02 0.  0.
          5    1    3    3  501    0 -0.27202106342E+02 -0.10620834110E+02  0.21879821145E+02  0.36790940189E+02  0.47000000000E+01 0. -1.
        -11    1    4    4    0    0  0.27803043432E+02  0.56035917391E+02 -0.38698249762E+02  0.73556697836E+02  0.00000000000E+00 0.  1.
         12    1    4    4    0    0  0.81260745522E+02 -0.47150673844E+01 -0.34027640330E+02  0.88223698232E+02  0.00000000000E+00 0. -1.
         -5    1    5    5    0  503  0.40331080547E+02 -0.29497298770E+02  0.42869241338E+02  0.66004155518E+02  0.47000000000E+01 0.  1.
         13    1    6    6    0    0 -0.52242584265E+02 -0.14791747587E+02  0.72610363871E+02  0.90666136727E+02  0.00000000000E+00 0. -1.
        -14    1    6    6    0    0 -0.69950178893E+02  0.35890304598E+01 -0.64055786172E+01  0.70334487304E+02  0.00000000000E+00 0.  1.
</event>
<event>
12    1  0.9017558E-003  0.1833888E+03  0.7818608E-02  0.1164583E+00
         21   -1    0    0  503  502  0.00000000000E+00  0.00000000000E+00  0.62318105963E+02  0.62318105963E+02  0.00000000000E+00 0. -1.
         21   -1    0    0  501  503 -0.00000000000E+00 -0.00000000000E+00 -0.54150424107E+03  0.54150424107E+03  0.00000000000E+00 0. -1.
          6    2    1    2  501    0  0.60682837736E+02  0.87180911990E+01 -0.25822992343E+03  0.31667590137E+03  0.17274988059E+03 0.  0.
         24    2    3    3    0    0 -0.39823577667E+01 -0.22775561733E+02 -0.22187926637E+03  0.23594859525E+03  0.76855353559E+02 0.  0.
         -6    2    1    2    0  502 -0.60682837736E+02 -0.87180911990E+01 -0.22095621168E+03  0.28714644566E+03  0.17283813777E+03 0.  0.
        -24    2    5    5    0    0 -0.80516236530E+02  0.45833586805E+02 -0.13017997795E+03  0.17929625378E+03  0.81343333681E+02 0.  0.
          5    1    3    3  501    0  0.64665195502E+02  0.31493652932E+02 -0.36350657060E+02  0.80727306118E+02  0.47000000000E+01 0. -1.
        -11    1    4    4    0    0  0.27880114180E+02 -0.31600155172E+02 -0.81757151343E+02  0.91978814785E+02  0.00000000000E+00 0.  1.
         12    1    4    4    0    0 -0.31862471947E+02  0.88245934394E+01 -0.14012211502E+03  0.14396978046E+03  0.00000000000E+00 0. -1.
         -5    1    5    5    0  502  0.19833398794E+02 -0.54551678004E+02 -0.90776233725E+02  0.10785019189E+03  0.47000000000E+01 0.  1.
         11    1    6    6    0    0 -0.31095130823E+02 -0.13996411034E+02 -0.87788200075E+01  0.35211849759E+02  0.00000000000E+00 0. -1.
        -12    1    6    6    0    0 -0.49421105707E+02  0.59829997839E+02 -0.12140115794E+03  0.14408440402E+03  0.00000000000E+00 0.  1.
</event>
<event>
12    1  0.9017558E-003  0.1811507E+03  0.7818608E-02  0.1166853E+00
         21   -1    0    0  503  502  0.00000000000E+00  0.00000000000E+00  0.26252461804E+03  0.26252461804E+03  0.00000000000E+00 0. -1.
         21   -1    0    0  501  503 -0.00000000000E+00 -0.00000000000E+00 -0.12963824970E+03  0.12963824970E+03  0.00000000000E+00 0. -1.
          6    2    1    2  501    0 -0.21676668961E+02 -0.52195061128E+02  0.10519380690E+03  0.20890769169E+03  0.17141319743E+03 0.  0.
         24    2    3    3    0    0 -0.29120108668E+02 -0.21772243275E+02 -0.11055059565E+02  0.88421835277E+02  0.79838557764E+02 0.  0.
         -6    2    1    2    0  502  0.21676668961E+02  0.52195061128E+02  0.27692561443E+02  0.18325517605E+03  0.17210862618E+03 0.  0.
        -24    2    5    5    0    0 -0.76084133323E+01  0.97604843072E+02  0.23778230304E+02  0.12887616972E+03  0.80368336681E+02 0.  0.
          5    1    3    3  501    0  0.74434397070E+01 -0.30422817853E+02  0.11624886647E+03  0.12048585641E+03  0.47000000000E+01 0. -1.
        -11    1    4    4    0    0 -0.55937837571E+02 -0.51747771772E+01 -0.78103661642E+01  0.56717032808E+02  0.00000000000E+00 0.  1.
         12    1    4    4    0    0  0.26817728903E+02 -0.16597466097E+02 -0.32446934010E+01  0.31704802469E+02  0.00000000000E+00 0. -1.
         -5    1    5    5    0  502  0.29285082293E+02 -0.45409781944E+02  0.39143311394E+01  0.54379006330E+02  0.47000000000E+01 0.  1.
         13    1    6    6    0    0  0.11376722648E+02  0.65039311835E+02 -0.21981358453E+02  0.69589668928E+02  0.00000000000E+00 0. -1.
        -14    1    6    6    0    0 -0.18985135980E+02  0.32565531237E+02  0.45759588757E+02  0.59286500792E+02  0.00000000000E+00 0.  1.
</event>
<event>
12    1  0.9017558E-003  0.1868401E+03  0.7818608E-02  0.1162630E+00
         21   -1    0    0  501  502  0.00000000000E+00  0.00000000000E+00  0.12482685793E+04  0.12482685793E+04  0.00000000000E+00 0. -1.
         21   -1    0    0  502  503 -0.00000000000E+00 -0.00000000000E+00 -0.27736609827E+02  0.27736609827E+02  0.00000000000E+00 0. -1.
          6    2    1    2  501    0  0.18579881743E+02 -0.69255291434E+02  0.69415260667E+03  0.71744948576E+03  0.16656655087E+03 0.  0.
         24    2    3    3    0    0  0.10547780614E+02 -0.17343974650E+02  0.62191592425E+03  0.62800940668E+03  0.84878318242E+02 0.  0.
         -6    2    1    2    0  503 -0.18579881743E+02  0.69255291434E+02  0.52637936278E+03  0.55855570335E+03  0.17253328022E+03 0.  0.
        -24    2    5    5    0    0 -0.45610765100E+02  0.10282687208E+03  0.46313343858E+03  0.48187548028E+03  0.71117431360E+02 0.  0.
          5    1    3    3  501    0  0.80321011283E+01 -0.51911316784E+02  0.72236682418E+02  0.89440079078E+02  0.47000000000E+01 0. -1.
        -11    1    4    4    0    0 -0.18482016533E+02  0.25511583847E+02  0.33357090966E+03  0.33505518593E+03  0.00000000000E+00 0.  1.
         12    1    4    4    0    0  0.29029797147E+02 -0.42855558498E+02  0.28834501459E+03  0.29295422075E+03  0.00000000000E+00 0. -1.
         -5    1    5    5    0  503  0.27030883357E+02 -0.33571580648E+02  0.63245924198E+02  0.76680223070E+02  0.47000000000E+01 0.  1.
         11    1    6    6    0    0 -0.44176173543E+02  0.17235305580E+02  0.15815301716E+03  0.16510895464E+03  0.00000000000E+00 0. -1.
        -12    1    6    6    0    0 -0.14345915573E+01  0.85591566503E+02  0.30498042142E+03  0.31676652563E+03  0.00000000000E+00 0.  1.
</event>
<event>
12    1  0.9017558E-003  0.3177573E+03  0.7818608E-02  0.1076875E+00
         21   -1    0    0  501  502  0.00000000000E+00  0.00000000000E+00  0.19713023355E+03  0.19713023355E+03  0.00000000000E+00 0. -1.
         21   -1    0    0  502  503 -0.00000000000E+00 -0.00000000000E+00 -0.54748809528E+03  0.54748809528E+03  0.00000000000E+00 0.  1.
          6    2    1    2  501    0 -0.62527626089E+02  0.25833746099E+03 -0.76799429736E+02  0.32532857596E+03  0.17115075856E+03 0.  0.
         24    2    3    3    0    0 -0.67263119922E+02  0.23524709659E+03 -0.11468051958E+03  0.28046593229E+03  0.75126518941E+02 0.  0.
         -6    2    1    2    0  503  0.62527626089E+02 -0.25833746099E+03 -0.27355843199E+03  0.41928975288E+03  0.17413136816E+03 0.  0.
        -24    2    5    5    0    0 -0.39688951369E+01 -0.20736509272E+03 -0.23066233858E+03  0.32504467612E+03  0.97123082883E+02 0.  0.
          5    1    3    3  501    0  0.47354938333E+01  0.23090364399E+02  0.37881089840E+02  0.44862643674E+02  0.47000000000E+01 0. -1.
        -13    1    4    4    0    0 -0.64268080563E+01  0.42304211502E+02 -0.54713386627E+02  0.69458655679E+02  0.00000000000E+00 0.  1.
         14    1    4    4    0    0 -0.60836311866E+02  0.19294288509E+03 -0.59967132949E+02  0.21100727661E+03  0.00000000000E+00 0. -1.
         -5    1    5    5    0  503  0.66496521226E+02 -0.50972368270E+02 -0.42896093415E+02  0.94245076754E+02  0.47000000000E+01 0.  1.
         13    1    6    6    0    0 -0.23537357065E+02 -0.36054188819E+01 -0.17803908021E+02  0.29731891358E+02  0.00000000000E+00 0. -1.
        -14    1    6    6    0    0  0.19568461928E+02 -0.20375967384E+03 -0.21285843056E+03  0.29531278476E+03  0.00000000000E+00 0.  1.
</event>
<event>
12    1  0.9017558E-003  0.1827883E+03  0.7818608E-02  0.1165210E+00
         21   -1    0    0  503  502  0.00000000000E+00  0.00000000000E+00  0.54365675758E+02  0.54365675758E+02  0.00000000000E+00 0.  1.
         21   -1    0    0  501  503 -0.00000000000E+00 -0.00000000000E+00 -0.11004623909E+04  0.11004623909E+04  0.00000000000E+00 0. -1.
          6    2    1    2  501    0 -0.56095568026E+02  0.27830438562E+02 -0.90690283548E+03  0.92507492388E+03  0.17137565675E+03 0.  0.
         24    2    3    3    0    0 -0.97815079602E+02  0.28024848730E+02 -0.49336347375E+03  0.50940985541E+03  0.75747617911E+02 0.  0.
         -6    2    1    2    0  502  0.56095568026E+02 -0.27830438562E+02 -0.13919387968E+03  0.22975314280E+03  0.17172747137E+03 0.  0.
        -24    2    5    5    0    0  0.82225133880E+02 -0.50879086327E+02 -0.14823433810E+03  0.19345143122E+03  0.78104949786E+02 0.  0.
          5    1    3    3  501    0  0.41719511576E+02 -0.19441016869E+00 -0.41353936173E+03  0.41566506847E+03  0.47000000000E+01 0. -1.
        -11    1    4    4    0    0  0.42055920399E+01 -0.14770103375E+02 -0.43111727386E+02  0.45765314336E+02  0.00000000000E+00 0.  1.
         12    1    4    4    0    0 -0.10202067164E+03  0.42794952105E+02 -0.45025174636E+03  0.46364454108E+03  0.00000000000E+00 0. -1.
         -5    1    5    5    0  502 -0.26129565854E+02  0.23048647765E+02  0.90404584163E+01  0.36301711583E+02  0.47000000000E+01 0.  1.
         13    1    6    6    0    0  0.40901085990E+02  0.17405549127E+02 -0.50917885053E+02  0.67590554029E+02  0.00000000000E+00 0. -1.
        -14    1    6    6    0    0  0.41324047889E+02 -0.68284635454E+02 -0.97316453046E+02  0.12586087719E+03  0.00000000000E+00 0.  1.
</event>
<event>
12    1  0.9017558E-003  0.1728735E+03  0.7818608E-02  0.1174955E+00
         21   -1    0    0  501  502  0.00000000000E+00  0.00000000000E+00  0.34098705208E+02  0.34098705208E+02  0.00000000000E+00 0.  1.
         21   -1    0    0  502  503 -0.00000000000E+00 -0.00000000000E+00 -0.94808753820E+03  0.94808753820E+03  0.00000000000E+00 0.  1.
          6    2    1    2  501    0 -0.18362993030E+02 -0.95204500821E+01 -0.32101069479E+03  0.36459992298E+03  0.17163157979E+03 0.  0.
         24    2    3    3    0    0 -0.70424238024E+02 -0.39176375680E+02 -0.21385616995E+03  0.24174216235E+03  0.78806407843E+02 0.  0.
         -6    2    1    2    0  503  0.18362993030E+02  0.95204500821E+01 -0.59297813820E+03  0.61758632043E+03  0.17135329678E+03 0.  0.
        -24    2    5    5    0    0 -0.27244520011E+02  0.51178177854E+02 -0.23480515384E+03  0.25409575900E+03  0.77908437988E+02 0.  0.
          5    1    3    3  501    0  0.52061244993E+02  0.29655925598E+02 -0.10715452484E+03  0.12285776063E+03  0.47000000000E+01 0. -1.
        -13    1    4    4    0    0 -0.37805245204E+01 -0.45020024547E+02 -0.99037783201E+02  0.10885576456E+03  0.00000000000E+00 0.  1.
         14    1    4    4    0    0 -0.66643713503E+02  0.58436488670E+01 -0.11481838675E+03  0.13288639779E+03  0.00000000000E+00 0. -1.
         -5    1    5    5    0  503  0.45607513041E+02 -0.41657727772E+02 -0.35817298436E+03  0.36349056143E+03  0.47000000000E+01 0.  1.
         13    1    6    6    0    0 -0.11809103493E+02  0.70973288677E+02 -0.16997440207E+03  0.18457507955E+03  0.00000000000E+00 0. -1.
        -14    1    6    6    0    0 -0.15435416518E+02 -0.19795110823E+02 -0.64830751774E+02  0.69520679450E+02  0.00000000000E+00 0.  1.
</event>
<event>
12    1  0.9017558E-003  0.2267707E+03  0.7818608E-02  0.1129106E+00
         21   -1    0    0  501  502  0.00000000000E+00  0.00000000000E+00  0.55359853909E+02  0.55359853909E+02  0.00000000000E+00 0.  1.
         21   -1    0    0  502  503 -0.00000000000E+00 -0.00000000000E+00 -0.10441406680E+04  0.10441406680E+04  0.00000000000E+00 0. -1.
          6    2    1    2  501    0 -0.10896829129E+03  0.99275206110E+02 -0.30961124836E+03  0.38377607101E+03  0.17232322107E+03 0.  0.
         24    2    3    3    0    0 -0.33003624092E+02  0.11494700995E+02 -0.51785298783E+02  0.10098222735E+03  0.79336786652E+02 0.  0.
         -6    2    1    2    0  503  0.10896829129E+03 -0.99275206110E+02 -0.67916956575E+03  0.71572445091E+03  0.17105711191E+03 0.  0.
        -24    2    5    5    0    0  0.10948381999E+03 -0.15715805198E+02 -0.49816531785E+03  0.51630763364E+03  0.78556955640E+02 0.  0.
          5    1    3    3  501    0 -0.75964667195E+02  0.87780505115E+02 -0.25782594957E+03  0.28279384366E+03  0.47000000000E+01 0. -1.
        -11    1    4    4    0    0 -0.50579355913E+02 -0.10031145234E+02 -0.51944027618E+02  0.73192056430E+02  0.00000000000E+00 0.  1.
         12    1    4    4    0    0  0.17575731821E+02  0.21525846229E+02  0.15872883484E+00  0.27790170920E+02  0.00000000000E+00 0. -1.
         -5    1    5    5    0  503 -0.51552869983E+00 -0.83559400913E+02 -0.18100424791E+03  0.19941681727E+03  0.47000000000E+01 0.  1.
         13    1    6    6    0    0  0.66297934244E+02  0.85086809879E+01 -0.14471729517E+03  0.15940799622E+03  0.00000000000E+00 0. -1.
        -14    1    6    6    0    0  0.43185885743E+02 -0.24224486186E+02 -0.35344802268E+03  0.35689963742E+03  0.00000000000E+00 0.  1.
</event>
<event>
12    1  0.9017558E-003  0.1909739E+03  0.7818608E-02  0.1157667E+00
         21   -1    0    0  503  502  0.00000000000E+00  0.00000000000E+00  0.14938942224E+04  0.14938942224E+04  0.00000000000E+00 0.  1.
         21   -1    0    0  501  503 -0.00000000000E+00 -0.00000000000E+00 -0.24368464362E+02  0.24368464362E+02  0.00000000000E+00 0.  1.
          6    2    1    2  501    0  0.79966626237E+02 -0.34840567033E+02  0.73908544519E+03  0.76326991080E+03  0.16948491089E+03 0.  0.
         24    2    3    3    0    0  0.20129444673E+02 -0.77223021645E+02  0.52641381273E+03  0.53826307978E+03  0.79038289447E+02 0.  0.
         -6    2    1    2    0  502 -0.79966626237E+02  0.34840567033E+02  0.73044031281E+03  0.75499277592E+03  0.16988971333E+03 0.  0.
        -24    2    5    5    0    0 -0.63431818612E+02  0.72963028952E+02  0.66828761940E+03  0.68008103275E+03  0.80960914450E+02 0.  0.
          5    1    3    3  501    0  0.59837181564E+02  0.42382454612E+02  0.21267163245E+03  0.22500683102E+03  0.47000000000E+01 0. -1.
        -11    1    4    4    0    0  0.27144122923E+02 -0.43961533886E+02  0.12288079484E+03  0.13330082375E+03  0.00000000000E+00 0.  1.
         12    1    4    4    0    0 -0.70146782494E+01 -0.33261487759E+02  0.40353301789E+03  0.40496225603E+03  0.00000000000E+00 0. -1.
         -5    1    5    5    0  502 -0.16534807625E+02 -0.38122461918E+02  0.62152693416E+02  0.74911743170E+02  0.47000000000E+01 0.  1.
         11    1    6    6    0    0  0.17045148848E+02 -0.39914597197E+00  0.79490938987E+02  0.81298867137E+02  0.00000000000E+00 0. -1.
        -12    1    6    6    0    0 -0.80476967460E+02  0.73362174924E+02  0.58879668041E+03  0.59878216562E+03  0.00000000000E+00 0.  1.
</event>
<event>
12    1  0.9017558E-003  0.1868098E+03  0.7818608E-02  0.1161703E+00
         21   -1    0    0  501  502  0.00000000000E+00  0.00000000000E+00  0.13169303095E+04  0.13169303095E+04  0.00000000000E+00 0.  1.
         21   -1    0    0  502  503 -0.00000000000E+00 -0.00000000000E+00 -0.31536618767E+02  0.31536618767E+02  0.00000000000E+00 0.  1.
          6    2    1    2  501    0  0.24328533513E+01  0.70113235645E+02  0.91960602958E+03  0.93838858838E+03  0.17313609842E+03 0.  0.
         24    2    3    3    0    0  0.43938847845E+02  0.19805379470E+02  0.27030125041E+03  0.28579957972E+03  0.79345815193E+02 0.  0.
         -6    2    1    2    0  503 -0.24328533513E+01 -0.70113235645E+02  0.36578766112E+03  0.41007833985E+03  0.17158626752E+03 0.  0.
        -24    2    5    5    0    0 -0.54528174137E+02 -0.46155955877E+02  0.13921862755E+03  0.17631886802E+03  0.81257756082E+02 0.  0.
          5    1    3    3  501    0 -0.41505994494E+02  0.50307856175E+02  0.64930477918E+03  0.65258900867E+03  0.47000000000E+01 0. -1.
        -11    1    4    4    0    0  0.56193107001E+00  0.16468395396E+02  0.21407140430E+03  0.21470465750E+03  0.00000000000E+00 0.  1.
         12    1    4    4    0    0  0.43376916775E+02  0.33369840746E+01  0.56229846104E+02  0.71094922213E+02  0.00000000000E+00 0. -1.
         -5    1    5    5    0  503  0.52095320786E+02 -0.23957279768E+02  0.22656903356E+03  0.23375947183E+03  0.47000000000E+01 0.  1.
         11    1    6    6    0    0 -0.15194423328E+02  0.23624594894E+02  0.36874683147E+02  0.46354441441E+02  0.00000000000E+00 0. -1.
        -12    1    6    6    0    0 -0.39333750809E+02 -0.69780550771E+02  0.10234394441E+03  0.12996442658E+03  0.00000000000E+00 0.  1.
</event>
<event>
12    1  0.9017558E-003  0.2085027E+03  0.7818608E-02  0.1143657E+00
         21   -1    0    0  501  502  0.00000000000E+00  0.00000000000E+00  0.59200654805E+03  0.59200654805E+03  0.00000000000E+00 0. -1.
         21   -1    0    0  502  503 -0.00000000000E+00 -0.00000000000E+00 -0.22886193406E+03  0.22886193406E+03  0.00000000000E+00 0. -1.
          6    2    1    2  501    0 -0.35679713782E+02 -0.10574137959E+03  0.52088023061E+03  0.55942272915E+03  0.17083118542E+03 0.  0.
         24    2    3    3    0    0 -0.11104668320E+02 -0.11563218303E+03  0.25155647737E+03  0.28875848158E+03  0.81281510604E+02 0.  0.
         -6    2    1    2    0  503  0.35679713782E+02  0.10574137959E+03 -0.15773561662E+03  0.26144575295E+03  0.17612233150E+03 0.  0.
        -24    2    5    5    0    0  0.32096701091E+02  0.13978268161E+03 -0.87900838857E+02  0.18353147693E+03  0.73401970379E+02 0.  0.
          5    1    3    3  501    0 -0.24575045462E+02  0.98908034388E+01  0.26932375324E+03  0.27066424757E+03  0.47000000000E+01 0. -1.
        -13    1    4    4    0    0  0.15056679373E+02 -0.90500332171E+02  0.11311790968E+03  0.14564571813E+03  0.00000000000E+00 0.  1.
         14    1    4    4    0    0 -0.26161347693E+02 -0.25131850861E+02  0.13843856769E+03  0.14311276345E+03  0.00000000000E+00 0. -1.
         -5    1    5    5    0  503  0.35830126907E+01 -0.34041302013E+02 -0.69834777763E+02  0.77914276021E+02  0.47000000000E+01 0.  1.
         11    1    6    6    0    0  0.14067524972E+02  0.10114215714E+03 -0.95969799401E+02  0.14013505488E+03  0.00000000000E+00 0. -1.
        -12    1    6    6    0    0  0.18029176119E+02  0.38640524470E+02  0.80689605431E+01  0.43396422054E+02  0.00000000000E+00 0.  1.
</event>
<event>
12    1  0.9017558E-003  0.2928326E+03  0.7818608E-02  0.1088914E+00
         21   -1    0    0  501  502  0.00000000000E+00  0.00000000000E+00  0.15182953850E+03  0.15182953850E+03  0.00000000000E+00 0.  1.
         21   -1    0    0  502  503 -0.00000000000E+00 -0.00000000000E+00 -0.58256534765E+03  0.58256534765E+03  0.00000000000E+00 0. -1.
          6    2    1    2  501    0  0.14218266554E+03 -0.18947944787E+03 -0.28055154246E+03  0.40553682047E+03  0.17214114335E+03 0.  0.
         24    2    3    3    0    0  0.15513305764E+03 -0.10397049867E+03 -0.19046861569E+03  0.28057075810E+03  0.86980035481E+02 0.  0.
         -6    2    1    2    0  503 -0.14218266554E+03  0.18947944787E+03 -0.15018426669E+03  0.32885806567E+03  0.17167976540E+03 0.  0.
        -24    2    5    5    0    0 -0.61002557307E+02  0.86060058218E+02 -0.14624802079E+03  0.19723981405E+03  0.79921305301E+02 0.  0.
          5    1    3    3  501    0 -0.12950392093E+02 -0.85508949201E+02 -0.90082926776E+02  0.12496606237E+03  0.47000000000E+01 0. -1.
        -13    1    4    4    0    0  0.68747137736E+02 -0.25479489233E+02 -0.12967951873E+03  0.14897030206E+03  0.00000000000E+00 0.  1.
         14    1    4    4    0    0  0.86385919899E+02 -0.78491009441E+02 -0.60789096956E+02  0.13160045604E+03  0.00000000000E+00 0. -1.
         -5    1    5    5    0  503 -0.81180108235E+02  0.10341938966E+03 -0.39362459020E+01  0.13161825163E+03  0.47000000000E+01 0.  1.
         13    1    6    6    0    0 -0.79257026545E+02  0.61069306543E+02 -0.98978171190E+02  0.14074023885E+03  0.00000000000E+00 0. -1.
        -14    1    6    6    0    0  0.18254469237E+02  0.24990751675E+02 -0.47269849601E+02  0.56499575200E+02  0.00000000000E+00 0.  1.
</event>
<event>
12    1  0.9017558E-003  0.2154554E+03  0.7818608E-02  0.1137457E+00
         21   -1    0    0  503  502  0.00000000000E+00  0.00000000000E+00  0.10795288288E+04  0.10795288288E+04  0.00000000000E+00 0. -1.
         21   -1    0    0  501  503 -0.00000000000E+00 -0.00000000000E+00 -0.10636391733E+03  0.10636391733E+03  0.00000000000E+00 0.  1.
          6    2    1    2  501    0  0.10875856481E+03  0.75217925711E+02  0.28739158172E+02  0.21736367544E+03  0.17010251738E+03 0.  0.
         24    2    3    3    0    0  0.49667632536E+02  0.28033922194E+02 -0.48096362108E+02  0.10945697666E+03  0.80092416467E+02 0.  0.
         -6    2    1    2    0  502 -0.10875856481E+03 -0.75217925711E+02  0.94442575327E+03  0.96852907066E+03  0.16918154599E+03 0.  0.
        -24    2    5    5    0    0 -0.38281473721E+02 -0.49947682278E+02  0.79688401291E+03  0.80301091238E+03  0.76433979183E+02 0.  0.
          5    1    3    3  501    0  0.59090932278E+02  0.47184003517E+02  0.76835520280E+02  0.10790669878E+03  0.47000000000E+01 0. -1.
        -11    1    4    4    0    0  0.28837264271E+01  0.31648259936E+02  0.11329845342E+02  0.33738607419E+02  0.00000000000E+00 0.  1.
         12    1    4    4    0    0  0.46783906109E+02 -0.36143377425E+01 -0.59426207450E+02  0.75718369238E+02  0.00000000000E+00 0. -1.
         -5    1    5    5    0  502 -0.70477091092E+02 -0.25270243432E+02  0.14754174036E+03  0.16551815828E+03  0.47000000000E+01 0.  1.
         13    1    6    6    0    0 -0.53384023195E+02 -0.35656085720E+02  0.36327797283E+03  0.36890662223E+03  0.00000000000E+00 0. -1.
        -14    1    6    6    0    0  0.15102549474E+02 -0.14291596558E+02  0.43360604007E+03  0.43410429014E+03  0.00000000000E+00 0.  1.
</event>
<event>
12    1  0.9017558E-003  0.2031525E+03  0.7818608E-02  0.1148084E+00
         21   -1    0    0  503  502  0.00000000000E+00  0.00000000000E+00  0.27208389119E+04  0.27208389119E+04  0.00000000000E+00 0.  1.
         21   -1    0    0  501  503 -0.00000000000E+00 -0.00000000000E+00 -0.14996187244E+02  0.14996187244E+02  0.00000000000E+00 0.  1.
          6    2    1    2  501    0 -0.71134138029E+02 -0.69163671882E+02  0.11897290785E+04  0.12061712363E+04  0.17190140194E+03 0.  0.
         24    2    3    3    0    0  0.74383167540E+00  0.27098603146E+02  0.61559441193E+03  0.61958315812E+03  0.64745055807E+02 0.  0.
         -6    2    1    2    0  502  0.71134138029E+02  0.69163671882E+02  0.15161136462E+04  0.15296638628E+04  0.17727737046E+03 0.  0.
        -24    2    5    5    0    0  0.21614052574E+02  0.71886345021E+02  0.52642907663E+03  0.53872628207E+03  0.86392247305E+02 0.  0.
          5    1    3    3  501    0 -0.71877969705E+02 -0.96262275028E+02  0.57413466653E+03  0.58658807815E+03  0.47000000000E+01 0. -1.
        -13    1    4    4    0    0 -0.22693811082E+02  0.13093510334E+01  0.43871756691E+03  0.43930607437E+03  0.00000000000E+00 0.  1.
         14    1    4    4    0    0  0.23437642758E+02  0.25789252113E+02  0.17687684501E+03  0.18027708375E+03  0.00000000000E+00 0. -1.
         -5    1    5    5    0  502  0.49520085455E+02 -0.27226731386E+01  0.98968456953E+03  0.99093758077E+03  0.47000000000E+01 0.  1.
         11    1    6    6    0    0 -0.20725751255E+02 -0.52335396513E+01  0.18148410875E+03  0.18273868893E+03  0.00000000000E+00 0. -1.
        -12    1    6    6    0    0  0.42339803829E+02  0.77119884672E+02  0.34494496788E+03  0.35598759314E+03  0.00000000000E+00 0.  1.
</event>
<event>
12    1  0.9017558E-003  0.2065315E+03  0.7818608E-02  0.1145038E+00
         21   -1    0    0  501  502  0.00000000000E+00  0.00000000000E+00  0.24761438175E+03  0.24761438175E+03  0.00000000000E+00 0. -1.
         21   -1    0    0  502  503 -0.00000000000E+00 -0.00000000000E+00 -0.16959549877E+03  0.16959549877E+03  0.00000000000E+00 0.  1.
          6    2    1    2  501    0 -0.72319852944E+02 -0.88118907311E+02  0.45149292953E+02  0.20807910929E+03  0.16811708453E+03 0.  0.
         24    2    3    3    0    0 -0.11356694586E+03 -0.74620387290E+02  0.46323022004E+02  0.16440989408E+03  0.80119520161E+02 0.  0.
         -6    2    1    2    0  503  0.72319852944E+02  0.88118907311E+02  0.32869590023E+02  0.20913077124E+03  0.17222127213E+03 0.  0.
        -24    2    5    5    0    0  0.16643274210E+02  0.11337235035E+03  0.14945116197E-01  0.13956687617E+03  0.79678254868E+02 0.  0.
          5    1    3    3  501    0  0.41247092920E+02 -0.13498520021E+02 -0.11737290508E+01  0.43669215209E+02  0.47000000000E+01 0. -1.
        -13    1    4    4    0    0 -0.74843196646E+02 -0.70504762266E+02  0.64559092392E+02  0.12140964540E+03  0.00000000000E+00 0.  1.
         14    1    4    4    0    0 -0.38723749217E+02 -0.41156250235E+01 -0.18236070389E+02  0.43000248674E+02  0.00000000000E+00 0. -1.
         -5    1    5    5    0  503  0.55676578734E+02 -0.25253443044E+02  0.32854644907E+02  0.69563895068E+02  0.47000000000E+01 0.  1.
         13    1    6    6    0    0 -0.25979463855E+02  0.51281808192E+02 -0.21284307327E+02  0.61300718854E+02  0.00000000000E+00 0. -1.
        -14    1    6    6    0    0  0.42622738065E+02  0.62090542163E+02  0.21299252443E+02  0.78266157315E+02  0.00000000000E+00 0.  1.
</event>
<event>
12    1  0.9017558E-003  0.2322181E+03  0.7818608E-02  0.1125863E+00
         21   -1    0    0  501  502  0.00000000000E+00  0.00000000000E+00  0.84579671988E+03  0.84579671988E+03  0.00000000000E+00 0. -1.
         21   -1    0    0  502  503 -0.00000000000E+00 -0.00000000000E+00 -0.85190380014E+02  0.85190380014E+02  0.00000000000E+00 0.  1.
          6    2    1    2  501    0  0.11300657209E+03 -0.97980904408E+02  0.13767053750E+03  0.26617566588E+03  0.17183004757E+03 0.  0.
         24    2    3    3    0    0 -0.14271503809E+01 -0.70290255971E+02  0.88871912245E+02  0.13864039752E+03  0.79876067729E+02 0.  0.
         -6    2    1    2    0  503 -0.11300657209E+03  0.97980904408E+02  0.62293580237E+03  0.66481143401E+03  0.17763582398E+03 0.  0.
        -24    2    5    5    0    0 -0.14783954059E+02  0.73441603031E+02  0.46048981964E+03  0.47334173065E+03  0.79933007092E+02 0.  0.
          5    1    3    3  501    0  0.11443372247E+03 -0.27690648437E+02  0.48798625255E+02  0.12753526836E+03  0.47000000000E+01 0. -1.
        -11    1    4    4    0    0 -0.79524170529E+01 -0.15413386251E+02 -0.13717514584E+02  0.22112973999E+02  0.00000000000E+00 0.  1.
         12    1    4    4    0    0  0.65252666720E+01 -0.54876869721E+02  0.10258942683E+03  0.11652742352E+03  0.00000000000E+00 0. -1.
         -5    1    5    5    0  503 -0.98222618029E+02  0.24539301377E+02  0.16244598272E+03  0.19146970337E+03  0.47000000000E+01 0.  1.
         11    1    6    6    0    0 -0.39853553341E+02  0.70432834633E+02  0.39386292106E+03  0.40209089830E+03  0.00000000000E+00 0. -1.
        -12    1    6    6    0    0  0.25069599283E+02  0.30087683984E+01  0.66626898586E+02  0.71250832350E+02  0.00000000000E+00 0.  1.
</event>
<event>
12    1  0.9017558E-003  0.2370287E+03  0.7818608E-02  0.1121940E+00
         21   -1    0    0  503  502  0.00000000000E+00  0.00000000000E+00  0.45218859147E+02  0.45218859147E+02  0.00000000000E+00 0.  1.
         21   -1    0    0  501  503 -0.00000000000E+00 -0.00000000000E+00 -0.17908265786E+04  0.17908265786E+04  0.00000000000E+00 0. -1.
          6    2    1    2  501    0 -0.60217850009E+02  0.15016258109E+03 -0.13841124851E+04  0.14042613682E+04  0.17322710107E+03 0.  0.
         24    2    3    3    0    0 -0.39300818228E+00  0.28670873563E+02 -0.30137841140E+03  0.31308108471E+03  0.79803792500E+02 0.  0.
         -6    2    1    2    0  502  0.60217850009E+02 -0.15016258109E+03 -0.36149523436E+03  0.43178406957E+03  0.17199909316E+03 0.  0.
        -24    2    5    5    0    0  0.18847228450E+02 -0.94908744512E+01 -0.17198406969E+03  0.19212466768E+03  0.82994415400E+02 0.  0.
          5    1    3    3  501    0 -0.59824841826E+02  0.12149170753E+03 -0.10827340737E+04  0.10911802835E+04  0.47000000000E+01 0. -1.
        -11    1    4    4    0    0  0.15121966639E+02 -0.16293883324E+02 -0.19847403495E+03  0.19971506467E+03  0.00000000000E+00 0.  1.
         12    1    4    4    0    0 -0.15514974821E+02  0.44964756886E+02 -0.10290437645E+03  0.11336602004E+03  0.00000000000E+00 0. -1.
         -5    1    5    5    0  502  0.41370621559E+02 -0.14067170664E+03 -0.18951116467E+03  0.23965940189E+03  0.47000000000E+01 0.  1.
         11    1    6    6    0    0 -0.21541371511E+02 -0.24974851962E+02 -0.33369658545E+02  0.46918099157E+02  0.00000000000E+00 0. -1.
        -12    1    6    6    0    0  0.40388599961E+02  0.15483977511E+02 -0.13861441115E+03  0.14520656853E+03  0.00000000000E+00 0.  1.
</event>
<event>
12    1  0.9017558E-003  0.2517331E+03  0.7818608E-02  0.1112236E+00
         21   -1    0    0  503  502  0.00000000000E+00  0.00000000000E+00  0.73322425039E+02  0.73322425039E+02  0.00000000000E+00 0. -1.
         21   -1    0    0  501  503 -0.00000000000E+00 -0.00000000000E+00 -0.14334694835E+04  0.14334694835E+04  0.00000000000E+00 0. -1.
          6    2    1    2  501    0 -0.18376948601E+03 -0.10376693346E+00 -0.20501515533E+03  0.32454859742E+03  0.17184104113E+03 0.  0.
         24    2    3    3    0    0 -0.87283165580E+02  0.58864406987E+02 -0.71837522115E+02  0.14977666731E+03  0.78670522329E+02 0.  0.
         -6    2    1    2    0  502  0.18376948601E+03  0.10376693346E+00 -0.11551319031E+04  0.11822433111E+04  0.17204155980E+03 0.  0.
        -24    2    5    5    0    0  0.20378119685E+03 -0.52971104310E+01 -0.11212250710E+04  0.11422257986E+04  0.77325800684E+02 0.  0.
          5    1    3    3  501    0 -0.96486320427E+02 -0.58968173921E+02 -0.13317763321E+03  0.17477193011E+03  0.47000000000E+01 0. -1.
        -13    1    4    4    0    0 -0.99359307863E+02  0.53035972091E+02 -0.75840966505E+02  0.13578268886E+03  0.00000000000E+00 0.  1.
         14    1    4    4    0    0  0.12076142283E+02  0.58284348960E+01  0.40034443906E+01  0.13993978447E+02  0.00000000000E+00 0. -1.
         -5    1    5    5    0  502 -0.20011710847E+02  0.54008773645E+01 -0.33906832118E+02  0.40017512562E+02  0.47000000000E+01 0.  1.
         11    1    6    6    0    0  0.15993305915E+03  0.28540949348E+02 -0.85574617143E+03  0.87103081410E+03  0.00000000000E+00 0. -1.
        -12    1    6    6    0    0  0.43848137703E+02 -0.33838059779E+02 -0.26547889960E+03  0.27119498447E+03  0.00000000000E+00 0.  1.
</event>
<event>
12    1  0.9017558E-003  0.2959659E+03  0.7818608E-02  0.1087420E+00
         21   -1    0    0  501  502  0.00000000000E+00  0.00000000000E+00  0.31841528789E+03  0.31841528789E+03  0.00000000000E+00 0.  1.
         21   -1    0    0  502  503 -0.00000000000E+00 -0.00000000000E+00 -0.36948338720E+03  0.36948338720E+03  0.00000000000E+00 0.  1.
          6    2    1    2  501    0  0.22588780449E+03 -0.84322099159E+02  0.14931627190E+03  0.33047775792E+03  0.16966049276E+03 0.  0.
         24    2    3    3    0    0  0.18775359985E+03 -0.63541552959E+02  0.17884081143E+03  0.27775359744E+03  0.76642559007E+02 0.  0.
         -6    2    1    2    0  503 -0.22588780449E+03  0.84322099159E+02 -0.20038437120E+03  0.35742091717E+03  0.17164002793E+03 0.  0.
        -24    2    5    5    0    0 -0.73959827100E+02  0.89036598017E+02 -0.12957447973E+03  0.18966970989E+03  0.76075496997E+02 0.  0.
          5    1    3    3  501    0  0.38134204635E+02 -0.20780546199E+02 -0.29524539527E+02  0.52724160475E+02  0.47000000000E+01 0. -1.
        -11    1    4    4    0    0  0.87366222408E+02 -0.37428864807E+02  0.36916084681E+02  0.10196359177E+03  0.00000000000E+00 0.  1.
         12    1    4    4    0    0  0.10038737744E+03 -0.26112688152E+02  0.14192472675E+03  0.17579000567E+03  0.00000000000E+00 0. -1.
         -5    1    5    5    0  503 -0.15192797739E+03 -0.47144988586E+01 -0.70809891474E+02  0.16775120728E+03  0.47000000000E+01 0.  1.
         11    1    6    6    0    0 -0.23510171908E+02 -0.31845014680E+01 -0.57536328878E+02  0.62235828696E+02  0.00000000000E+00 0. -1.
        -12    1    6    6    0    0 -0.50449655192E+02  0.92221099485E+02 -0.72038150850E+02  0.12743388120E+03  0.00000000000E+00 0.  1.
</event>
<event>
12    1  0.9017558E-003  0.1796275E+03  0.7818608E-02  0.1168216E+00
         21   -1    0    0  503  502  0.00000000000E+00  0.00000000000E+00  0.10551573519E+04  0.10551573519E+04  0.00000000000E+00 0.  1.
         21   -1    0    0  501  503 -0.00000000000E+00 -0.00000000000E+00 -0.34845350998E+02  0.34845350998E+02  0.00000000000E+00 0. -1.
          6    2    1    2  501    0 -0.48137853457E+02  0.73578728709E+01  0.31891872266E+03  0.36602619921E+03  0.17290065243E+03 0.  0.
         24    2    3    3    0    0 -0.94901117949E+01 -0.45763469177E+02  0.26648235496E+03  0.28184076357E+03  0.78974762851E+02 0.  0.
         -6    2    1    2    0  502  0.48137853457E+02 -0.73578728709E+01  0.70139327828E+03  0.72397650373E+03  0.17267905464E+03 0.  0.
        -24    2    5    5    0    0 -0.19441002590E+02 -0.47348596829E+02  0.47052848608E+03  0.48007734001E+03  0.80357662821E+02 0.  0.
          5    1    3    3  501    0 -0.38647741662E+02  0.53121342048E+02  0.52436367698E+02  0.84185435640E+02  0.47000000000E+01 0. -1.
        -13    1    4    4    0    0  0.23542295429E+02  0.10784632913E+02  0.64376577121E+02  0.69389420396E+02  0.00000000000E+00 0.  1.
         14    1    4    4    0    0 -0.33032407224E+02 -0.56548102090E+02  0.20210577784E+03  0.21245134317E+03  0.00000000000E+00 0. -1.
         -5    1    5    5    0  502  0.67578856047E+02  0.39990723958E+02  0.23086479220E+03  0.24389916372E+03  0.47000000000E+01 0.  1.
         13    1    6    6    0    0 -0.14582993029E+02  0.17572520129E+02  0.22170971792E+03  0.22288260625E+03  0.00000000000E+00 0. -1.
        -14    1    6    6    0    0 -0.48580095607E+01 -0.64921116958E+02  0.24881876817E+03  0.25719473376E+03  0.00000000000E+00 0.  1.
</event>
<event>
12    1  0.9017558E-003  0.3037645E+03  0.7818608E-02  0.1083513E+00
         21   -1    0    0  501  502  0.00000000000E+00  0.00000000000E+00  0.15139203337E+03  0.15139203337E+03  0.00000000000E+00 0. -1.
         21   -1    0    0  502  503 -0.00000000000E+00 -0.00000000000E+00 -0.63390619627E+03  0.63390619627E+03  0.00000000000E+00 0.  1.
          6    2    1    2  501    0  0.87406544915E+02  0.23604010620E+03 -0.32223828437E+03  0.44284355404E+03  0.17005312586E+03 0.  0.
         24    2    3    3    0    0  0.83945427044E+01  0.89923362537E+02 -0.63233303078E+02  0.13511206458E+03  0.78103392369E+02 0.  0.
         -6    2    1    2    0  503 -0.87406544915E+02 -0.23604010620E+03 -0.16027587852E+03  0.34245467560E+03  0.16802384288E+03 0.  0.
        -24    2    5    5    0    0 -0.96112716985E+02 -0.21150930439E+03 -0.80664718181E+02  0.25856436317E+03  0.79842926614E+02 0.  0.
          5    1    3    3  501    0  0.79012002210E+02  0.14611674366E+03 -0.25900498130E+03  0.30773148946E+03  0.47000000000E+01 0. -1.
        -11    1    4    4    0    0  0.15162563196E+02  0.10289570348E+03 -0.60188419907E+02  0.12016686319E+03  0.00000000000E+00 0.  1.
         12    1    4    4    0    0 -0.67680204917E+01 -0.12972340947E+02 -0.30448831717E+01  0.14945201389E+02  0.00000000000E+00 0. -1.
         -5    1    5    5    0  503  0.87061720704E+01 -0.24530801804E+02 -0.79611160337E+02  0.83890312429E+02  0.47000000000E+01 0.  1.
         13    1    6    6    0    0 -0.59116945880E+02 -0.55488298831E+02 -0.50162581901E+02  0.95341749619E+02  0.00000000000E+00 0. -1.
        -14    1    6    6    0    0 -0.36995771104E+02 -0.15602100556E+03 -0.30502136280E+02  0.16322261355E+03  0.00000000000E+00 0.  1.
</event>
<event>
12    1  0.9017558E-003  0.2033178E+03  0.7818608E-02  0.1147956E+00
         21   -1    0    0  501  502  0.00000000000E+00  0.00000000000E+00  0.25030664529E+03  0.25030664529E+03  0.00000000000E+00 0.  1.
         21   -1    0    0  502  503 -0.00000000000E+00 -0.00000000000E+00 -0.16139099437E+03  0.16139099437E+03  0.00000000000E+00 0. -1.
          6    2    1    2  501    0  0.29558226053E+02  0.10088047964E+03  0.48628842905E+02  0.20905237488E+03  0.17403324735E+03 0.  0.
         24    2    3    3    0    0  0.38888261861E+02  0.13775799494E+03  0.32106723237E+02  0.16731424913E+03  0.80459021913E+02 0.  0.
         -6    2    1    2    0  503 -0.29558226053E+02 -0.10088047964E+03  0.40286808017E+02  0.20264526478E+03  0.16849782354E+03 0.  0.
        -24    2    5    5    0    0  0.18633516101E+02 -0.12086848029E+03  0.34581677736E+02  0.14995178612E+03  0.79581708173E+02 0.  0.
          5    1    3    3  501    0 -0.93300358088E+01 -0.36877515296E+02  0.16522119668E+02  0.41738125748E+02  0.47000000000E+01 0. -1.
        -11    1    4    4    0    0 -0.19207427764E+02  0.64819076854E+02  0.30207665729E+02  0.74046884299E+02  0.00000000000E+00 0.  1.
         12    1    4    4    0    0  0.58095689626E+02  0.72938918081E+02  0.18990575080E+01  0.93267364835E+02  0.00000000000E+00 0. -1.
         -5    1    5    5    0  503 -0.48191742153E+02  0.19988000651E+02  0.57051302809E+01  0.52693478660E+02  0.47000000000E+01 0.  1.
         13    1    6    6    0    0  0.27399711114E+02 -0.11112393513E+03  0.53977910859E+02  0.12654204040E+03  0.00000000000E+00 0. -1.
        -14    1    6    6    0    0 -0.87661950135E+01 -0.97445451632E+01 -0.19396233123E+02  0.23409745723E+02  0.00000000000E+00 0.  1.
</event>
<event>
12    1  0.9017558E-003  0.1811992E+03  0.7818608E-02  0.1166911E+00
         21   -1    0    0  503  502  0.00000000000E+00  0.00000000000E+00  0.11110127877E+04  0.11110127877E+04  0.00000000000E+00 0. -1.
         21   -1    0    0  501  503 -0.00000000000E+00 -0.00000000000E+00 -0.30129151555E+02  0.30129151555E+02  0.00000000000E+00 0. -1.
          6    2    1    2  501    0  0.18210666343E+02  0.52101500249E+02  0.45172965444E+03  0.48671635918E+03  0.17258893040E+03 0.  0.
         24    2    3    3    0    0 -0.26411565466E+02  0.19953009398E+02  0.40141640308E+03  0.41202912936E+03  0.86816941923E+02 0.  0.
         -6    2    1    2    0  502 -0.18210666343E+02 -0.52101500249E+02  0.62915398174E+03  0.65442558011E+03  0.17144069664E+03 0.  0.
        -24    2    5    5    0    0  0.21603340047E+02 -0.77026095919E+02  0.55841762535E+03  0.56938375105E+03  0.77252106153E+02 0.  0.
          5    1    3    3  501    0  0.44622231809E+02  0.32148490851E+02  0.50313251354E+02  0.74687229814E+02  0.47000000000E+01 0. -1.
        -13    1    4    4    0    0 -0.15466325169E+02  0.20316293793E+02  0.40019639310E+03  0.40101011466E+03  0.00000000000E+00 0.  1.
         14    1    4    4    0    0 -0.10945240297E+02 -0.36328439550E+00  0.12200099829E+01  0.11019014705E+02  0.00000000000E+00 0. -1.
         -5    1    5    5    0  502 -0.39814006390E+02  0.24924595671E+02  0.70736356386E+02  0.85041829054E+02  0.47000000000E+01 0.  1.
         11    1    6    6    0    0 -0.93107722394E+01 -0.78901756659E+02  0.43053434202E+03  0.43780360590E+03  0.00000000000E+00 0. -1.
        -12    1    6    6    0    0  0.30914112286E+02  0.18756607396E+01  0.12788328333E+03  0.13158014515E+03  0.00000000000E+00 0.  1.
</event>
<event>
12    1  0.9017558E-003  0.1744711E+03  0.7818608E-02  0.1173508E+00
         21   -1    0    0  501  502  0.00000000000E+00  0.00000000000E+00  0.49626124318E+03  0.49626124318E+03  0.00000000000E+00 0. -1.
         21   -1    0    0  502  503 -0.00000000000E+00 -0.00000000000E+00 -0.61820018970E+02  0.61820018970E+02  0.00000000000E+00 0. -1.
          6    2    1    2  501    0 -0.20090627717E+01  0.22669319504E+02  0.24997098828E+03  0.30483709072E+03  0.17298041079E+03 0.  0.
         24    2    3    3    0    0  0.14759035641E+02 -0.42728016524E+02  0.20371957976E+03  0.22286597706E+03  0.78256399276E+02 0.  0.
         -6    2    1    2    0  503  0.20090627717E+01 -0.22669319504E+02  0.18447023593E+03  0.25324417143E+03  0.17200409309E+03 0.  0.
        -24    2    5    5    0    0  0.70569555967E+02 -0.33324945291E+02  0.12479088233E+03  0.16160466666E+03  0.66728477924E+02 0.  0.
          5    1    3    3  501    0 -0.16768098413E+02  0.65397336028E+02  0.46251408524E+02  0.81971113658E+02  0.47000000000E+01 0. -1.
        -11    1    4    4    0    0 -0.26026447353E+02 -0.67512959683E+00  0.10402299800E+03  0.10723159924E+03  0.00000000000E+00 0.  1.
         12    1    4    4    0    0  0.40785482993E+02 -0.42052886927E+02  0.99696581755E+02  0.11563437783E+03  0.00000000000E+00 0. -1.
         -5    1    5    5    0  503 -0.68560493195E+02  0.10655625787E+02  0.59679353607E+02  0.91639504773E+02  0.47000000000E+01 0.  1.
         13    1    6    6    0    0  0.32429880502E+01  0.57693147267E+01  0.59868906597E+02  0.60233611390E+02  0.00000000000E+00 0. -1.
        -14    1    6    6    0    0  0.67326567917E+02 -0.39094260017E+02  0.64921975730E+02  0.10137105527E+03  0.00000000000E+00 0.  1.
</event>
<event>
12    1  0.9017558E-003  0.2243806E+03  0.7818608E-02  0.1130785E+00
         21   -1    0    0  501  502  0.00000000000E+00  0.00000000000E+00  0.21159770007E+03  0.21159770007E+03  0.00000000000E+00 0. -1.
         21   -1    0    0  502  503 -0.00000000000E+00 -0.00000000000E+00 -0.23909509482E+03  0.23909509482E+03  0.00000000000E+00 0.  1.
          6    2    1    2  501    0  0.58580002462E+01 -0.14285116370E+03  0.63002857956E+01  0.22446906180E+03  0.17293320955E+03 0.  0.
         24    2    3    3    0    0 -0.11784125493E+02 -0.21890069944E+01 -0.14153485574E+02  0.81159837764E+02  0.79012282252E+02 0.  0.
         -6    2    1    2    0  503 -0.58580002462E+01  0.14285116370E+03 -0.33797680543E+02  0.22622373309E+03  0.17202942500E+03 0.  0.
        -24    2    5    5    0    0 -0.21973540732E+02  0.11183458568E+03  0.41009922547E+02  0.14351940287E+03  0.76981778400E+02 0.  0.
          5    1    3    3  501    0  0.17642125740E+02 -0.14066215671E+03  0.20453771370E+02  0.14330922403E+03  0.47000000000E+01 0. -1.
        -11    1    4    4    0    0  0.11264586816E+02  0.25221127562E+02  0.18050347438E+02  0.32997139789E+02  0.00000000000E+00 0.  1.
         12    1    4    4    0    0 -0.23048712309E+02 -0.27410134556E+02 -0.32203833013E+02  0.48162697975E+02  0.00000000000E+00 0. -1.
         -5    1    5    5    0  503  0.16115540486E+02  0.31016578020E+02 -0.74807603090E+02  0.82704330221E+02  0.47000000000E+01 0.  1.
         13    1    6    6    0    0  0.20661686742E+02  0.74561809396E+01  0.18106250688E+02  0.28466405590E+02  0.00000000000E+00 0. -1.
        -14    1    6    6    0    0 -0.42635227474E+02  0.10437840474E+03  0.22903671859E+02  0.11505299728E+03  0.00000000000E+00 0.  1.
</event>
<event>
12    1  0.9017558E-003  0.2300830E+03  0.7818608E-02  0.1127172E+00
         21   -1    0    0  503  502  0.00000000000E+00  0.00000000000E+00  0.25847615373E+03  0.25847615373E+03  0.00000000000E+00 0.  1.
         21   -1    0    0  501  503 -0.00000000000E+00 -0.00000000000E+00 -0.20757538714E+03  0.20757538714E+03  0.00000000000E+00 0.  1.
          6    2    1    2  501    0  0.24112173045E+02  0.15094090366E+03 -0.13413067542E+02  0.22714892952E+03  0.16748782796E+03 0.  0.
         24    2    3    3    0    0  0.72329584566E+02  0.72318677662E+02  0.16021989681E+02  0.13022171049E+03  0.78990061322E+02 0.  0.
         -6    2    1    2    0  502 -0.24112173045E+02 -0.15094090366E+03  0.64313834138E+02  0.23890261135E+03  0.17196986702E+03 0.  0.
        -24    2    5    5    0    0  0.64608474376E+01 -0.54892211517E+02 -0.27267784867E+02  0.10263323187E+03  0.82067964265E+02 0.  0.
          5    1    3    3  501    0 -0.48217411521E+02  0.78622225999E+02 -0.29435057223E+02  0.96927219028E+02  0.47000000000E+01 0. -1.
        -13    1    4    4    0    0  0.60620855992E+02  0.45205997872E+02 -0.25025621761E+02  0.79653952628E+02  0.00000000000E+00 0.  1.
         14    1    4    4    0    0  0.11708728574E+02  0.27112679790E+02  0.41047611442E+02  0.50567757863E+02  0.00000000000E+00 0. -1.
         -5    1    5    5    0  502 -0.30573020483E+02 -0.96048692144E+02  0.91581619005E+02  0.13626937948E+03  0.47000000000E+01 0.  1.
         13    1    6    6    0    0 -0.30392265532E+02 -0.14767935569E+02 -0.33762615994E+02  0.47767101272E+02  0.00000000000E+00 0. -1.
        -14    1    6    6    0    0  0.36853112970E+02 -0.40124275949E+02  0.64948311269E+01  0.54866130603E+02  0.00000000000E+00 0.  1.
</event>
<event>
12    1  0.9017558E-003  0.3274152E+03  0.7818608E-02  0.1072304E+00
         21   -1    0    0  503  502  0.00000000000E+00  0.00000000000E+00  0.30333667713E+03  0.30333667713E+03  0.00000000000E+00 0. -1.
         21   -1    0    0  501  503 -0.00000000000E+00 -0.00000000000E+00 -0.44925566112E+03  0.44925566112E+03  0.00000000000E+00 0.  1.
          6    2    1    2  501    0 -0.25466069701E+03  0.11292375853E+03 -0.24694161344E+03  0.41009859060E+03  0.17203734397E+03 0.  0.
         24    2    3    3    0    0 -0.13033936780E+03  0.81371708338E+02 -0.21753071798E+03  0.27842317322E+03  0.81179704412E+02 0.  0.
         -6    2    1    2    0  502  0.25466069701E+03 -0.11292375853E+03  0.10102262945E+03  0.34249374766E+03  0.17173395029E+03 0.  0.
        -24    2    5    5    0    0  0.16308745577E+03 -0.11961366798E+03  0.18351113659E+02  0.21885280411E+03  0.81577194713E+02 0.  0.
          5    1    3    3  501    0 -0.12432132921E+03  0.31552050190E+02 -0.29410895461E+02  0.13167541737E+03  0.47000000000E+01 0. -1.
        -11    1    4    4    0    0 -0.92494960806E+02  0.64596656951E+02 -0.89929717892E+02  0.14427543112E+03  0.00000000000E+00 0.  1.
         12    1    4    4    0    0 -0.37844406992E+02  0.16775051387E+02 -0.12760100008E+03  0.13414774211E+03  0.00000000000E+00 0. -1.
         -5    1    5    5    0  502  0.91573241240E+02  0.66899094483E+01  0.82671515788E+02  0.12364094355E+03  0.47000000000E+01 0.  1.
         13    1    6    6    0    0  0.15287022839E+03 -0.82348716889E+02 -0.49880697902E+01  0.17371096322E+03  0.00000000000E+00 0. -1.
        -14    1    6    6    0    0  0.10217227378E+02 -0.37264951088E+02  0.23339183450E+02  0.45141840890E+02  0.00000000000E+00 0.  1.
</event>
<event>
12    1  0.9017558E-003  0.2052298E+03  0.7818608E-02  0.1145860E+00
         21   -1    0    0  503  502  0.00000000000E+00  0.00000000000E+00  0.22446105358E+03  0.22446105358E+03  0.00000000000E+00 0. -1.
         21   -1    0    0  501  503 -0.00000000000E+00 -0.00000000000E+00 -0.32341297729E+03  0.32341297729E+03  0.00000000000E+00 0. -1.
          6    2    1    2  501    0  0.86142096732E+02  0.68940419123E+02 -0.22844752609E+03  0.30709535625E+03  0.17304925147E+03 0.  0.
         24    2    3    3    0    0  0.39949316925E+02  0.10616558946E+03 -0.12302718544E+03  0.18603741791E+03  0.81284390859E+02 0.  0.
         -6    2    1    2    0  502 -0.86142096732E+02 -0.68940419123E+02  0.12949560238E+03  0.24077867462E+03  0.17038784258E+03 0.  0.
        -24    2    5    5    0    0 -0.11797822702E+03 -0.21365404534E+02  0.90537611205E+02  0.17137596371E+03  0.82445856985E+02 0.  0.
          5    1    3    3  501    0  0.46192779806E+02 -0.37225170333E+02 -0.10542034065E+03  0.12105793834E+03  0.47000000000E+01 0. -1.
        -13    1    4    4    0    0  0.31535970535E+02 -0.11738064487E+01 -0.33349012384E+02  0.45913526179E+02  0.00000000000E+00 0.  1.
         14    1    4    4    0    0  0.84133463902E+01  0.10733939591E+03 -0.89678173056E+02  0.14012389173E+03  0.00000000000E+00 0. -1.
         -5    1    5    5    0  502  0.31836130292E+02 -0.47575014590E+02  0.38957991173E+02  0.69402710908E+02  0.47000000000E+01 0.  1.
         11    1    6    6    0    0 -0.72251874995E+02 -0.48694364713E+02  0.33544711843E+02  0.93363388369E+02  0.00000000000E+00 0. -1.
        -12    1    6    6    0    0 -0.45726352028E+02  0.27328960180E+02  0.56992899362E+02  0.78012575345E+02  0.00000000000E+00 0.  1.
</event>
<event>
12    1  0.9017558E-003  0.1897339E+03  0.7818608E-02  0.1158822E+00
         21   -1    0    0  501  502  0.00000000000E+00  0.00000000000E+00  0.10625860652E+04  0.10625860652E+04  0.00000000000E+00 0.  1.
         21   -1    0    0  502  503 -0.00000000000E+00 -0.00000000000E+00 -0.34886631716E+02  0.34886631716E+02  0.00000000000E+00 0.  1.
          6    2    1    2  501    0  0.31613935777E+01  0.79393460471E+02  0.41557648678E+03  0.45661900802E+03  0.17170843352E+03 0.  0.
         24    2    3    3    0    0  0.22731777666E+02  0.28563325109E+02  0.90202820572E+02  0.12668444593E+03  0.81115983290E+02 0.  0.
         -6    2    1    2    0  503 -0.31613935777E+01 -0.79393460471E+02  0.61212294669E+03  0.64085368888E+03  0.17229519065E+03 0.  0.
        -24    2    5    5    0    0  0.19098606056E+02 -0.11763545134E+03  0.43649157326E+03  0.45967304207E+03  0.81065133754E+02 0.  0.
          5    1    3    3  501    0 -0.19570384088E+02  0.50830135362E+02  0.32537366621E+03  0.32993456208E+03  0.47000000000E+01 0. -1.
        -11    1    4    4    0    0  0.15683895873E+01  0.54612258789E+02  0.63693323437E+02  0.83915422340E+02  0.00000000000E+00 0.  1.
         12    1    4    4    0    0  0.21163388079E+02 -0.26048933680E+02  0.26509497135E+02  0.42769023594E+02  0.00000000000E+00 0. -1.
         -5    1    5    5    0  503 -0.22259999633E+02  0.38241990868E+02  0.17563137342E+03  0.18118064681E+03  0.47000000000E+01 0.  1.
         11    1    6    6    0    0 -0.16351009451E+02  0.44982542929E+01  0.50974749278E+02  0.53721642433E+02  0.00000000000E+00 0. -1.
        -12    1    6    6    0    0  0.35449615507E+02 -0.12213370563E+03  0.38551682399E+03  0.40595139964E+03  0.00000000000E+00 0.  1.
</event>
<event>
12    1  0.9017558E-003  0.1993337E+03  0.7818608E-02  0.1150666E+00
         21   -1    0    0  501  502  0.00000000000E+00  0.00000000000E+00  0.19307819446E+03  0.19307819446E+03  0.00000000000E+00 0. -1.
         21   -1    0    0  502  503 -0.00000000000E+00 -0.00000000000E+00 -0.35893163568E+03  0.35893163568E+03  0.00000000000E+00 0. -1.
          6    2    1    2  501    0 -0.56657148882E+02 -0.81544994470E+02  0.98592207675E+02  0.22085212964E+03  0.17086726167E+03 0.  0.
         24    2    3    3    0    0 -0.34746328920E+02  0.14422544313E+02  0.83027396889E+02  0.12108136305E+03  0.79698373166E+02 0.  0.
         -6    2    1    2    0  503  0.56657148882E+02  0.81544994470E+02 -0.26444564889E+03  0.33115770051E+03  0.17284184315E+03 0.  0.
        -24    2    5    5    0    0  0.86112772163E+02  0.10225083998E+03 -0.24484740665E+03  0.28989577035E+03  0.78858489188E+02 0.  0.
          5    1    3    3  501    0 -0.21910819963E+02 -0.95967538783E+02  0.15564810786E+02  0.99770766592E+02  0.47000000000E+01 0. -1.
        -13    1    4    4    0    0  0.20387972808E+02  0.34619574180E+01 -0.16165933954E+00  0.20680442890E+02  0.00000000000E+00 0.  1.
         14    1    4    4    0    0 -0.55134301728E+02  0.10960586895E+02  0.83189056229E+02  0.10040092016E+03  0.00000000000E+00 0. -1.
         -5    1    5    5    0  503 -0.29455623281E+02 -0.20705845510E+02 -0.19598242241E+02  0.41261930154E+02  0.47000000000E+01 0.  1.
         11    1    6    6    0    0  0.55538719232E+01  0.49013400354E+02 -0.13452848511E+03  0.14328667842E+03  0.00000000000E+00 0. -1.
        -12    1    6    6    0    0  0.80558900240E+02  0.53237439625E+02 -0.11031892154E+03  0.14660909193E+03  0.00000000000E+00 0.  1.
</event>
<event>
12    1  0.9017558E-003  0.2035332E+03  0.7818608E-02  0.1146914E+00
         21   -1    0    0  503  502  0.00000000000E+00  0.00000000000E+00  0.35850929861E+02  0.35850929861E+02  0.00000000000E+00 0.  1.
         21   -1    0    0  501  503 -0.00000000000E+00 -0.00000000000E+00 -0.14551291760E+04  0.14551291760E+04  0.00000000000E+00 0.  1.
          6    2    1    2  501    0 -0.97306576378E+02 -0.45176529768E+02 -0.10506280566E+04  0.10701612410E+04  0.17296323301E+03 0.  0.
         24    2    3    3    0    0 -0.35030063954E+02  0.34562459816E+02 -0.29298141358E+03  0.30577443054E+03  0.72375580571E+02 0.  0.
         -6    2    1    2    0  502  0.97306576378E+02  0.45176529768E+02 -0.36865018959E+03  0.42081886482E+03  0.17226742598E+03 0.  0.
        -24    2    5    5    0    0  0.73053644942E+02  0.63747862415E+02 -0.13272962856E+03  0.18288252839E+03  0.80176305034E+02 0.  0.
          5    1    3    3  501    0 -0.62276512424E+02 -0.79738989584E+02 -0.75764664297E+03  0.76438681050E+03  0.47000000000E+01 0. -1.
        -11    1    4    4    0    0 -0.26879902632E+02 -0.15565883799E+02 -0.62862225644E+02  0.70117653390E+02  0.00000000000E+00 0.  1.
         12    1    4    4    0    0 -0.81501613215E+01  0.50128343616E+02 -0.23011918793E+03  0.23565677715E+03  0.00000000000E+00 0. -1.
         -5    1    5    5    0  502  0.24252931436E+02 -0.18571332648E+02 -0.23592056102E+03  0.23793633643E+03  0.47000000000E+01 0.  1.
         13    1    6    6    0    0  0.33475832911E+02 -0.65062314900E+01 -0.91256999234E+01  0.35302136428E+02  0.00000000000E+00 0. -1.
        -14    1    6    6    0    0  0.39577812031E+02  0.70254093905E+02 -0.12360392864E+03  0.14758039196E+03  0.00000000000E+00 0.  1.
</event>
<event>
12    1  0.9017558E-003  0.2127876E+03  0.7818608E-02  0.1139638E+00
         21   -1    0    0  501  502  0.00000000000E+00  0.00000000000E+00  0.63769304196E+03  0.63769304196E+03  0.00000000000E+00 0.  1.
         21   -1    0    0  502  503 -0.00000000000E+00 -0.00000000000E+00 -0.75399050858E+02  0.75399050858E+02  0.00000000000E+00 0.  1.
          6    2    1    2  501    0  0.10976966018E+02 -0.12497623460E+03  0.37064980256E+03  0.42672511149E+03  0.17021601465E+03 0.  0.
         24    2    3    3    0    0  0.22487392345E+02 -0.12614956965E+02  0.88420303208E+02  0.12269694350E+03  0.81065220484E+02 0.  0.
         -6    2    1    2    0  503 -0.10976966018E+02  0.12497623460E+03  0.19164418854E+03  0.28636698133E+03  0.17186913625E+03 0.  0.
        -24    2    5    5    0    0  0.40046417935E+02  0.12857002936E+03  0.17250188916E+03  0.23155075474E+03  0.75662951446E+02 0.  0.
          5    1    3    3  501    0 -0.11510426327E+02 -0.11236127763E+03  0.28222949935E+03  0.30402816799E+03  0.47000000000E+01 0. -1.
        -13    1    4    4    0    0 -0.17980053745E+02 -0.52770124331E+01 -0.60267812439E+01  0.19683782285E+02  0.00000000000E+00 0.  1.
         14    1    4    4    0    0  0.40467446089E+02 -0.73379445317E+01  0.94447084452E+02  0.10301316122E+03  0.00000000000E+00 0. -1.
         -5    1    5    5    0  503 -0.51023383953E+02 -0.35937947598E+01  0.19142299387E+02  0.54816226581E+02  0.47000000000E+01 0.  1.
         11    1    6    6    0    0  0.51822516964E+01  0.40626930433E+02  0.79162284350E+01  0.41714144863E+02  0.00000000000E+00 0. -1.
        -12    1    6    6    0    0  0.34864166238E+02  0.87943098927E+02  0.16458566072E+03  0.18983660988E+03  0.00000000000E+00 0.  1.
</event>
<event>
12    1  0.9017558E-003  0.1852748E+03  0.7818608E-02  0.1162809E+00
         21   -1    0    0  501  502  0.00000000000E+00  0.00000000000E+00  0.37623675329E+03  0.37623675329E+03  0.00000000000E+00 0.  1.
         21   -1    0    0  502  503 -0.00000000000E+00 -0.00000000000E+00 -0.92056962786E+02  0.92056962786E+02  0.00000000000E+00 0.  1.
          6    2    1    2  501    0  0.20057975598E+01 -0.68239442051E+02  0.16466006356E+03  0.24787034017E+03  0.17223856807E+03 0.  0.
         24    2    3    3    0    0 -0.32425074424E+01 -0.11067485882E+03  0.99641116395E+02  0.16990969118E+03  0.81740521462E+02 0.  0.
         -6    2    1    2    0  503 -0.20057975598E+01  0.68239442051E+02  0.11951972695E+03  0.22042337590E+03  0.17216519636E+03 0.  0.
        -24    2    5    5    0    0  0.39928929368E+02  0.98920407423E+02  0.79905535383E+02  0.15491599363E+03  0.78958875960E+02 0.  0.
          5    1    3    3  501    0  0.52483050022E+01  0.42435416774E+02  0.65018947161E+02  0.77960648998E+02  0.47000000000E+01 0. -1.
        -11    1    4    4    0    0  0.22301734405E+02 -0.55357020942E+02  0.90339721922E+02  0.10827295360E+03  0.00000000000E+00 0.  1.
         12    1    4    4    0    0 -0.25544241847E+02 -0.55317837882E+02  0.93013944734E+01  0.61636737573E+02  0.00000000000E+00 0. -1.
         -5    1    5    5    0  503 -0.41934726928E+02 -0.30680965372E+02  0.39614191564E+02  0.65507382270E+02  0.47000000000E+01 0.  1.
         13    1    6    6    0    0 -0.60774353129E+01  0.44636231824E+02  0.69757454558E+02  0.83038731191E+02  0.00000000000E+00 0. -1.
        -14    1    6    6    0    0  0.46006364681E+02  0.54284175599E+02  0.10148080826E+02  0.71877262441E+02  0.00000000000E+00 0.  1.
</event>
<event>
12    1  0.9017558E-003  0.2053407E+03  0.7818608E-02  0.1145390E+00
         21   -1    0    0  503  502  0.00000000000E+00  0.00000000000E+00  0.84926723218E+03  0.84926723218E+03  0.00000000000E+00 0.  1.
         21   -1    0    0  501  503 -0.00000000000E+00 -0.00000000000E+00 -0.63847317815E+02  0.63847317815E+02  0.00000000000E+00 0.  1.
          6    2    1    2  501    0  0.10572904015E+03  0.34948378252E+02  0.17698013650E+03  0.27108442210E+03  0.17252471160E+03 0.  0.
         24    2    3    3    0    0  0.88564093630E+02  0.12467182872E+02  0.32805859751E+02  0.12408662751E+03  0.79512498167E+02 0.  0.
         -6    2    1    2    0  502 -0.10572904015E+03 -0.34948378252E+02  0.60843977786E+03  0.64203012790E+03  0.17205726596E+03 0.  0.
        -24    2    5    5    0    0 -0.70148949918E+02 -0.83429828338E+02  0.31479730705E+03  0.34225623896E+03  0.78489344191E+02 0.  0.
          5    1    3    3  501    0  0.17164946521E+02  0.22481195380E+02  0.14417427675E+03  0.14699779458E+03  0.47000000000E+01 0. -1.
        -11    1    4    4    0    0  0.62420912249E+02  0.24384656956E+02  0.55865098874E+02  0.87246152082E+02  0.00000000000E+00 0.  1.
         12    1    4    4    0    0  0.26143181380E+02 -0.11917474084E+02 -0.23059239123E+02  0.36840475433E+02  0.00000000000E+00 0. -1.
         -5    1    5    5    0  502 -0.35580090233E+02  0.48481450086E+02  0.29364247082E+03  0.29977388894E+03  0.47000000000E+01 0.  1.
         11    1    6    6    0    0  0.13260502654E+02 -0.15625524658E+02  0.20693042386E+02  0.29123872591E+02  0.00000000000E+00 0. -1.
        -12    1    6    6    0    0 -0.83409452572E+02 -0.67804303680E+02  0.29410426466E+03  0.31313236637E+03  0.00000000000E+00 0.  1.
</event>
<event>
12    1  0.9017558E-003  0.2715378E+03  0.7818608E-02  0.1100615E+00
         21   -1    0    0  503  502  0.00000000000E+00  0.00000000000E+00  0.88285590641E+02  0.88285590641E+02  0.00000000000E+00 0.  1.
         21   -1    0    0  501  503 -0.00000000000E+00 -0.00000000000E+00 -0.83183402675E+03  0.83183402675E+03  0.00000000000E+00 0. -1.
          6    2    1    2  501    0  0.33986828040E+02  0.20605590878E+03 -0.39068647938E+03  0.47578220471E+03  0.17354722448E+03 0.  0.
         24    2    3    3    0    0  0.19129446411E+02  0.12943140670E+03 -0.12107913493E+03  0.19506479113E+03  0.79194009003E+02 0.  0.
         -6    2    1    2    0  502 -0.33986828040E+02 -0.20605590878E+03 -0.35286195672E+03  0.44433741267E+03  0.17120173416E+03 0.  0.
        -24    2    5    5    0    0  0.12973716804E+02 -0.15740044020E+03 -0.32715524165E+03  0.37184208459E+03  0.79326967866E+02 0.  0.
          5    1    3    3  501    0  0.14857381629E+02  0.76624502079E+02 -0.26960734445E+03  0.28071741358E+03  0.47000000000E+01 0. -1.
        -11    1    4    4    0    0 -0.25335869282E+02  0.89758036948E+02 -0.76968549206E+02  0.12092381501E+03  0.00000000000E+00 0.  1.
         12    1    4    4    0    0  0.44465315693E+02  0.39673369750E+02 -0.44110585727E+02  0.74140976121E+02  0.00000000000E+00 0. -1.
         -5    1    5    5    0  502 -0.46960544844E+02 -0.48655468572E+02 -0.25706715074E+02  0.72495328083E+02  0.47000000000E+01 0.  1.
         11    1    6    6    0    0 -0.19663937848E+02 -0.93125421377E+02 -0.24333714672E+03  0.26128907656E+03  0.00000000000E+00 0. -1.
        -12    1    6    6    0    0  0.32637654651E+02 -0.64275018827E+02 -0.83818094933E+02  0.11055300803E+03  0.00000000000E+00 0.  1.
</event>
<event>
12    1  0.9017558E-003  0.1991522E+03  0.7818608E-02  0.1151285E+00
         21   -1    0    0  501  502  0.00000000000E+00  0.00000000000E+00  0.98493684229E+02  0.98493684229E+02  0.00000000000E+00 0.  1.
         21   -1    0    0  502  503 -0.00000000000E+00 -0.00000000000E+00 -0.47725897051E+03  0.47725897051E+03  0.00000000000E+00 0. -1.
          6    2    1    2  501    0  0.34826196221E+01  0.10349929537E+03 -0.71335185576E+02  0.21154268897E+03  0.17010986971E+03 0.  0.
         24    2    3    3    0    0 -0.56608936398E+02  0.26032380397E+02 -0.28344950587E+02  0.10438687566E+03  0.78809435207E+02 0.  0.
         -6    2    1    2    0  503 -0.34826196221E+01 -0.10349929537E+03 -0.30743010071E+03  0.36420996577E+03  0.16556388364E+03 0.  0.
        -24    2    5    5    0    0 -0.53160888043E+02 -0.51772538207E+02 -0.11182490529E+03  0.15581833870E+03  0.79171140588E+02 0.  0.
          5    1    3    3  501    0  0.60091556020E+02  0.77466914976E+02 -0.42990234989E+02  0.10715581331E+03  0.47000000000E+01 0. -1.
        -11    1    4    4    0    0  0.97228328167E+01 -0.15930190914E+02 -0.16687269032E+02  0.25035363154E+02  0.00000000000E+00 0.  1.
         12    1    4    4    0    0 -0.66331769215E+02  0.41962571311E+02 -0.11657681556E+02  0.79351512509E+02  0.00000000000E+00 0. -1.
         -5    1    5    5    0  503  0.49678268421E+02 -0.51726757165E+02 -0.19560519542E+03  0.20839162707E+03  0.47000000000E+01 0.  1.
         13    1    6    6    0    0 -0.31639890938E+02 -0.66704355327E+02 -0.51394519622E+02  0.89955268692E+02  0.00000000000E+00 0. -1.
        -14    1    6    6    0    0 -0.21520997105E+02  0.14931817120E+02 -0.60430385669E+02  0.65863070008E+02  0.00000000000E+00 0.  1.
</event>
<event>
12    1  0.9017558E-003  0.1882776E+03  0.7818608E-02  0.1161412E+00
         21   -1    0    0  503  502  0.00000000000E+00  0.00000000000E+00  0.96007102604E+02  0.96007102604E+02  0.00000000000E+00 0.  1.
         21   -1    0    0  501  503 -0.00000000000E+00 -0.00000000000E+00 -0.63736671740E+03  0.63736671740E+03  0.00000000000E+00 0.  1.
          6    2    1    2  501    0  0.73141652758E+02 -0.18302884918E+02 -0.51605541957E+03  0.54932836266E+03  0.17252175802E+03 0.  0.
         24    2    3    3    0    0  0.48811506322E+02  0.55642383239E+02 -0.33824404012E+03  0.35516648337E+03  0.79092112556E+02 0.  0.
         -6    2    1    2    0  502 -0.73141652758E+02  0.18302884918E+02 -0.25304195224E+02  0.18404545734E+03  0.16597509183E+03 0.  0.
        -24    2    5    5    0    0 -0.62496590784E+02 -0.47962940327E+02  0.12314158342E+00  0.11212107763E+03  0.79780031218E+02 0.  0.
          5    1    3    3  501    0  0.24330146437E+02 -0.73945268157E+02 -0.17781137946E+03  0.19416187930E+03  0.47000000000E+01 0. -1.
        -11    1    4    4    0    0  0.46536693405E+02 -0.45977640753E+01 -0.12127635357E+03  0.12997983383E+03  0.00000000000E+00 0.  1.
         12    1    4    4    0    0  0.22748129169E+01  0.60240147315E+02 -0.21696768654E+03  0.22518664953E+03  0.00000000000E+00 0. -1.
         -5    1    5    5    0  502 -0.10645061974E+02  0.66265825244E+02 -0.25427336808E+02  0.71924379712E+02  0.47000000000E+01 0.  1.
         13    1    6    6    0    0  0.19470888852E+00 -0.18643770238E+02 -0.31048580583E+02  0.36216604430E+02  0.00000000000E+00 0. -1.
        -14    1    6    6    0    0 -0.62691299672E+02 -0.29319170089E+02  0.31171722166E+02  0.75904473202E+02  0.00000000000E+00 0.  1.
</event>
<event>
12    1  0.9017558E-003  0.2363567E+03  0.7818608E-02  0.1124839E+00
         21   -1    0    0  503  502  0.00000000000E+00  0.00000000000E+00  0.48885558062E+02  0.48885558062E+02  0.00000000000E+00 0. -1.
         21   -1    0    0  501  503 -0.00000000000E+00 -0.00000000000E+00 -0.11013673885E+04  0.11013673885E+04  0.00000000000E+00 0.  1.
          6    2    1    2  501    0 -0.79878098988E+02 -0.11438330980E+03 -0.63578498381E+03  0.67829717153E+03  0.19078903272E+03 0.  0.
         24    2    3    3    0    0 -0.80727036467E+02 -0.15289667070E+03 -0.45672060208E+03  0.49507560493E+03  0.81313589925E+02 0.  0.
         -6    2    1    2    0  502  0.79878098988E+02  0.11438330980E+03 -0.41669684663E+03  0.47195577503E+03  0.17216834592E+03 0.  0.
        -24    2    5    5    0    0  0.87214833380E+02  0.10219616140E+03 -0.42634244032E+03  0.45413775788E+03  0.80142024845E+02 0.  0.
          5    1    3    3  501    0  0.84893747885E+00  0.38513360893E+02 -0.17906438173E+03  0.18322156659E+03  0.47000000000E+01 0. -1.
        -13    1    4    4    0    0 -0.72765705736E+02 -0.51053261047E+02 -0.20871507046E+03  0.22685516091E+03  0.00000000000E+00 0.  1.
         14    1    4    4    0    0 -0.79613307306E+01 -0.10184340965E+03 -0.24800553163E+03  0.26822044403E+03  0.00000000000E+00 0. -1.
         -5    1    5    5    0  502 -0.73367343917E+01  0.12187148403E+02  0.96455936899E+01  0.17818017156E+02  0.47000000000E+01 0.  1.
         13    1    6    6    0    0  0.56485483314E+02  0.42363671410E+02 -0.10990619525E+03  0.13063178111E+03  0.00000000000E+00 0. -1.
        -14    1    6    6    0    0  0.30729350066E+02  0.59832489991E+02 -0.31643624507E+03  0.32350597677E+03  0.00000000000E+00 0.  1.
</event>
<event>
12    1  0.9017558E-003  0.1902795E+03  0.7818608E-02  0.1158377E+00
         21   -1    0    0  503  502  0.00000000000E+00  0.00000000000E+00  0.10867741381E+04  0.10867741381E+04  0.00000000000E+00 0. -1.
         21   -1    0    0  501  503 -0.00000000000E+00 -0.00000000000E+00 -0.40349848535E+02  0.40349848535E+02  0.00000000000E+00 0. -1.
          6    2    1    2  501    0 -0.16878419225E+01  0.81211878357E+02  0.28658010011E+03  0.34399776041E+03  0.17207000725E+03 0.  0.
         24    2    3    3    0    0  0.31991207835E+02  0.14305346306E+02  0.64199276000E+02  0.10929351385E+03  0.81212344008E+02 0.  0.
         -6    2    1    2    0  502  0.16878419225E+01 -0.81211878357E+02  0.75984418945E+03  0.78312622621E+03  0.17124624360E+03 0.  0.
        -24    2    5    5    0    0 -0.50744104981E+02 -0.88096336288E+02  0.43464942597E+03  0.45362625806E+03  0.80751036215E+02 0.  0.
          5    1    3    3  501    0 -0.33679049757E+02  0.66906532051E+02  0.22238082411E+03  0.23470424656E+03  0.47000000000E+01 0. -1.
        -13    1    4    4    0    0 -0.47197553079E+01 -0.30275445695E+02  0.24165501638E+02  0.39023712940E+02  0.00000000000E+00 0.  1.
         14    1    4    4    0    0  0.36710963143E+02  0.44580792001E+02  0.40033774362E+02  0.70269800911E+02  0.00000000000E+00 0. -1.
         -5    1    5    5    0  502  0.52431946903E+02  0.68844579308E+01  0.32519476348E+03  0.32949996815E+03  0.47000000000E+01 0.  1.
         13    1    6    6    0    0 -0.29886456939E+02 -0.52646519718E+02  0.10328593324E+03  0.11971984109E+03  0.00000000000E+00 0. -1.
        -14    1    6    6    0    0 -0.20857648042E+02 -0.35449816570E+02  0.33136349273E+03  0.33390641697E+03  0.00000000000E+00 0.  1.
</event>
<event>
12    1  0.9017558E-003  0.1844535E+03  0.7818608E-02  0.1164001E+00
         21   -1    0    0  501  502  0.00000000000E+00  0.00000000000E+00  0.51303531563E+03  0.51303531563E+03  0.00000000000E+00 0.  1.
         21   -1    0    0  502  503 -0.00000000000E+00 -0.00000000000E+00 -0.89443645948E+02  0.89443645948E+02  0.00000000000E+00 0.  1.
          6    2    1    2  501    0  0.18973228364E+02  0.55751406072E+02  0.36638215136E+03  0.40935716356E+03  0.17282709235E+03 0.  0.
         24    2    3    3    0    0 -0.28643396215E+02  0.88831465474E+02  0.22286240427E+03  0.25449709423E+03  0.79935263387E+02 0.  0.
         -6    2    1    2    0  503 -0.18973228364E+02 -0.55751406072E+02  0.57209518326E+02  0.19312179802E+03  0.17479959156E+03 0.  0.
        -24    2    5    5    0    0 -0.30180723308E+02  0.29038769305E+02 -0.68301011511E+00  0.89736031917E+02  0.79359704759E+02 0.  0.
          5    1    3    3  501    0  0.47616624579E+02 -0.33080059402E+02  0.14351974709E+03  0.15486006932E+03  0.47000000000E+01 0. -1.
        -13    1    4    4    0    0 -0.55149242414E+02  0.42957238172E+02  0.12689506437E+03  0.14487622515E+03  0.00000000000E+00 0.  1.
         14    1    4    4    0    0  0.26505846199E+02  0.45874227302E+02  0.95967339894E+02  0.10962086909E+03  0.00000000000E+00 0. -1.
         -5    1    5    5    0  503  0.11207494944E+02 -0.84790175377E+02  0.57892528441E+02  0.10338576610E+03  0.47000000000E+01 0.  1.
         13    1    6    6    0    0  0.18160415509E+02  0.35931655399E+02  0.50285979925E+01  0.40573037216E+02  0.00000000000E+00 0. -1.
        -14    1    6    6    0    0 -0.48341138817E+02 -0.68928860939E+01 -0.57116081076E+01  0.49162994701E+02  0.00000000000E+00 0.  1.
</event>
<event>
12    1  0.9017558E-003  0.3242155E+03  0.7818608E-02  0.1073828E+00
         21   -1    0    0  503  502  0.00000000000E+00  0.00000000000E+00  0.12089607467E+03  0.12089607467E+03  0.00000000000E+00 0.  1.
         21   -1    0    0  501  503 -0.00000000000E+00 -0.00000000000E+00 -0.87962886820E+03  0.87962886820E+03  0.00000000000E+00 0. -1.
          6    2    1    2  501    0  0.25317631374E+03 -0.10597856885E+03 -0.32002945856E+03  0.45555956257E+03  0.17258608811E+03 0.  0.
         24    2    3    3    0    0  0.27073868615E+03 -0.83785471274E+02 -0.29844876002E+03  0.41965988216E+03  0.81995810618E+02 0.  0.
         -6    2    1    2    0  502 -0.25317631374E+03  0.10597856885E+03 -0.43870333498E+03  0.54496538030E+03  0.17087114066E+03 0.  0.
        -24    2    5    5    0    0 -0.73113583224E+02  0.56186066793E+01 -0.20878141103E+03  0.23612741301E+03  0.82397286308E+02 0.  0.
          5    1    3    3  501    0 -0.17562372409E+02 -0.22193097573E+02 -0.21580698536E+02  0.35899680413E+02  0.47000000000E+01 0. -1.
        -11    1    4    4    0    0  0.44161839694E+01 -0.26693384506E+01 -0.38243175669E+02  0.38589746487E+02  0.00000000000E+00 0.  1.
         12    1    4    4    0    0  0.26632250218E+03 -0.81116132824E+02 -0.26020558435E+03  0.38107013567E+03  0.00000000000E+00 0. -1.
         -5    1    5    5    0  502 -0.18006273052E+03  0.10035996217E+03 -0.22992192395E+03  0.30883796729E+03  0.47000000000E+01 0.  1.
         13    1    6    6    0    0 -0.68871719403E+02 -0.24990349748E+02 -0.17810206120E+03  0.19258290557E+03  0.00000000000E+00 0. -1.
        -14    1    6    6    0    0 -0.42418638210E+01  0.30608956428E+02 -0.30679349825E+02  0.43544507437E+02  0.00000000000E+00 0.  1.
</event>
<event>
12    1  0.9017558E-003  0.2329328E+03  0.7818608E-02  0.1124644E+00
         21   -1    0    0  503  502  0.00000000000E+00  0.00000000000E+00  0.30013192096E+03  0.30013192096E+03  0.00000000000E+00 0. -1.
         21   -1    0    0  501  503 -0.00000000000E+00 -0.00000000000E+00 -0.19958101692E+03  0.19958101692E+03  0.00000000000E+00 0. -1.
          6    2    1    2  501    0  0.69940611622E+02  0.14035768876E+03 -0.26912027413E+02  0.23418610057E+03  0.17183393882E+03 0.  0.
         24    2    3    3    0    0 -0.21159288385E+02  0.24552899478E+02 -0.80071128474E+01  0.85560978879E+02  0.78778213313E+02 0.  0.
         -6    2    1    2    0  502 -0.69940611622E+02 -0.14035768876E+03  0.12746293144E+03  0.26552683731E+03  0.17223743058E+03 0.  0.
        -24    2    5    5    0    0 -0.45701998292E+02 -0.15537808297E+02  0.93332914981E+02  0.13379050611E+03  0.82817693590E+02 0.  0.
          5    1    3    3  501    0  0.91099900007E+02  0.11580478928E+03 -0.18904914565E+02  0.14862512169E+03  0.47000000000E+01 0. -1.
        -11    1    4    4    0    0 -0.86897856642E+01  0.19392620248E+02 -0.43050080211E+02  0.48009327231E+02  0.00000000000E+00 0.  1.
         12    1    4    4    0    0 -0.12469502721E+02  0.51602792301E+01  0.35042967364E+02  0.37551651648E+02  0.00000000000E+00 0. -1.
         -5    1    5    5    0  502 -0.24238613331E+02 -0.12481988046E+03  0.34130016462E+02  0.13173633120E+03  0.47000000000E+01 0.  1.
         11    1    6    6    0    0 -0.11277265420E+02 -0.51332241493E+01 -0.15109582453E+02  0.19540373267E+02  0.00000000000E+00 0. -1.
        -12    1    6    6    0    0 -0.34424732872E+02 -0.10404584148E+02  0.10844249743E+03  0.11425013284E+03  0.00000000000E+00 0.  1.
</event>
<event>
12    1  0.9017558E-003  0.3024645E+03  0.7818608E-02  0.1084230E+00
         21   -1    0    0  503  502  0.00000000000E+00  0.00000000000E+00  0.59506344355E+03  0.59506344355E+03  0.00000000000E+00 0. -1.
         21   -1    0    0  501  503 -0.00000000000E+00 -0.00000000000E+00 -0.17437128670E+03  0.17437128670E+03  0.00000000000E+00 0. -1.
          6    2    1    2  501    0  0.10539620586E+03 -0.22541559267E+03  0.75751328633E+02  0.31180610960E+03  0.17194253856E+03 0.  0.
         24    2    3    3    0    0  0.13589627802E+03 -0.14811680623E+03  0.15602990877E+02  0.20911594784E+03  0.55494501065E+02 0.  0.
         -6    2    1    2    0  502 -0.10539620586E+03  0.22541559267E+03  0.34494082821E+03  0.45762862066E+03  0.16887637445E+03 0.  0.
        -24    2    5    5    0    0 -0.70806401586E+02  0.10045315458E+03  0.95593099716E+02  0.17654421127E+03  0.83219198806E+02 0.  0.
          5    1    3    3  501    0 -0.30500072167E+02 -0.77298786440E+02  0.60148337756E+02  0.10269016176E+03  0.47000000000E+01 0. -1.
        -11    1    4    4    0    0  0.28811503432E+02 -0.15219760288E+02 -0.14748251954E+02  0.35766671203E+02  0.00000000000E+00 0.  1.
         12    1    4    4    0    0  0.10708477459E+03 -0.13289704594E+03  0.30351242831E+02  0.17334927664E+03  0.00000000000E+00 0. -1.
         -5    1    5    5    0  502 -0.34589804270E+02  0.12496243809E+03  0.24934772850E+03  0.28108440938E+03  0.47000000000E+01 0.  1.
         11    1    6    6    0    0 -0.66059935874E+02  0.11179742449E+03  0.99552364942E+02  0.16362534222E+03  0.00000000000E+00 0. -1.
        -12    1    6    6    0    0 -0.47464657116E+01 -0.11344269910E+02 -0.39592652262E+01  0.12918869055E+02  0.00000000000E+00 0.  1.
</event>
<event>
12    1  0.9017558E-003  0.2075141E+03  0.7818608E-02  0.1144302E+00
         21   -1    0    0  503  502  0.00000000000E+00  0.00000000000E+00  0.39097275754E+03  0.39097275754E+03  0.00000000000E+00 0.  1.
         21   -1    0    0  501  503 -0.00000000000E+00 -0.00000000000E+00 -0.16135271032E+03  0.16135271032E+03  0.00000000000E+00 0.  1.
          6    2    1    2  501    0  0.51717819063E+01 -0.10983921508E+03 -0.44406924310E+02  0.20859171177E+03  0.17160165149E+03 0.  0.
         24    2    3    3    0    0  0.16391039241E+02 -0.70070724769E+02  0.39726112872E+02  0.11474149865E+03  0.80055448486E+02 0.  0.
         -6    2    1    2    0  502 -0.51717819063E+01  0.10983921508E+03  0.27402697153E+03  0.34373375610E+03  0.17598498078E+03 0.  0.
        -24    2    5    5    0    0 -0.51422369692E+02  0.64018474488E+02  0.24728775652E+03  0.27319488201E+03  0.82107148582E+02 0.  0.
          5    1    3    3  501    0 -0.11219257335E+02 -0.39768490307E+02 -0.84133037181E+02  0.93850213115E+02  0.47000000000E+01 0. -1.
        -13    1    4    4    0    0 -0.29801239098E+02 -0.96280617750E+01  0.15209761221E+02  0.34815948382E+02  0.00000000000E+00 0.  1.
         14    1    4    4    0    0  0.46192278339E+02 -0.60442662994E+02  0.24516351651E+02  0.79925550272E+02  0.00000000000E+00 0. -1.
         -5    1    5    5    0  502  0.46250587786E+02  0.45820740588E+02  0.26739215004E+02  0.70538874088E+02  0.47000000000E+01 0.  1.
         11    1    6    6    0    0  0.14686564162E+02 -0.43770213676E+01  0.12188249370E+02  0.19580778984E+02  0.00000000000E+00 0. -1.
        -12    1    6    6    0    0 -0.66108933854E+02  0.68395495855E+02  0.23509950715E+03  0.25361410302E+03  0.00000000000E+00 0.  1.
</event>
<event>
12    1  0.9017558E-003  0.2168906E+03  0.7818608E-02  0.1137179E+00
         21   -1    0    0  503  502  0.00000000000E+00  0.00000000000E+00  0.12605845050E+03  0.12605845050E+03  0.00000000000E+00 0. -1.
         21   -1    0    0  501  503 -0.00000000000E+00 -0.00000000000E+00 -0.57971640987E+03  0.57971640987E+03  0.00000000000E+00 0.  1.
          6    2    1    2  501    0 -0.10157971978E+03  0.82395448100E+02 -0.44340769317E+03  0.49361109936E+03  0.17301469796E+03 0.  0.
         24    2    3    3    0    0 -0.12976530521E+03  0.27322556503E+02 -0.31483389500E+03  0.35084989248E+03  0.79935655866E+02 0.  0.
         -6    2    1    2    0  502  0.10157971978E+03 -0.82395448100E+02 -0.10250266196E+02  0.21216376101E+03  0.16673615143E+03 0.  0.
        -24    2    5    5    0    0  0.30354498956E+02 -0.10669964796E+03 -0.10773392293E+00  0.13608033856E+03  0.78813935648E+02 0.  0.
          5    1    3    3  501    0  0.28185585434E+02  0.55072891598E+02 -0.12857379817E+03  0.14276120689E+03  0.47000000000E+01 0. -1.
        -13    1    4    4    0    0 -0.54057662627E+02  0.51954283125E+02 -0.16265197201E+03  0.17910092803E+03  0.00000000000E+00 0.  1.
         14    1    4    4    0    0 -0.75707642583E+02 -0.24631726622E+02 -0.15218192300E+03  0.17174896445E+03  0.00000000000E+00 0. -1.
         -5    1    5    5    0  502  0.71225220821E+02  0.24304199864E+02 -0.10142532273E+02  0.76083422459E+02  0.47000000000E+01 0.  1.
         11    1    6    6    0    0  0.16131308971E+02 -0.68541525131E+02 -0.38380774814E+02  0.80195035206E+02  0.00000000000E+00 0. -1.
        -12    1    6    6    0    0  0.14223189984E+02 -0.38158122833E+02  0.38273040891E+02  0.55885303350E+02  0.00000000000E+00 0.  1.
</event>
<event>
12    1  0.9017558E-003  0.2090797E+03  0.7818608E-02  0.1142949E+00
         21   -1    0    0  503  502  0.00000000000E+00  0.00000000000E+00  0.59717273942E+03  0.59717273942E+03  0.00000000000E+00 0.  1.
         21   -1    0    0  501  503 -0.00000000000E+00 -0.00000000000E+00 -0.11303167654E+03  0.11303167654E+03  0.00000000000E+00 0. -1.
          6    2    1    2  501    0 -0.96005259937E+02  0.59030852158E+02  0.27097215350E+02  0.20760777763E+03  0.17223553295E+03 0.  0.
         24    2    3    3    0    0 -0.38822669537E+02  0.10069942814E+03  0.30817559666E+02  0.13660038484E+03  0.77861214083E+02 0.  0.
         -6    2    1    2    0  502  0.96005259937E+02 -0.59030852158E+02  0.45704384753E+03  0.50259663833E+03  0.17610409096E+03 0.  0.
        -24    2    5    5    0    0  0.92556376595E+02 -0.10002285837E+03  0.41680524564E+03  0.44486038930E+03  0.74852509168E+02 0.  0.
          5    1    3    3  501    0 -0.57182590401E+02 -0.41668575978E+02 -0.37203443157E+01  0.71007392790E+02  0.47000000000E+01 0. -1.
        -11    1    4    4    0    0  0.15441134126E+02  0.19155935339E+02 -0.14626064907E+02  0.28623421467E+02  0.00000000000E+00 0.  1.
         12    1    4    4    0    0 -0.54263803663E+02  0.81543492796E+02  0.45443624573E+02  0.10797696338E+03  0.00000000000E+00 0. -1.
         -5    1    5    5    0  502  0.34488833417E+01  0.40992006214E+02  0.40238601885E+02  0.57736249025E+02  0.47000000000E+01 0.  1.
         13    1    6    6    0    0  0.50590033404E+02 -0.88171715173E+02  0.20752160676E+03  0.23108184721E+03  0.00000000000E+00 0. -1.
        -14    1    6    6    0    0  0.41966343191E+02 -0.11851143199E+02  0.20928363888E+03  0.21377854209E+03  0.00000000000E+00 0.  1.
</event>
<event>
12    1  0.9017558E-003  0.2013823E+03  0.7818608E-02  0.1148700E+00
         21   -1    0    0  501  502  0.00000000000E+00  0.00000000000E+00  0.16726341247E+03  0.16726341247E+03  0.00000000000E+00 0. -1.
         21   -1    0    0  502  503 -0.00000000000E+00 -0.00000000000E+00 -0.24180493721E+03  0.24180493721E+03  0.00000000000E+00 0. -1.
          6    2    1    2  501    0  0.99215447499E+02 -0.32791562660E+02 -0.34435636315E+02  0.20373124840E+03  0.17146899697E+03 0.  0.
         24    2    3    3    0    0  0.12601479535E+02 -0.62430942111E+02 -0.44643798043E+02  0.11149910202E+03  0.79890933328E+02 0.  0.
         -6    2    1    2    0  503 -0.99215447499E+02  0.32791562660E+02 -0.40105888422E+02  0.20533710127E+03  0.17215066445E+03 0.  0.
        -24    2    5    5    0    0 -0.78463177342E+02  0.86902261507E+02 -0.19419134539E+02  0.14362278987E+03  0.80882196614E+02 0.  0.
          5    1    3    3  501    0  0.86613967964E+02  0.29639379451E+02  0.10208161727E+02  0.92232146384E+02  0.47000000000E+01 0. -1.
        -11    1    4    4    0    0 -0.28872057441E+01 -0.22892797404E+02  0.22387238937E+02  0.32149721573E+02  0.00000000000E+00 0.  1.
         12    1    4    4    0    0  0.15488685279E+02 -0.39538144706E+02 -0.67031036980E+02  0.79349380446E+02  0.00000000000E+00 0. -1.
         -5    1    5    5    0  503 -0.20752270157E+02 -0.54110698847E+02 -0.20686753884E+02  0.61714311409E+02  0.47000000000E+01 0.  1.
         11    1    6    6    0    0 -0.39953418450E+02  0.41864438473E+02  0.31150392868E+02  0.65721030350E+02  0.00000000000E+00 0. -1.
        -12    1    6    6    0    0 -0.38509758892E+02  0.45037823034E+02 -0.50569527406E+02  0.77901759516E+02  0.00000000000E+00 0.  1.
</event>
<event>
12    1  0.9017558E-003  0.1964794E+03  0.7818608E-02  0.1152767E+00
         21   -1    0    0  501  502  0.00000000000E+00  0.00000000000E+00  0.34734509144E+02  0.34734509144E+02  0.00000000000E+00 0. -1.
         21   -1    0    0  502  503 -0.00000000000E+00 -0.00000000000E+00 -0.11227392293E+04  0.11227392293E+04  0.00000000000E+00 0. -1.
          6    2    1    2  501    0 -0.76737874782E+02  0.56796410408E+02 -0.48448906484E+03  0.52281335676E+03  0.17172541569E+03 0.  0.
         24    2    3    3    0    0  0.16183544828E+02 -0.10173399129E+02 -0.17234576665E+03  0.19028535159E+03  0.78358449302E+02 0.  0.
         -6    2    1    2    0  503  0.76737874782E+02 -0.56796410408E+02 -0.60351565530E+03  0.63466038167E+03  0.17160454600E+03 0.  0.
        -24    2    5    5    0    0  0.67321272514E+02 -0.57898109646E+02 -0.21563537373E+03  0.24663578326E+03  0.80288544313E+02 0.  0.
          5    1    3    3  501    0 -0.92921419611E+02  0.66969809537E+02 -0.31214329820E+03  0.33252800517E+03  0.47000000000E+01 0. -1.
        -13    1    4    4    0    0  0.28093075541E+02  0.52000072667E+01 -0.16793061938E+03  0.17034363473E+03  0.00000000000E+00 0.  1.
         14    1    4    4    0    0 -0.11909530712E+02 -0.15373406396E+02 -0.44151472688E+01  0.19941716862E+02  0.00000000000E+00 0. -1.
         -5    1    5    5    0  503  0.94166022682E+01  0.11016992387E+01 -0.38788028157E+03  0.38802459841E+03  0.47000000000E+01 0.  1.
         11    1    6    6    0    0  0.52476015908E+02  0.21709736514E+01 -0.13598599724E+03  0.14577598162E+03  0.00000000000E+00 0. -1.
        -12    1    6    6    0    0  0.14845256606E+02 -0.60069083298E+02 -0.79649376495E+02  0.10085980165E+03  0.00000000000E+00 0.  1.
</event>
<event>
12    1  0.9017558E-003  0.1752047E+03  0.7818608E-02  0.1173178E+00
         21   -1    0    0  501  502  0.00000000000E+00  0.00000000000E+00  0.21625639229E+03  0.21625639229E+03  0.00000000000E+00 0. -1.
         21   -1    0    0  502  503 -0.00000000000E+00 -0.00000000000E+00 -0.16465175734E+03  0.16465175734E+03  0.00000000000E+00 0. -1.
          6    2    1    2  501    0 -0.62477742854E+01  0.32096187135E+02  0.99534951030E+02  0.19926559304E+03  0.16950035451E+03 0.  0.
         24    2    3    3    0    0 -0.27761858951E+01  0.39167014914E+02 -0.10697887509E+02  0.88651772816E+02  0.78758680543E+02 0.  0.
         -6    2    1    2    0  503  0.62477742854E+01 -0.32096187135E+02 -0.47930316084E+02  0.18164255660E+03  0.17212641649E+03 0.  0.
        -24    2    5    5    0    0  0.20220369297E+02 -0.10244388547E+02  0.39079678953E+02  0.90727410723E+02  0.78679291546E+02 0.  0.
          5    1    3    3  501    0 -0.34715883903E+01 -0.70708277793E+01  0.11023283854E+03  0.11061382022E+03  0.47000000000E+01 0. -1.
        -11    1    4    4    0    0  0.25017140536E+01 -0.19081265916E+02  0.15359817004E+02  0.24622698076E+02  0.00000000000E+00 0.  1.
         12    1    4    4    0    0 -0.52778999487E+01  0.58248280830E+02 -0.26057704513E+02  0.64029074740E+02  0.00000000000E+00 0. -1.
         -5    1    5    5    0  503 -0.13972595011E+02 -0.21851798588E+02 -0.87009995037E+02  0.90915145873E+02  0.47000000000E+01 0.  1.
         11    1    6    6    0    0  0.15749831559E+02  0.22837662376E+02 -0.11576651401E+02  0.30060520199E+02  0.00000000000E+00 0. -1.
        -12    1    6    6    0    0  0.44705377376E+01 -0.33082050923E+02  0.50656330354E+02  0.60666890524E+02  0.00000000000E+00 0.  1.
</event>
<event>
12    1  0.9017558E-003  0.2076328E+03  0.7818608E-02  0.1143713E+00
         21   -1    0    0  501  502  0.00000000000E+00  0.00000000000E+00  0.15194653233E+03  0.15194653233E+03  0.00000000000E+00 0. -1.
         21   -1    0    0  502  503 -0.00000000000E+00 -0.00000000000E+00 -0.34774631934E+03  0.34774631934E+03  0.00000000000E+00 0.  1.
          6    2    1    2  501    0  0.11129575386E+03 -0.22823278576E+02  0.10511678580E+02  0.20789867668E+03  0.17379216756E+03 0.  0.
         24    2    3    3    0    0 -0.10818808687E+02 -0.19578226234E+02 -0.10083004701E+02  0.83928003815E+02  0.80261380979E+02 0.  0.
         -6    2    1    2    0  503 -0.11129575386E+03  0.22823278576E+02 -0.20631146559E+03  0.29179417499E+03  0.17225496466E+03 0.  0.
        -24    2    5    5    0    0 -0.63243252805E+02 -0.51000031045E+02 -0.86321390399E+02  0.14286925415E+03  0.79746656042E+02 0.  0.
          5    1    3    3  501    0  0.12211456255E+03 -0.32450523428E+01  0.20594683282E+02  0.12397067287E+03  0.47000000000E+01 0. -1.
        -11    1    4    4    0    0 -0.27984682412E+02 -0.42399637132E+02 -0.18644532365E+02  0.54115527030E+02  0.00000000000E+00 0.  1.
         12    1    4    4    0    0  0.17165873725E+02  0.22821410898E+02  0.85615276638E+01  0.29812476785E+02  0.00000000000E+00 0. -1.
         -5    1    5    5    0  503 -0.48052501060E+02  0.73823309622E+02 -0.11999007519E+03  0.14892492084E+03  0.47000000000E+01 0.  1.
         13    1    6    6    0    0  0.61903094573E+01  0.14454644423E+02 -0.24698232293E+02  0.29278991700E+02  0.00000000000E+00 0. -1.
        -14    1    6    6    0    0 -0.69433562263E+02 -0.65454675468E+02 -0.61623158106E+02  0.11359026245E+03  0.00000000000E+00 0.  1.
</event>
<event>
12    1  0.9017558E-003  0.1877424E+03  0.7818608E-02  0.1160754E+00
         21   -1    0    0  503  502  0.00000000000E+00  0.00000000000E+00  0.69190242233E+02  0.69190242233E+02  0.00000000000E+00 0. -1.
         21   -1    0    0  501  503 -0.00000000000E+00 -0.00000000000E+00 -0.55891118502E+03  0.55891118502E+03  0.00000000000E+00 0. -1.
          6    2    1    2  501    0  0.72907358125E+02 -0.38278101192E+01 -0.34156995276E+03  0.38976560307E+03  0.17296548127E+03 0.  0.
         24    2    3    3    0    0  0.93612431435E+02 -0.53205336240E+02 -0.24788173008E+03  0.28175443136E+03  0.79662490278E+02 0.  0.
         -6    2    1    2    0  502 -0.72907358125E+02  0.38278101192E+01 -0.14815099003E+03  0.23833582418E+03  0.17182873521E+03 0.  0.
        -24    2    5    5    0    0 -0.89723743443E+02 -0.36620221832E+02 -0.14620693967E+03  0.19423703241E+03  0.83427601954E+02 0.  0.
          5    1    3    3  501    0 -0.20705073310E+02  0.49377526121E+02 -0.93688222678E+02  0.10801117171E+03  0.47000000000E+01 0. -1.
        -11    1    4    4    0    0  0.32835892849E+02 -0.10203339225E+02 -0.15461587628E+02  0.37700990471E+02  0.00000000000E+00 0.  1.
         12    1    4    4    0    0  0.60776538586E+02 -0.43001997015E+02 -0.23242014246E+03  0.24405344089E+03  0.00000000000E+00 0. -1.
         -5    1    5    5    0  502  0.16816385318E+02  0.40448031951E+02 -0.19440503596E+01  0.44098791771E+02  0.47000000000E+01 0.  1.
         13    1    6    6    0    0 -0.10413982972E+03 -0.40235712744E+02 -0.11857812127E+03  0.16286432255E+03  0.00000000000E+00 0. -1.
        -14    1    6    6    0    0  0.14416086279E+02  0.36154909119E+01 -0.27628818397E+02  0.31372709863E+02  0.00000000000E+00 0.  1.
</event>
<event>
12    1  0.9017558E-003  0.1919572E+03  0.7818608E-02  0.1156935E+00
         21   -1    0    0  503  502  0.00000000000E+00  0.00000000000E+00  0.63641401356E+02  0.63641401356E+02  0.00000000000E+00 0.  1.
         21   -1    0    0  501  503 -0.00000000000E+00 -0.00000000000E+00 -0.79852521807E+03  0.79852521807E+03  0.00000000000E+00 0.  1.
          6    2    1    2  501    0 -0.71558765263E+02  0.49679626140E+02 -0.59574772627E+03  0.62590968031E+03  0.17105219209E+03 0.  0.
         24    2    3    3    0    0 -0.64239490240E+02 -0.32139262928E+02 -0.37712308253E+03  0.39231445938E+03  0.80803287880E+02 0.  0.
         -6    2    1    2    0  502  0.71558765263E+02 -0.49679626140E+02 -0.13913609044E+03  0.23625693911E+03  0.16991105754E+03 0.  0.
        -24    2    5    5    0    0  0.36225319146E+02  0.23721647296E+02 -0.12354106853E+03  0.15318170775E+03  0.79544010946E+02 0.  0.
          5    1    3    3  501    0 -0.73192750226E+01  0.81818889068E+02 -0.21862464374E+03  0.23359522094E+03  0.47000000000E+01 0. -1.
        -11    1    4    4    0    0 -0.13189643742E+02 -0.10545779434E+02 -0.27983596075E+03  0.28034504650E+03  0.00000000000E+00 0.  1.
         12    1    4    4    0    0 -0.51049846499E+02 -0.21593483494E+02 -0.97287121781E+02  0.11196941288E+03  0.00000000000E+00 0. -1.
         -5    1    5    5    0  502  0.35333446117E+02 -0.73401273436E+02 -0.15595021909E+02  0.83075231356E+02  0.47000000000E+01 0.  1.
         11    1    6    6    0    0  0.57147360036E+02  0.34425143911E+02 -0.97043222581E+02  0.11776373950E+03  0.00000000000E+00 0. -1.
        -12    1    6    6    0    0 -0.20922040891E+02 -0.10703496615E+02 -0.26497845953E+02  0.35417968250E+02  0.00000000000E+00 0.  1.
</event>
<event>
12    1  0.9017558E-003  0.2164126E+03  0.7818608E-02  0.1137220E+00
         21   -1    0    0  501  502  0.00000000000E+00  0.00000000000E+00  0.32171469514E+03  0.32171469514E+03  0.00000000000E+00 0.  1.
         21   -1    0    0  502  503 -0.00000000000E+00 -0.00000000000E+00 -0.19554313704E+03  0.19554313704E+03  0.00000000000E+00 0. -1.
          6    2    1    2  501    0  0.12435010656E+03 -0.45210729404E+02  0.19632605522E+03  0.28975827516E+03  0.16705980670E+03 0.  0.
         24    2    3    3    0    0  0.12034676869E+02  0.70863752444E+01  0.11852232827E+03  0.14338459984E+03  0.79476732517E+02 0.  0.
         -6    2    1    2    0  503 -0.12435010656E+03  0.45210729404E+02 -0.70154497112E+02  0.22749955701E+03  0.17125255012E+03 0.  0.
        -24    2    5    5    0    0 -0.60636160843E+01  0.37001562428E+02  0.72789513097E+01  0.85805826789E+02  0.76836018355E+02 0.  0.
          5    1    3    3  501    0  0.11231542969E+03 -0.52297104649E+02  0.77803726950E+02  0.14637367532E+03  0.47000000000E+01 0. -1.
        -13    1    4    4    0    0 -0.30763633208E+02  0.12156028221E+02  0.28844063957E+02  0.43887927450E+02  0.00000000000E+00 0.  1.
         14    1    4    4    0    0  0.42798310077E+02 -0.50696529765E+01  0.89678264313E+02  0.99496672391E+02  0.00000000000E+00 0. -1.
         -5    1    5    5    0  503 -0.11828649047E+03  0.82091669760E+01 -0.77433448422E+02  0.14169373022E+03  0.47000000000E+01 0.  1.
         11    1    6    6    0    0  0.28673859898E+01  0.42266123246E+02 -0.26837645794E+02  0.50148841546E+02  0.00000000000E+00 0. -1.
        -12    1    6    6    0    0 -0.89310020741E+01 -0.52645608177E+01  0.34116597104E+02  0.35656985243E+02  0.00000000000E+00 0.  1.
</event>
<event>
12    1  0.9017558E-003  0.2337710E+03  0.7818608E-02  0.1124218E+00
         21   -1    0    0  501  502  0.00000000000E+00  0.00000000000E+00  0.44321034146E+03  0.44321034146E+03  0.00000000000E+00 0. -1.
         21   -1    0    0  502  503 -0.00000000000E+00 -0.00000000000E+00 -0.12416699956E+03  0.12416699956E+03  0.00000000000E+00 0. -1.
          6    2    1    2  501    0  0.92523042853E+01 -0.15600498158E+03  0.12806834560E+03  0.26551589713E+03  0.17226151942E+03 0.  0.
         24    2    3    3    0    0  0.39456911746E+02 -0.43291022049E+02  0.10858929882E+03  0.14711708697E+03  0.80130150278E+02 0.  0.
         -6    2    1    2    0  503 -0.92523042853E+01  0.15600498158E+03  0.19097499631E+03  0.30186144390E+03  0.17385546493E+03 0.  0.
        -24    2    5    5    0    0 -0.71276788088E+02  0.12242125970E+03  0.12382559892E+03  0.20436254885E+03  0.79774225647E+02 0.  0.
          5    1    3    3  501    0 -0.30204607461E+02 -0.11271395953E+03  0.19479046770E+02  0.11839881016E+03  0.47000000000E+01 0. -1.
        -11    1    4    4    0    0  0.27857491757E+02 -0.67106374375E+02  0.76493123651E+02  0.10550120044E+03  0.00000000000E+00 0.  1.
         12    1    4    4    0    0  0.11599419989E+02  0.23815352325E+02  0.32096175173E+02  0.41615886524E+02  0.00000000000E+00 0. -1.
         -5    1    5    5    0  503  0.62024483803E+02  0.33583721884E+02  0.67149397386E+02  0.97498895050E+02  0.47000000000E+01 0.  1.
         11    1    6    6    0    0 -0.21532212598E+02  0.57222924133E+02  0.10295434927E+03  0.11974012385E+03  0.00000000000E+00 0. -1.
        -12    1    6    6    0    0 -0.49744575490E+02  0.65198335563E+02  0.20871249653E+02  0.84622425000E+02  0.00000000000E+00 0.  1.
</event>
<event>
12    1  0.9017558E-003  0.2194294E+03  0.7818608E-02  0.1134335E+00
         21   -1    0    0  503  502  0.00000000000E+00  0.00000000000E+00  0.11803023451E+04  0.11803023451E+04  0.00000000000E+00 0.  1.
         21   -1    0    0  501  503 -0.00000000000E+00 -0.00000000000E+00 -0.44148520752E+02  0.44148520752E+02  0.00000000000E+00 0. -1.
          6    2    1    2  501    0 -0.90807568674E+02  0.10176698327E+03  0.39849739843E+03  0.45484949003E+03  0.17171298324E+03 0.  0.
         24    2    3    3    0    0 -0.48796672661E+02 -0.12448685471E+02  0.21216712742E+03  0.23224851459E+03  0.79927451739E+02 0.  0.
         -6    2    1    2    0  502  0.90807568674E+02 -0.10176698327E+03  0.73765642588E+03  0.76960137579E+03  0.17189165645E+03 0.  0.
        -24    2    5    5    0    0  0.70814278326E+01 -0.11917613133E+02  0.44055359216E+03  0.44808129900E+03  0.80605253080E+02 0.  0.
          5    1    3    3  501    0 -0.42010896013E+02  0.11421566874E+03  0.18633027102E+03  0.22260097544E+03  0.47000000000E+01 0. -1.
        -11    1    4    4    0    0 -0.14204284191E+02 -0.38096955469E+02  0.49915362997E+02  0.64379213792E+02  0.00000000000E+00 0.  1.
         12    1    4    4    0    0 -0.34592388470E+02  0.25648269998E+02  0.16225176442E+03  0.16786930080E+03  0.00000000000E+00 0. -1.
         -5    1    5    5    0  502  0.83726140841E+02 -0.89849370133E+02  0.29710283373E+03  0.32152007679E+03  0.47000000000E+01 0.  1.
         11    1    6    6    0    0  0.23099992153E+02 -0.26013187185E+02  0.84396474844E+02  0.91285598597E+02  0.00000000000E+00 0. -1.
        -12    1    6    6    0    0 -0.16018564320E+02  0.14095574052E+02  0.35615711731E+03  0.35679570040E+03  0.00000000000E+00 0.  1.
</event>
<event>
12    1  0.9017558E-003  0.2478186E+03  0.7818608E-02  0.1115194E+00
         21   -1    0    0  501  502  0.00000000000E+00  0.00000000000E+00  0.20258563556E+03  0.20258563556E+03  0.00000000000E+00 0.  1.
         21   -1    0    0  502  503 -0.00000000000E+00 -0.00000000000E+00 -0.30116889785E+03  0.30116889785E+03  0.00000000000E+00 0.  1.
          6    2    1    2  501    0 -0.13870721682E+03 -0.10526318011E+03 -0.29980282044E+02  0.24962551765E+03  0.17633505795E+03 0.  0.
         24    2    3    3    0    0 -0.13209588159E+03 -0.14186948009E+03 -0.31475783364E+02  0.21210142569E+03  0.80125018119E+02 0.  0.
         -6    2    1    2    0  503  0.13870721682E+03  0.10526318011E+03 -0.68602980243E+02  0.25412901576E+03  0.17191613848E+03 0.  0.
        -24    2    5    5    0    0  0.15369939088E+02  0.40106257797E+02 -0.70589026040E+02  0.11454555334E+03  0.79329226963E+02 0.  0.
          5    1    3    3  501    0 -0.66113352356E+01  0.36606299989E+02  0.14955013201E+01  0.37524091950E+02  0.47000000000E+01 0. -1.
        -11    1    4    4    0    0 -0.11613052270E+03 -0.99382844366E+02  0.64030735759E+01  0.15298446787E+03  0.00000000000E+00 0.  1.
         12    1    4    4    0    0 -0.15965358888E+02 -0.42486635729E+02 -0.37878856940E+02  0.59116957830E+02  0.00000000000E+00 0. -1.
         -5    1    5    5    0  503  0.12333727774E+03  0.65156922308E+02  0.19860457968E+01  0.13958346242E+03  0.47000000000E+01 0.  1.
         11    1    6    6    0    0  0.21268415257E+02  0.99191848760E+01  0.12041015756E+02  0.26376538374E+02  0.00000000000E+00 0. -1.
        -12    1    6    6    0    0 -0.58984761693E+01  0.30187072921E+02 -0.82630041796E+02  0.88169014965E+02  0.00000000000E+00 0.  1.
</event>
<event>
12    1  0.9017558E-003  0.1895594E+03  0.7818608E-02  0.1158999E+00
         21   -1    0    0  503  502  0.00000000000E+00  0.00000000000E+00  0.94169091863E+02  0.94169091863E+02  0.00000000000E+00 0.  1.
         21   -1    0    0  501  503 -0.00000000000E+00 -0.00000000000E+00 -0.39240570200E+03  0.39240570200E+03  0.00000000000E+00 0.  1.
          6    2    1    2  501    0  0.39262437758E+02  0.69072990686E+02 -0.10621759626E+03  0.21675248116E+03  0.17142591190E+03 0.  0.
         24    2    3    3    0    0  0.34138380285E+02  0.51618908114E+02 -0.14291919002E+03  0.17552144979E+03  0.80944078082E+02 0.  0.
         -6    2    1    2    0  502 -0.39262437758E+02 -0.69072990686E+02 -0.19201901387E+03  0.26982231270E+03  0.17210508907E+03 0.  0.
        -24    2    5    5    0    0  0.42632430069E+02 -0.33463487824E+02 -0.12185694127E+03  0.15615783935E+03  0.81233167757E+02 0.  0.
          5    1    3    3  501    0  0.51240574731E+01  0.17454082572E+02  0.36701593758E+02  0.41231031369E+02  0.47000000000E+01 0. -1.
        -11    1    4    4    0    0  0.53562162927E+02  0.53655831301E+02 -0.82597590359E+02  0.11211697223E+03  0.00000000000E+00 0.  1.
         12    1    4    4    0    0 -0.19423782642E+02 -0.20369231874E+01 -0.60321599659E+02  0.63404477552E+02  0.00000000000E+00 0. -1.
         -5    1    5    5    0  502 -0.81894867827E+02 -0.35609502862E+02 -0.70162072601E+02  0.11366447335E+03  0.47000000000E+01 0.  1.
         13    1    6    6    0    0 -0.19343047868E+02  0.43987991981E+01 -0.50873185717E+02  0.54603882282E+02  0.00000000000E+00 0. -1.
        -14    1    6    6    0    0  0.61975477936E+02 -0.37862287022E+02 -0.70983755555E+02  0.10155395707E+03  0.00000000000E+00 0.  1.
</event>
<event>
12    1  0.9017558E-003  0.1963129E+03  0.7818608E-02  0.1153888E+00
         21   -1    0    0  503  502  0.00000000000E+00  0.00000000000E+00  0.81978226489E+02  0.81978226489E+02  0.00000000000E+00 0. -1.
         21   -1    0    0  501  503 -0.00000000000E+00 -0.00000000000E+00 -0.66670511714E+03  0.66670511714E+03  0.00000000000E+00 0. -1.
          6    2    1    2  501    0  0.50818485927E+02  0.68342281666E+02 -0.50355511457E+03  0.54046880317E+03  0.17687732421E+03 0.  0.
         24    2    3    3    0    0  0.26887342717E+02  0.68869913773E+02 -0.50470955954E+03  0.51604748556E+03  0.78149047599E+02 0.  0.
         -6    2    1    2    0  502 -0.50818485927E+02 -0.68342281666E+02 -0.81171776081E+02  0.20821454045E+03  0.17178839207E+03 0.  0.
        -24    2    5    5    0    0 -0.74575242576E+02 -0.54203018524E+02 -0.11237793458E+03  0.16625960538E+03  0.80709492505E+02 0.  0.
          5    1    3    3  501    0  0.23931143210E+02 -0.52763210643E+00  0.11544449671E+01  0.24421317617E+02  0.47000000000E+01 0. -1.
        -13    1    4    4    0    0  0.38166822435E+02  0.58142769698E+02 -0.21605824306E+03  0.22697676620E+03  0.00000000000E+00 0.  1.
         14    1    4    4    0    0 -0.11279479718E+02  0.10727144075E+02 -0.28865131648E+03  0.28907071935E+03  0.00000000000E+00 0. -1.
         -5    1    5    5    0  502  0.23756756649E+02 -0.14139263142E+02  0.31206158495E+02  0.41954935070E+02  0.47000000000E+01 0.  1.
         11    1    6    6    0    0 -0.45051230063E+02 -0.57630962763E+01 -0.97581362038E+02  0.10763340014E+03  0.00000000000E+00 0. -1.
        -12    1    6    6    0    0 -0.29524012513E+02 -0.48439922248E+02 -0.14796572538E+02  0.58626205242E+02  0.00000000000E+00 0.  1.
</event>
<event>
12    1  0.9017558E-003  0.1809710E+03  0.7818608E-02  0.1166936E+00
         21   -1    0    0  501  502  0.00000000000E+00  0.00000000000E+00  0.58566228403E+03  0.58566228403E+03  0.00000000000E+00 0.  1.
         21   -1    0    0  502  503 -0.00000000000E+00 -0.00000000000E+00 -0.60039842034E+02  0.60039842034E+02  0.00000000000E+00 0.  1.
          6    2    1    2  501    0 -0.54534337196E+02 -0.99017767046E+01  0.34809665658E+03  0.39219492593E+03  0.17196958593E+03 0.  0.
         24    2    3    3    0    0 -0.94404324890E+02 -0.39052932979E+02  0.22689483673E+03  0.26123166022E+03  0.79519841751E+02 0.  0.
         -6    2    1    2    0  503  0.54534337196E+02  0.99017767046E+01  0.17752578542E+03  0.25350720014E+03  0.17227436524E+03 0.  0.
        -24    2    5    5    0    0 -0.21651854889E+02 -0.28926722867E+02  0.11948030160E+03  0.15005017314E+03  0.83270366124E+02 0.  0.
          5    1    3    3  501    0  0.39869987694E+02  0.29151156275E+02  0.12120181984E+03  0.13096326571E+03  0.47000000000E+01 0. -1.
        -13    1    4    4    0    0  0.85817249586E+01 -0.22405633386E+02  0.30071516743E+02  0.38470177150E+02  0.00000000000E+00 0.  1.
         14    1    4    4    0    0 -0.10298604985E+03 -0.16647299594E+02  0.19682331999E+03  0.22276148307E+03  0.00000000000E+00 0. -1.
         -5    1    5    5    0  503  0.76186192084E+02  0.38828499571E+02  0.58045483825E+02  0.10345702700E+03  0.47000000000E+01 0.  1.
         13    1    6    6    0    0  0.24512984531E+01 -0.25913969175E+02 -0.20555288471E+01  0.26110684812E+02  0.00000000000E+00 0. -1.
        -14    1    6    6    0    0 -0.24103153342E+02 -0.30127536914E+01  0.12153583044E+03  0.12393948833E+03  0.00000000000E+00 0.  1.
</event>
<event>
12    1  0.9017558E-003  0.2873904E+03  0.7818608E-02  0.1091822E+00
         21   -1    0    0  503  502  0.00000000000E+00  0.00000000000E+00  0.18114231325E+03  0.18114231325E+03  0.00000000000E+00 0. -1.
         21   -1    0    0  501  503 -0.00000000000E+00 -0.00000000000E+00 -0.54641804338E+03  0.54641804338E+03  0.00000000000E+00 0.  1.
          6    2    1    2  501    0  0.16950043727E+03  0.15566827627E+03 -0.33144954635E+03  0.43818611245E+03  0.17083693072E+03 0.  0.
         24    2    3    3    0    0  0.12369298872E+03  0.10727136382E+03 -0.12227720383E+03  0.21860527916E+03  0.77649549533E+02 0.  0.
         -6    2    1    2    0  502 -0.16950043727E+03 -0.15566827627E+03 -0.33826183789E+02  0.28937424418E+03  0.17213434292E+03 0.  0.
        -24    2    5    5    0    0 -0.95664167360E+02 -0.37783033308E+02 -0.63720941830E+02  0.14702076926E+03  0.83519803904E+02 0.  0.
          5    1    3    3  501    0  0.45807448548E+02  0.48396912448E+02 -0.20917234251E+03  0.21958083329E+03  0.47000000000E+01 0. -1.
        -11    1    4    4    0    0  0.73472389158E+02  0.48728786800E+02 -0.10924158078E+03  0.14037951989E+03  0.00000000000E+00 0.  1.
         12    1    4    4    0    0  0.50220599566E+02  0.58542577024E+02 -0.13035623049E+02  0.78225759272E+02  0.00000000000E+00 0. -1.
         -5    1    5    5    0  502 -0.73836269912E+02 -0.11788524296E+03  0.29894758041E+02  0.14235347492E+03  0.47000000000E+01 0.  1.
         13    1    6    6    0    0 -0.96374012287E+02 -0.53672271690E+02 -0.69174541011E+02  0.13020668231E+03  0.00000000000E+00 0. -1.
        -14    1    6    6    0    0  0.70984492705E+00  0.15889238382E+02  0.54535991813E+01  0.16814086958E+02  0.00000000000E+00 0.  1.
</event>
<event>
12    1  0.9017558E-003  0.2321443E+03  0.7818608E-02  0.1125288E+00
         21   -1    0    0  503  502  0.00000000000E+00  0.00000000000E+00  0.11479636145E+03  0.11479636145E+03  0.00000000000E+00 0.  1.
         21   -1    0    0  501  503 -0.00000000000E+00 -0.00000000000E+00 -0.47252447426E+03  0.47252447426E+03  0.00000000000E+00 0.  1.
          6    2    1    2  501    0  0.11661942827E+03  0.10128882160E+03 -0.14895043912E+03  0.27510440742E+03  0.17215308663E+03 0.  0.
         24    2    3    3    0    0  0.91866042268E+02 -0.59276447491E+00 -0.10792017421E+03  0.16241829320E+03  0.79329798134E+02 0.  0.
         -6    2    1    2    0  502 -0.11661942827E+03 -0.10128882160E+03 -0.20877767369E+03  0.31221642830E+03  0.17329588753E+03 0.  0.
        -24    2    5    5    0    0 -0.27591217042E+02  0.14524618783E+02 -0.67608080097E+02  0.10901770900E+03  0.79635221932E+02 0.  0.
          5    1    3    3  501    0  0.24753386004E+02  0.10188158608E+03 -0.41030264902E+02  0.11268611422E+03  0.47000000000E+01 0. -1.
        -11    1    4    4    0    0  0.73771303075E+02  0.34834171565E+02 -0.71271772842E+02  0.10832954477E+03  0.00000000000E+00 0.  1.
         12    1    4    4    0    0  0.18094739193E+02 -0.35426936040E+02 -0.36648401372E+02  0.54088748430E+02  0.00000000000E+00 0. -1.
         -5    1    5    5    0  502 -0.89028211230E+02 -0.11581344039E+03 -0.14116959359E+03  0.20319871930E+03  0.47000000000E+01 0.  1.
         11    1    6    6    0    0 -0.13814116460E+02  0.10393805311E+02 -0.84833454706E+02  0.86576994865E+02  0.00000000000E+00 0. -1.
        -12    1    6    6    0    0 -0.13777100582E+02  0.41308134723E+01  0.17225374609E+02  0.22440714133E+02  0.00000000000E+00 0.  1.
</event>
<event>
12    1  0.9017558E-003  0.2139817E+03  0.7818608E-02  0.1138961E+00
         21   -1    0    0  503  502  0.00000000000E+00  0.00000000000E+00  0.37170195326E+02  0.37170195326E+02  0.00000000000E+00 0. -1.
         21   -1    0    0  501  503 -0.00000000000E+00 -0.00000000000E+00 -0.16168094657E+04  0.16168094657E+04  0.00000000000E+00 0. -1.
          6    2    1    2  501    0 -0.10582958164E+03  0.63254981278E+02 -0.11974905127E+04  0.12160003902E+04  0.17167506458E+03 0.  0.
         24    2    3    3    0    0  0.24520666548E+02  0.55029486327E+00 -0.43928566937E+03  0.44410678390E+03  0.60476195970E+02 0.  0.
         -6    2    1    2    0  502  0.10582958164E+03 -0.63254981278E+02 -0.38214875758E+03  0.43797927079E+03  0.17489161135E+03 0.  0.
        -24    2    5    5    0    0  0.52631087430E+02  0.24293768927E+02 -0.11599907404E+03  0.15275548585E+03  0.80735585139E+02 0.  0.
          5    1    3    3  501    0 -0.13035024819E+03  0.62704686414E+02 -0.75820484338E+03  0.77189360629E+03  0.47000000000E+01 0. -1.
        -13    1    4    4    0    0  0.68893140491E+01  0.20588572422E+02 -0.35572426844E+03  0.35638617695E+03  0.00000000000E+00 0.  1.
         14    1    4    4    0    0  0.17631352499E+02 -0.20038277559E+02 -0.83561400926E+02  0.87720606947E+02  0.00000000000E+00 0. -1.
         -5    1    5    5    0  502  0.53198494207E+02 -0.87548750205E+02 -0.26614968354E+03  0.28522378494E+03  0.47000000000E+01 0.  1.
         13    1    6    6    0    0  0.17735659559E+02  0.50197765293E+02 -0.45980621383E+02  0.70346192528E+02  0.00000000000E+00 0. -1.
        -14    1    6    6    0    0  0.34895427872E+02 -0.25903996367E+02 -0.70018452654E+02  0.82409293324E+02  0.00000000000E+00 0.  1.
</event>
<event>
12    1  0.9017558E-003  0.1974344E+03  0.7818608E-02  0.1152147E+00
         21   -1    0    0  501  502  0.00000000000E+00  0.00000000000E+00  0.34557057833E+03  0.34557057833E+03  0.00000000000E+00 0. -1.
         21   -1    0    0  502  503 -0.00000000000E+00 -0.00000000000E+00 -0.17698354205E+03  0.17698354205E+03  0.00000000000E+00 0. -1.
          6    2    1    2  501    0  0.26542783228E+02  0.91137709979E+02 -0.73637082011E+02  0.21071958802E+03  0.17311765770E+03 0.  0.
         24    2    3    3    0    0  0.40538665022E+02 -0.10193557421E+02 -0.11919665736E+02  0.91157721477E+02  0.80127147577E+02 0.  0.
         -6    2    1    2    0  503 -0.26542783228E+02 -0.91137709979E+02  0.24222411829E+03  0.31183453236E+03  0.17192338576E+03 0.  0.
        -24    2    5    5    0    0 -0.35310530200E+02  0.99364418675E+01  0.69481479256E+02  0.11144748962E+03  0.79039866923E+02 0.  0.
          5    1    3    3  501    0 -0.13995881794E+02  0.10133126740E+03 -0.61717416275E+02  0.11956186655E+03  0.47000000000E+01 0. -1.
        -11    1    4    4    0    0  0.45717012840E+01  0.12631829382E+01 -0.42385168469E+02  0.42649719694E+02  0.00000000000E+00 0.  1.
         12    1    4    4    0    0  0.35966963738E+02 -0.11456740360E+02  0.30465502734E+02  0.48508001783E+02  0.00000000000E+00 0. -1.
         -5    1    5    5    0  503  0.87677469719E+01 -0.10107415185E+03  0.17274263903E+03  0.20038704274E+03  0.47000000000E+01 0.  1.
         11    1    6    6    0    0 -0.32867030426E+02 -0.31189589641E+02  0.43039430826E+02  0.62493398025E+02  0.00000000000E+00 0. -1.
        -12    1    6    6    0    0 -0.24434997741E+01  0.41126031508E+02  0.26442048430E+02  0.48954091596E+02  0.00000000000E+00 0.  1.
</event>
<event>
12    1  0.9017558E-003  0.2363734E+03  0.7818608E-02  0.1122701E+00
         21   -1    0    0  503  502  0.00000000000E+00  0.00000000000E+00  0.16292977449E+03  0.16292977449E+03  0.00000000000E+00 0. -1.
         21   -1    0    0  501  503 -0.00000000000E+00 -0.00000000000E+00 -0.36167274798E+03  0.36167274798E+03  0.00000000000E+00 0. -1.
          6    2    1    2  501    0 -0.80874019704E+02 -0.14027954221E+03 -0.16565061660E+03  0.28863904172E+03  0.17220166259E+03 0.  0.
         24    2    3    3    0    0 -0.10396589799E+03 -0.52713213446E+02 -0.11986804787E+03  0.18705542899E+03  0.83867716057E+02 0.  0.
         -6    2    1    2    0  502  0.80874019704E+02  0.14027954221E+03 -0.33092356891E+02  0.23596348076E+03  0.16841823875E+03 0.  0.
        -24    2    5    5    0    0  0.48804105102E+02  0.14743362722E+03 -0.73894500986E+02  0.18336533138E+03  0.63591920610E+02 0.  0.
          5    1    3    3  501    0  0.23091878288E+02 -0.87566328760E+02 -0.45782568727E+02  0.10158361273E+03  0.47000000000E+01 0. -1.
        -13    1    4    4    0    0 -0.11604210978E+03 -0.41413028958E+02 -0.88854616676E+02  0.15190771249E+03  0.00000000000E+00 0.  1.
         14    1    4    4    0    0  0.12076211786E+02 -0.11300184488E+02 -0.31013431195E+02  0.35147716499E+02  0.00000000000E+00 0. -1.
         -5    1    5    5    0  502  0.32069914602E+02 -0.71540850175E+01  0.40802144095E+02  0.52598149376E+02  0.47000000000E+01 0.  1.
         13    1    6    6    0    0  0.32487541658E+02  0.58665282248E+02 -0.54365081639E+00  0.67062293880E+02  0.00000000000E+00 0. -1.
        -14    1    6    6    0    0  0.16316563444E+02  0.88768344975E+02 -0.73350850169E+02  0.11630303750E+03  0.00000000000E+00 0.  1.
</event>
<event>
12    1  0.9017558E-003  0.2354693E+03  0.7818608E-02  0.1123043E+00
         21   -1    0    0  501  502  0.00000000000E+00  0.00000000000E+00  0.55829165015E+03  0.55829165015E+03  0.00000000000E+00 0.  1.
         21   -1    0    0  502  503 -0.00000000000E+00 -0.00000000000E+00 -0.10500134742E+03  0.10500134742E+03  0.00000000000E+00 0. -1.
          6    2    1    2  501    0  0.12583403221E+03  0.99974960331E+02  0.30753463811E+03  0.38732847353E+03  0.17209473092E+03 0.  0.
         24    2    3    3    0    0  0.67126856489E+02 -0.12007670771E+02  0.16486493553E+03  0.19663663787E+03  0.82676002367E+02 0.  0.
         -6    2    1    2    0  503 -0.12583403221E+03 -0.99974960331E+02  0.14575566462E+03  0.27596452405E+03  0.17053594462E+03 0.  0.
        -24    2    5    5    0    0 -0.66472379492E+01 -0.45390502365E+02  0.10400243076E+03  0.13830415387E+03  0.78784832915E+02 0.  0.
          5    1    3    3  501    0  0.58707175724E+02  0.11198263110E+03  0.14266970258E+03  0.19069183565E+03  0.47000000000E+01 0. -1.
        -13    1    4    4    0    0  0.59706089726E+02  0.26793679309E+02  0.12130020674E+03  0.13782764076E+03  0.00000000000E+00 0.  1.
         14    1    4    4    0    0  0.74207667628E+01 -0.38801350079E+02  0.43564728787E+02  0.58808997114E+02  0.00000000000E+00 0. -1.
         -5    1    5    5    0  503 -0.11918679426E+03 -0.54584457966E+02  0.41753233863E+02  0.13766037017E+03  0.47000000000E+01 0.  1.
         13    1    6    6    0    0 -0.39395347455E+02 -0.81013339246E+01  0.35049959925E+02  0.53349083434E+02  0.00000000000E+00 0. -1.
        -14    1    6    6    0    0  0.32748109506E+02 -0.37289168441E+02  0.68952470833E+02  0.84955070439E+02  0.00000000000E+00 0.  1.
</event>
<event>
12    1  0.9017558E-003  0.1879418E+03  0.7818608E-02  0.1160346E+00
         21   -1    0    0  503  502  0.00000000000E+00  0.00000000000E+00  0.84382797455E+03  0.84382797455E+03  0.00000000000E+00 0.  1.
         21   -1    0    0  501  503 -0.00000000000E+00 -0.00000000000E+00 -0.54870593536E+02  0.54870593536E+02  0.00000000000E+00 0.  1.
          6    2    1    2  501    0 -0.61091091819E+02 -0.46184699304E+02  0.17559713095E+03  0.25720902019E+03  0.17163035780E+03 0.  0.
         24    2    3    3    0    0 -0.61336565557E+02 -0.41480353217E+02  0.33410405019E+02  0.11486666472E+03  0.81211461770E+02 0.  0.
         -6    2    1    2    0  502  0.61091091819E+02  0.46184699304E+02  0.61336025007E+03  0.64148954790E+03  0.17156018114E+03 0.  0.
        -24    2    5    5    0    0  0.82684812297E+01 -0.29381274023E+02  0.19231520447E+03  0.21044260737E+03  0.79808057758E+02 0.  0.
          5    1    3    3  501    0  0.24547373891E+00 -0.47043460874E+01  0.14218672593E+03  0.14234235547E+03  0.47000000000E+01 0. -1.
        -11    1    4    4    0    0 -0.17000618275E+02 -0.58903715654E+02  0.26264532685E+02  0.66697034542E+02  0.00000000000E+00 0.  1.
         12    1    4    4    0    0 -0.44335947282E+02  0.17423362437E+02  0.71458723338E+01  0.48169630177E+02  0.00000000000E+00 0. -1.
         -5    1    5    5    0  502  0.52822610589E+02  0.75565973327E+02  0.42104504560E+03  0.43104694052E+03  0.47000000000E+01 0.  1.
         13    1    6    6    0    0  0.61923124509E+01  0.84013851797E+01 -0.34974794162E+01  0.11007287072E+02  0.00000000000E+00 0. -1.
        -14    1    6    6    0    0  0.20761687787E+01 -0.37782659202E+02  0.19581268389E+03  0.19943532030E+03  0.00000000000E+00 0.  1.
</event>
<event>
12    1  0.9017558E-003  0.2411993E+03  0.7818608E-02  0.1119238E+00
         21   -1    0    0  501  502  0.00000000000E+00  0.00000000000E+00  0.11211255899E+03  0.11211255899E+03  0.00000000000E+00 0. -1.
         21   -1    0    0  502  503 -0.00000000000E+00 -0.00000000000E+00 -0.51594146647E+03  0.51594146647E+03  0.00000000000E+00 0. -1.
          6    2    1    2  501    0 -0.10513232429E+03  0.12909673239E+03 -0.20793401562E+03  0.31845514040E+03  0.17452320668E+03 0.  0.
         24    2    3    3    0    0 -0.29238090139E+02  0.13772443752E+03 -0.16233348439E+03  0.22937163731E+03  0.80226561969E+02 0.  0.
         -6    2    1    2    0  503  0.10513232429E+03 -0.12909673239E+03 -0.19589489186E+03  0.30959888507E+03  0.17250475082E+03 0.  0.
        -24    2    5    5    0    0  0.10752007700E+03 -0.16073561190E+03 -0.17213054395E+03  0.26967953773E+03  0.75509105534E+02 0.  0.
          5    1    3    3  501    0 -0.75894234150E+02 -0.86277051323E+01 -0.45600531235E+02  0.89083503085E+02  0.47000000000E+01 0. -1.
        -13    1    4    4    0    0 -0.13650491953E+02  0.41091380415E+02 -0.11035229262E+03  0.11854309749E+03  0.00000000000E+00 0.  1.
         14    1    4    4    0    0 -0.15587598186E+02  0.96633057103E+02 -0.51981191765E+02  0.11082853982E+03  0.00000000000E+00 0. -1.
         -5    1    5    5    0  503 -0.23877527116E+01  0.31638879518E+02 -0.23764347907E+02  0.39919347334E+02  0.47000000000E+01 0.  1.
         13    1    6    6    0    0  0.48528827956E+02 -0.15703296902E+02 -0.40539253539E+02  0.65154215166E+02  0.00000000000E+00 0. -1.
        -14    1    6    6    0    0  0.58991249044E+02 -0.14503231500E+03 -0.13159129041E+03  0.20452532257E+03  0.00000000000E+00 0.  1.
</event>
<event>
12    1  0.9017558E-003  0.3538321E+03  0.7818608E-02  0.1061165E+00
         21   -1    0    0  503  502  0.00000000000E+00  0.00000000000E+00  0.15157332520E+03  0.15157332520E+03  0.00000000000E+00 0. -1.
         21   -1    0    0  501  503 -0.00000000000E+00 -0.00000000000E+00 -0.12906543087E+04  0.12906543087E+04  0.00000000000E+00 0. -1.
          6    2    1    2  501    0  0.22843188086E+03 -0.20766862155E+03 -0.10039835793E+04  0.10645093569E+04  0.17288656063E+03 0.  0.
         24    2    3    3    0    0  0.70668431487E+02 -0.11690515943E+03 -0.31982443885E+03  0.35653821943E+03  0.78555628209E+02 0.  0.
         -6    2    1    2    0  502 -0.22843188086E+03  0.20766862155E+03 -0.13509740420E+03  0.37771827701E+03  0.17062358453E+03 0.  0.
        -24    2    5    5    0    0 -0.22011003531E+03  0.11771076718E+03 -0.10442135548E+03  0.28219456979E+03  0.80160485200E+02 0.  0.
          5    1    3    3  501    0  0.15776344938E+03 -0.90763462121E+02 -0.68415914050E+03  0.70797113750E+03  0.47000000000E+01 0. -1.
        -11    1    4    4    0    0  0.80966237260E+02 -0.62832733671E+02 -0.20374137708E+03  0.22806585175E+03  0.00000000000E+00 0.  1.
         12    1    4    4    0    0 -0.10297805773E+02 -0.54072425755E+02 -0.11608306176E+03  0.12847236768E+03  0.00000000000E+00 0. -1.
         -5    1    5    5    0  502 -0.83218455588E+01  0.89957854367E+02 -0.30676048716E+02  0.95523707218E+02  0.47000000000E+01 0.  1.
         11    1    6    6    0    0 -0.66375944846E+01  0.29036381508E+02 -0.35827272187E+01  0.30000084099E+02  0.00000000000E+00 0. -1.
        -12    1    6    6    0    0 -0.21347244082E+03  0.88674385672E+02 -0.10083862826E+03  0.25219448569E+03  0.00000000000E+00 0.  1.
</event>
<event>
12    1  0.9017558E-003  0.1937468E+03  0.7818608E-02  0.1155336E+00
         21   -1    0    0  501  502  0.00000000000E+00  0.00000000000E+00  0.10788851125E+03  0.10788851125E+03  0.00000000000E+00 0. -1.
         21   -1    0    0  502  503 -0.00000000000E+00 -0.00000000000E+00 -0.40847928246E+03  0.40847928246E+03  0.00000000000E+00 0. -1.
          6    2    1    2  501    0 -0.35869610106E+02 -0.78803796658E+02 -0.49809207288E+02  0.20004694464E+03  0.17332384612E+03 0.  0.
         24    2    3    3    0    0 -0.73860124034E+02 -0.37042055060E+02  0.11762776972E+02  0.11637782576E+03  0.81104892826E+02 0.  0.
         -6    2    1    2    0  503  0.35869610106E+02  0.78803796658E+02 -0.25078156392E+03  0.31632084907E+03  0.17225219725E+03 0.  0.
        -24    2    5    5    0    0 -0.32385921812E+02  0.61780185680E+02 -0.21089103625E+03  0.23531489147E+03  0.77668717668E+02 0.  0.
          5    1    3    3  501    0  0.37990513928E+02 -0.41761741597E+02 -0.61571984260E+02  0.83669118888E+02  0.47000000000E+01 0. -1.
        -13    1    4    4    0    0 -0.13922287444E+02 -0.26334382412E+02 -0.30209711301E+02  0.42425893527E+02  0.00000000000E+00 0.  1.
         14    1    4    4    0    0 -0.59937836590E+02 -0.10707672649E+02  0.41972488273E+02  0.73951932230E+02  0.00000000000E+00 0. -1.
         -5    1    5    5    0  503  0.68255531918E+02  0.17023610977E+02 -0.39890527670E+02  0.81005957595E+02  0.47000000000E+01 0.  1.
         13    1    6    6    0    0  0.20221867396E+02  0.21364753808E+01 -0.76486889232E+02  0.79143746894E+02  0.00000000000E+00 0. -1.
        -14    1    6    6    0    0 -0.52607789208E+02  0.59643710299E+02 -0.13440414702E+03  0.15617114458E+03  0.00000000000E+00 0.  1.
</event>
<event>
12    1  0.9017558E-003  0.1963286E+03  0.7818608E-02  0.1152888E+00
         21   -1    0    0  503  502  0.00000000000E+00  0.00000000000E+00  0.88945681143E+03  0.88945681143E+03  0.00000000000E+00 0.  1.
         21   -1    0    0  501  503 -0.00000000000E+00 -0.00000000000E+00 -0.46921364687E+02  0.46921364687E+02  0.00000000000E+00 0.  1.
          6    2    1    2  501    0  0.19206054918E+02 -0.92522579505E+02  0.29152273649E+03  0.35143379024E+03  0.17202006503E+03 0.  0.
         24    2    3    3    0    0  0.56831603758E+02 -0.25081098351E+02  0.23488023077E+03  0.25554584126E+03  0.79221597431E+02 0.  0.
         -6    2    1    2    0  502 -0.19206054918E+02  0.92522579505E+02  0.55101271025E+03  0.58494438587E+03  0.17209191567E+03 0.  0.
        -24    2    5    5    0    0 -0.19199642983E+02  0.11691632075E+02  0.43780102110E+03  0.44575883108E+03  0.80782924261E+02 0.  0.
          5    1    3    3  501    0 -0.37625548840E+02 -0.67441481153E+02  0.56642505714E+02  0.95887948978E+02  0.47000000000E+01 0. -1.
        -13    1    4    4    0    0 -0.18965900808E+02 -0.95688627402E+01  0.31953886836E+02  0.38370814579E+02  0.00000000000E+00 0.  1.
         14    1    4    4    0    0  0.75797504565E+02 -0.15512235611E+02  0.20292634394E+03  0.21717502668E+03  0.00000000000E+00 0. -1.
         -5    1    5    5    0  502 -0.64119345197E-02  0.80830947430E+02  0.11321168915E+03  0.13918555480E+03  0.47000000000E+01 0.  1.
         13    1    6    6    0    0  0.11623800200E+02 -0.28373047490E+02  0.11470545606E+03  0.11873282699E+03  0.00000000000E+00 0. -1.
        -14    1    6    6    0    0 -0.30823443183E+02  0.40064679565E+02  0.32309556505E+03  0.32702600409E+03  0.00000000000E+00 0.  1.
</event>
<event>
12    1  0.9017558E-003  0.2064691E+03  0.7818608E-02  0.1144586E+00
         21   -1    0    0  501  502  0.00000000000E+00  0.00000000000E+00  0.28998886875E+03  0.28998886875E+03  0.00000000000E+00 0. -1.
         21   -1    0    0  502  503 -0.00000000000E+00 -0.00000000000E+00 -0.17079888676E+03  0.17079888676E+03  0.00000000000E+00 0. -1.
          6    2    1    2  501    0  0.59738828769E+02  0.98575450220E+02  0.14692293945E+03  0.25340842899E+03  0.17129983858E+03 0.  0.
         24    2    3    3    0    0 -0.55466437384E+01  0.26524720627E+02  0.81582508262E+01  0.83905540036E+02  0.78988964616E+02 0.  0.
         -6    2    1    2    0  503 -0.59738828769E+02 -0.98575450220E+02 -0.27732957457E+02  0.20737932652E+03  0.17015058357E+03 0.  0.
        -24    2    5    5    0    0 -0.64280567544E+02  0.25301207286E+01  0.34106238125E+01  0.10138415435E+03  0.78286151551E+02 0.  0.
          5    1    3    3  501    0  0.65285472508E+02  0.72050729593E+02  0.13876468863E+03  0.16950288896E+03  0.47000000000E+01 0. -1.
        -11    1    4    4    0    0 -0.35290917453E+02  0.23319896496E+02  0.25435830977E+02  0.49358362258E+02  0.00000000000E+00 0.  1.
         12    1    4    4    0    0  0.29744273715E+02  0.32048241306E+01 -0.17277580151E+02  0.34547177778E+02  0.00000000000E+00 0. -1.
         -5    1    5    5    0  503  0.45417387744E+01 -0.10110557095E+03 -0.31143581269E+02  0.10599517216E+03  0.47000000000E+01 0.  1.
         11    1    6    6    0    0 -0.50449659401E+02 -0.21027260419E+01 -0.34239278326E+02  0.61007522247E+02  0.00000000000E+00 0. -1.
        -12    1    6    6    0    0 -0.13830908143E+02  0.46328467704E+01  0.37649902138E+02  0.40376632107E+02  0.00000000000E+00 0.  1.
</event>
<event>
12    1  0.9017558E-003  0.2295794E+03  0.7818608E-02  0.1127424E+00
         21   -1    0    0  503  502  0.00000000000E+00  0.00000000000E+00  0.73455222118E+03  0.73455222118E+03  0.00000000000E+00 0.  1.
         21   -1    0    0  501  503 -0.00000000000E+00 -0.00000000000E+00 -0.79650122668E+02  0.79650122668E+02  0.00000000000E+00 0.  1.
          6    2    1    2  501    0 -0.11371356473E+03 -0.93785748865E+02  0.19074472147E+03  0.29637149267E+03  0.17241221363E+03 0.  0.
         24    2    3    3    0    0 -0.15419126989E+02 -0.13869227999E+02  0.13637639775E+03  0.15843508913E+03  0.77929780208E+02 0.  0.
         -6    2    1    2    0  502  0.11371356473E+03  0.93785748865E+02  0.46415737705E+03  0.51783085118E+03  0.17601186969E+03 0.  0.
        -24    2    5    5    0    0  0.69941058557E+02 -0.16483732215E+02  0.17732968155E+03  0.20739952599E+03  0.80033007708E+02 0.  0.
          5    1    3    3  501    0 -0.98294437737E+02 -0.79916520866E+02  0.54368323721E+02  0.13793640354E+03  0.47000000000E+01 0. -1.
        -11    1    4    4    0    0 -0.31761163108E+02 -0.34728348093E+02  0.11543800597E+03  0.12466259609E+03  0.00000000000E+00 0.  1.
         12    1    4    4    0    0  0.16342036119E+02  0.20859120094E+02  0.20938391778E+02  0.33772493036E+02  0.00000000000E+00 0. -1.
         -5    1    5    5    0  502  0.43772506169E+02  0.11026948108E+03  0.28682769550E+03  0.31043132519E+03  0.47000000000E+01 0.  1.
         13    1    6    6    0    0  0.42800508761E+02 -0.23445809647E+02  0.17211404606E+03  0.17889895022E+03  0.00000000000E+00 0. -1.
        -14    1    6    6    0    0  0.27140549796E+02  0.69620774315E+01  0.52156354881E+01  0.28500575765E+02  0.00000000000E+00 0.  1.
</event>
<event>
12    1  0.9017558E-003  0.2866864E+03  0.7818608E-02  0.1092197E+00
         21   -1    0    0  503  502  0.00000000000E+00  0.00000000000E+00  0.29046901665E+03  0.29046901665E+03  0.00000000000E+00 0.  1.
         21   -1    0    0  501  503 -0.00000000000E+00 -0.00000000000E+00 -0.35455055485E+03  0.35455055485E+03  0.00000000000E+00 0.  1.
          6    2    1    2  501    0 -0.22209213741E+03 -0.50524037819E+02 -0.17779524725E+03  0.33734287623E+03  0.17410189631E+03 0.  0.
         24    2    3    3    0    0 -0.27827714755E+02  0.46933100145E+01 -0.38752627502E+02  0.92103072118E+02  0.78643505058E+02 0.  0.
         -6    2    1    2    0  502  0.22209213741E+03  0.50524037819E+02  0.11371370905E+03  0.30767669528E+03  0.17279046645E+03 0.  0.
        -24    2    5    5    0    0  0.79504037687E+02 -0.35746670540E+02  0.34365282497E+02  0.12303578947E+03  0.79737797719E+02 0.  0.
          5    1    3    3  501    0 -0.19426442266E+03 -0.55217347834E+02 -0.13904261975E+03  0.24523980411E+03  0.47000000000E+01 0. -1.
        -11    1    4    4    0    0 -0.16275540978E+02 -0.20965936996E+02 -0.53947270066E+02  0.60122971449E+02  0.00000000000E+00 0.  1.
         12    1    4    4    0    0 -0.11552173777E+02  0.25659247011E+02  0.15194642564E+02  0.31980100669E+02  0.00000000000E+00 0. -1.
         -5    1    5    5    0  502  0.14258809972E+03  0.86270708359E+02  0.79348426548E+02  0.18464090581E+03  0.47000000000E+01 0.  1.
         11    1    6    6    0    0  0.59796055144E+02 -0.25230160170E+02 -0.16942638810E+02  0.67075943548E+02  0.00000000000E+00 0. -1.
        -12    1    6    6    0    0  0.19707982543E+02 -0.10516510370E+02  0.51307921307E+02  0.55959845918E+02  0.00000000000E+00 0.  1.
</event>
<event>
12    1  0.9017558E-003  0.1806641E+03  0.7818608E-02  0.1167718E+00
         21   -1    0    0  503  502  0.00000000000E+00  0.00000000000E+00  0.94564863770E+02  0.94564863770E+02  0.00000000000E+00 0.  1.
         21   -1    0    0  501  503 -0.00000000000E+00 -0.00000000000E+00 -0.38174777011E+03  0.38174777011E+03  0.00000000000E+00 0.  1.
          6    2    1    2  501    0 -0.54728745301E+02  0.56406924319E+01 -0.22078549403E+03  0.28383373187E+03  0.16967115252E+03 0.  0.
         24    2    3    3    0    0 -0.25274316723E+02  0.45689995075E+02 -0.21411964467E+03  0.23345483199E+03  0.76990711196E+02 0.  0.
         -6    2    1    2    0  502  0.54728745301E+02 -0.56406924319E+01 -0.66397412315E+02  0.19247890202E+03  0.17208270798E+03 0.  0.
        -24    2    5    5    0    0 -0.23088601571E+02 -0.49462208844E+02 -0.42763474471E+02  0.99977454501E+02  0.72022101007E+02 0.  0.
          5    1    3    3  501    0 -0.29454428579E+02 -0.40049302644E+02 -0.66658493617E+01  0.50378899877E+02  0.47000000000E+01 0. -1.
        -13    1    4    4    0    0 -0.33459778562E+02  0.64366984955E+02 -0.17128019312E+03  0.18600959676E+03  0.00000000000E+00 0.  1.
         14    1    4    4    0    0  0.81854618392E+01 -0.18676989880E+02 -0.42839451549E+02  0.47445235225E+02  0.00000000000E+00 0. -1.
         -5    1    5    5    0  502  0.77817346873E+02  0.43821516412E+02 -0.23633937844E+02  0.92501447518E+02  0.47000000000E+01 0.  1.
         11    1    6    6    0    0 -0.31776070726E+02 -0.28122785896E+02  0.89468190698E+01  0.43366523135E+02  0.00000000000E+00 0. -1.
        -12    1    6    6    0    0  0.86874691549E+01 -0.21339422948E+02 -0.51710293541E+02  0.56610931366E+02  0.00000000000E+00 0.  1.
</event>
<event>
12    1  0.9017558E-003  0.3352615E+03  0.7818608E-02  0.1068840E+00
         21   -1    0    0  501  502  0.00000000000E+00  0.00000000000E+00  0.23322810310E+03  0.23322810310E+03  0.00000000000E+00 0. -1.
         21   -1    0    0  502  503 -0.00000000000E+00 -0.00000000000E+00 -0.48570654915E+03  0.48570654915E+03  0.00000000000E+00 0. -1.
          6    2    1    2  501    0  0.15363727812E+03 -0.24359672938E+03 -0.15837806021E+03  0.37078816184E+03  0.17162887639E+03 0.  0.
         24    2    3    3    0    0  0.47759251148E+02 -0.24350417939E+02 -0.43191687180E+02  0.10140165103E+03  0.74450547786E+02 0.  0.
         -6    2    1    2    0  503 -0.15363727812E+03  0.24359672938E+03 -0.94100385842E+02  0.34814649041E+03  0.17148561565E+03 0.  0.
        -24    2    5    5    0    0 -0.17374555223E+03  0.18393184724E+03 -0.10269266726E+03  0.28442712014E+03  0.79589957972E+02 0.  0.
          5    1    3    3  501    0  0.10587802697E+03 -0.21924631144E+03 -0.11518637303E+03  0.26938651081E+03  0.47000000000E+01 0. -1.
        -11    1    4    4    0    0  0.47267138273E+02 -0.11944323502E+02 -0.61995385080E+02  0.78868732687E+02  0.00000000000E+00 0.  1.
         12    1    4    4    0    0  0.49211287525E+00 -0.12406094437E+02  0.18803697900E+02  0.22532918341E+02  0.00000000000E+00 0. -1.
         -5    1    5    5    0  503  0.20108274112E+02  0.59664882134E+02  0.85922814135E+01  0.63719370270E+02  0.47000000000E+01 0.  1.
         13    1    6    6    0    0 -0.13892109891E+03  0.14091174258E+03 -0.41996924893E+02  0.20228428664E+03  0.00000000000E+00 0. -1.
        -14    1    6    6    0    0 -0.34824453323E+02  0.43020104659E+02 -0.60695742362E+02  0.82142833498E+02  0.00000000000E+00 0.  1.
</event>
<event>
12    1  0.9017558E-003  0.1947458E+03  0.7818608E-02  0.1155038E+00
         21   -1    0    0  501  502  0.00000000000E+00  0.00000000000E+00  0.92699506684E+03  0.92699506684E+03  0.00000000000E+00 0.  1.
         21   -1    0    0  502  503 -0.00000000000E+00 -0.00000000000E+00 -0.61278067741E+02  0.61278067741E+02  0.00000000000E+00 0. -1.
          6    2    1    2  501    0 -0.54665546396E+02 -0.74612877282E+02  0.72027001457E+03  0.74520779023E+03  0.16730317785E+03 0.  0.
         24    2    3    3    0    0 -0.68491064282E+02 -0.10957038078E+03  0.62146950995E+03  0.63939284938E+03  0.76825580430E+02 0.  0.
         -6    2    1    2    0  503  0.54665546396E+02  0.74612877282E+02  0.14544698453E+03  0.24306534435E+03  0.17137833263E+03 0.  0.
        -24    2    5    5    0    0  0.63692841469E+02  0.31016622424E+02  0.15668671981E+03  0.19690749406E+03  0.95932393532E+02 0.  0.
          5    1    3    3  501    0  0.13825517887E+02  0.34957503493E+02  0.98800504617E+02  0.10581494085E+03  0.47000000000E+01 0. -1.
        -11    1    4    4    0    0 -0.34003110048E+01 -0.10916804182E+02  0.23444053915E+03  0.23471920485E+03  0.00000000000E+00 0.  1.
         12    1    4    4    0    0 -0.65090753277E+02 -0.98653576594E+02  0.38702897080E+03  0.40467364453E+03  0.00000000000E+00 0. -1.
         -5    1    5    5    0  503 -0.90272950733E+01  0.43596254858E+02 -0.11239735285E+02  0.46157850289E+02  0.47000000000E+01 0.  1.
         13    1    6    6    0    0  0.40139122841E+02  0.48182359765E+02  0.35078157597E+02  0.71855174590E+02  0.00000000000E+00 0. -1.
        -14    1    6    6    0    0  0.23553718628E+02 -0.17165737341E+02  0.12160856222E+03  0.12505231947E+03  0.00000000000E+00 0.  1.
</event>
<event>
12    1  0.9017558E-003  0.2044939E+03  0.7818608E-02  0.1147700E+00
         21   -1    0    0  501  502  0.00000000000E+00  0.00000000000E+00  0.11586631307E+03  0.11586631307E+03  0.00000000000E+00 0.  1.
         21   -1    0    0  502  503 -0.00000000000E+00 -0.00000000000E+00 -0.60756884181E+03  0.60756884181E+03  0.00000000000E+00 0.  1.
          6    2    1    2  501    0 -0.95780995925E+02  0.10604974975E+02 -0.60408171015E+01  0.19647683385E+03  0.17111455255E+03 0.  0.
         24    2    3    3    0    0  0.51193287835E+01 -0.22577796294E+02 -0.18636120243E+02  0.89412817967E+02  0.84329014143E+02 0.  0.
         -6    2    1    2    0  503  0.95780995925E+02 -0.10604974975E+02 -0.48566171164E+03  0.52695832104E+03  0.18036437919E+03 0.  0.
        -24    2    5    5    0    0 -0.15982499122E+02  0.58624344292E+01 -0.28839714388E+03  0.29958713972E+03  0.79307838668E+02 0.  0.
          5    1    3    3  501    0 -0.10090032471E+03  0.33182771269E+02  0.12595303141E+02  0.10706401588E+03  0.47000000000E+01 0. -1.
        -13    1    4    4    0    0  0.15678371889E+02  0.86584490855E+01  0.27431680870E+02  0.32760909649E+02  0.00000000000E+00 0.  1.
         14    1    4    4    0    0 -0.10559043106E+02 -0.31236245380E+02 -0.46067801113E+02  0.56651908318E+02  0.00000000000E+00 0. -1.
         -5    1    5    5    0  503  0.11176349505E+03 -0.16467409404E+02 -0.19726456777E+03  0.22737118132E+03  0.47000000000E+01 0.  1.
         13    1    6    6    0    0  0.30437162792E+00  0.17737574992E+02 -0.98102786884E+01  0.20272044214E+02  0.00000000000E+00 0. -1.
        -14    1    6    6    0    0 -0.16286870750E+02 -0.11875140563E+02 -0.27858686519E+03  0.27931509551E+03  0.00000000000E+00 0.  1.
</event>
<event>
12    1  0.9017558E-003  0.1926403E+03  0.7818608E-02  0.1157176E+00
         21   -1    0    0  501  502  0.00000000000E+00  0.00000000000E+00  0.43877969694E+02  0.43877969694E+02  0.00000000000E+00 0.  1.
         21   -1    0    0  502  503 -0.00000000000E+00 -0.00000000000E+00 -0.83035542131E+03  0.83035542131E+03  0.00000000000E+00 0.  1.
          6    2    1    2  501    0 -0.84820725008E+02 -0.19353005665E+02 -0.43370190986E+03  0.47456046710E+03  0.17187552503E+03 0.  0.
         24    2    3    3    0    0 -0.68042809906E+02 -0.59137956483E+02 -0.17731922239E+03  0.21452486728E+03  0.80322413886E+02 0.  0.
         -6    2    1    2    0  503  0.84820725008E+02  0.19353005665E+02 -0.35277554176E+03  0.39967292390E+03  0.16648954627E+03 0.  0.
        -24    2    5    5    0    0  0.17976886983E+02 -0.45642172023E+02 -0.16442133032E+03  0.18945429777E+03  0.80325467614E+02 0.  0.
          5    1    3    3  501    0 -0.16777915102E+02  0.39784950819E+02 -0.25638268746E+03  0.26003559983E+03  0.47000000000E+01 0. -1.
        -11    1    4    4    0    0 -0.32315123951E+02 -0.64038808919E+02 -0.15821258012E+03  0.17371372079E+03  0.00000000000E+00 0.  1.
         12    1    4    4    0    0 -0.35727685955E+02  0.49008524351E+01 -0.19106642275E+02  0.40811146484E+02  0.00000000000E+00 0. -1.
         -5    1    5    5    0  503  0.66843838025E+02  0.64995177688E+02 -0.18835421144E+03  0.21021862613E+03  0.47000000000E+01 0.  1.
         13    1    6    6    0    0  0.41946598766E+02 -0.42233088464E+02 -0.14974618447E+03  0.16114301311E+03  0.00000000000E+00 0. -1.
        -14    1    6    6    0    0 -0.23969711783E+02 -0.34090835593E+01 -0.14675145845E+02  0.28311284663E+02  0.00000000000E+00 0.  1.
</event>
<event>
12    1  0.9017558E-003  0.1773654E+03  0.7818608E-02  0.1171028E+00
         21   -1    0    0  501  502  0.00000000000E+00  0.00000000000E+00  0.83300488088E+03  0.83300488088E+03  0.00000000000E+00 0.  1.
         21   -1    0    0  502  503 -0.00000000000E+00 -0.00000000000E+00 -0.41628943134E+02  0.41628943134E+02  0.00000000000E+00 0.  1.
          6    2    1    2  501    0 -0.95058355309E+01 -0.31300866719E+02  0.54078692820E+03  0.56913001173E+03  0.17432258423E+03 0.  0.
         24    2    3    3    0    0  0.30543561792E+02  0.30710400191E+01  0.48389252549E+03  0.49138398123E+03  0.79774057990E+02 0.  0.
         -6    2    1    2    0  503  0.95058355309E+01  0.31300866719E+02  0.25058900955E+03  0.30550381229E+03  0.17166135980E+03 0.  0.
        -24    2    5    5    0    0  0.36961764439E+02  0.29897961854E+02  0.26137565302E+03  0.27560000231E+03  0.73335319784E+02 0.  0.
          5    1    3    3  501    0 -0.40049397323E+02 -0.34371906739E+02  0.56894402704E+02  0.77746030496E+02  0.47000000000E+01 0. -1.
        -13    1    4    4    0    0  0.51682785917E+02  0.20627183207E+02  0.37351252750E+03  0.37763500797E+03  0.00000000000E+00 0.  1.
         14    1    4    4    0    0 -0.21139224125E+02 -0.17556143187E+02  0.11037999799E+03  0.11374897326E+03  0.00000000000E+00 0. -1.
         -5    1    5    5    0  503 -0.27455928908E+02  0.14029048651E+01 -0.10786643466E+02  0.29903809983E+02  0.47000000000E+01 0.  1.
         11    1    6    6    0    0  0.19303085909E+01  0.46967344944E+02  0.16715214946E+03  0.17363610988E+03  0.00000000000E+00 0. -1.
        -12    1    6    6    0    0  0.35031455848E+02 -0.17069383089E+02  0.94223503552E+02  0.10196389243E+03  0.00000000000E+00 0.  1.
</event>
<event>
12    1  0.9017558E-003  0.2668569E+03  0.7818608E-02  0.1103799E+00
         21   -1    0    0  501  502  0.00000000000E+00  0.00000000000E+00  0.15467992189E+04  0.15467992189E+04  0.00000000000E+00 0. -1.
         21   -1    0    0  502  503 -0.00000000000E+00 -0.00000000000E+00 -0.47277851811E+02  0.47277851811E+02  0.00000000000E+00 0.  1.
          6    2    1    2  501    0 -0.16928220551E+03 -0.10286216567E+03  0.58965331176E+03  0.64722765647E+03  0.17881700420E+03 0.  0.
         24    2    3    3    0    0 -0.49221960278E+02 -0.33986254862E+02  0.39843524740E+03  0.41112430682E+03  0.81821038834E+02 0.  0.
         -6    2    1    2    0  503  0.16928220551E+03  0.10286216567E+03  0.90986805530E+03  0.94684941422E+03  0.17154254553E+03 0.  0.
        -24    2    5    5    0    0  0.15307867577E+03  0.17274327820E+02  0.62902520543E+03  0.65277012443E+03  0.81881883826E+02 0.  0.
          5    1    3    3  501    0 -0.12006024523E+03 -0.68875910803E+02  0.19121806437E+03  0.23610334965E+03  0.47000000000E+01 0. -1.
        -11    1    4    4    0    0 -0.62328396107E+02 -0.36245763342E+02  0.20643753114E+03  0.21866650083E+03  0.00000000000E+00 0.  1.
         12    1    4    4    0    0  0.13106435829E+02  0.22595084800E+01  0.19199771625E+03  0.19245780599E+03  0.00000000000E+00 0. -1.
         -5    1    5    5    0  503  0.16203529738E+02  0.85587837845E+02  0.28084284987E+03  0.29407928979E+03  0.47000000000E+01 0.  1.
         11    1    6    6    0    0  0.12307082288E+03  0.24381091523E+02  0.58915456696E+03  0.60236531178E+03  0.00000000000E+00 0. -1.
        -12    1    6    6    0    0  0.30007852897E+02 -0.71067637024E+01  0.39870638472E+02  0.50404812647E+02  0.00000000000E+00 0.  1.
</event>
<event>
12    1  0.9017558E-003  0.1981530E+03  0.7818608E-02  0.1151680E+00
         21   -1    0    0  501  502  0.00000000000E+00  0.00000000000E+00  0.70339567433E+02  0.70339567433E+02  0.00000000000E+00 0. -1.
         21   -1    0    0  502  503 -0.00000000000E+00 -0.00000000000E+00 -0.81731927613E+03  0.81731927613E+03  0.00000000000E+00 0. -1.
          6    2    1    2  501    0  0.78228952303E+02  0.51448149861E+02 -0.12013520985E+03  0.23024068097E+03  0.17266042229E+03 0.  0.
         24    2    3    3    0    0  0.73440624903E+02  0.21804754748E+02 -0.42565386831E+01  0.11044245317E+03  0.79438307037E+02 0.  0.
         -6    2    1    2    0  503 -0.78228952303E+02 -0.51448149861E+02 -0.62684449884E+03  0.65741816259E+03  0.17463657597E+03 0.  0.
        -24    2    5    5    0    0 -0.77838386727E+02 -0.36231729356E+02 -0.20508591174E+03  0.23535882103E+03  0.77213928697E+02 0.  0.
          5    1    3    3  501    0  0.47883273997E+01  0.29643395113E+02 -0.11587867117E+03  0.11979822780E+03  0.47000000000E+01 0. -1.
        -13    1    4    4    0    0  0.13200870292E+02 -0.21856185598E+02  0.19735386927E+02  0.32271370013E+02  0.00000000000E+00 0.  1.
         14    1    4    4    0    0  0.60239754611E+02  0.43660940346E+02 -0.23991925610E+02  0.78171083157E+02  0.00000000000E+00 0. -1.
         -5    1    5    5    0  503 -0.39056557569E+00 -0.15216420505E+02 -0.42175858711E+03  0.42205934155E+03  0.47000000000E+01 0.  1.
         13    1    6    6    0    0 -0.78044900434E+02 -0.36229509149E+02 -0.21181605355E+03  0.22862551117E+03  0.00000000000E+00 0. -1.
        -14    1    6    6    0    0  0.20651370629E+00 -0.22202063084E-02  0.67301418143E+01  0.67333098608E+01  0.00000000000E+00 0.  1.
</event>
<event>
12    1  0.9017558E-003  0.2422325E+03  0.7818608E-02  0.1118512E+00
         21   -1    0    0  501  502  0.00000000000E+00  0.00000000000E+00  0.60869338117E+02  0.60869338117E+02  0.00000000000E+00 0. -1.
         21   -1    0    0  502  503 -0.00000000000E+00 -0.00000000000E+00 -0.12348400060E+04  0.12348400060E+04  0.00000000000E+00 0. -1.
          6    2    1    2  501    0 -0.82706755839E+02  0.14667653782E+03 -0.28203737394E+03  0.37178175434E+03  0.17413264586E+03 0.  0.
         24    2    3    3    0    0 -0.10856742684E+03  0.73522393835E+02 -0.13089646519E+03  0.20182303175E+03  0.80038884177E+02 0.  0.
         -6    2    1    2    0  503  0.82706755839E+02 -0.14667653782E+03 -0.89193329395E+03  0.92392758978E+03  0.17246094080E+03 0.  0.
        -24    2    5    5    0    0  0.65768732270E+02 -0.85575906320E+01 -0.37502228321E+03  0.38859327999E+03  0.77228659515E+02 0.  0.
          5    1    3    3  501    0  0.25860670997E+02  0.73154143987E+02 -0.15114090876E+03  0.16995872260E+03  0.47000000000E+01 0. -1.
        -11    1    4    4    0    0 -0.25835605512E+02 -0.16363557703E+02 -0.35275851999E+02  0.46686510548E+02  0.00000000000E+00 0.  1.
         12    1    4    4    0    0 -0.82731821324E+02  0.89885951538E+02 -0.95620613191E+02  0.15513652120E+03  0.00000000000E+00 0. -1.
         -5    1    5    5    0  503  0.16938023569E+02 -0.13811894719E+03 -0.51691101074E+03  0.53533430979E+03  0.47000000000E+01 0.  1.
         11    1    6    6    0    0  0.38168618265E+02 -0.39957696201E+02 -0.26919098097E+03  0.27480401224E+03  0.00000000000E+00 0. -1.
        -12    1    6    6    0    0  0.27600114005E+02  0.31400105569E+02 -0.10583130224E+03  0.11378926776E+03  0.00000000000E+00 0.  1.
</event>
<event>
12    1  0.9017558E-003  0.1768103E+03  0.7818608E-02  0.1172110E+00
         21   -1    0    0  501  502  0.00000000000E+00  0.00000000000E+00  0.78726715097E+02  0.78726715097E+02  0.00000000000E+00 0. -1.
         21   -1    0    0  502  503 -0.00000000000E+00 -0.00000000000E+00 -0.38822451590E+03  0.38822451590E+03  0.00000000000E+00 0. -1.
          6    2    1    2  501    0  0.37959517285E+02 -0.55055052813E+01 -0.13750323483E+03  0.22028541276E+03  0.16777153497E+03 0.  0.
         24    2    3    3    0    0  0.22438012757E+02 -0.18496792265E+02  0.10417215188E+01  0.80190853376E+02  0.74725444401E+02 0.  0.
         -6    2    1    2    0  503 -0.37959517285E+02  0.55055052813E+01 -0.17199456597E+03  0.24666581823E+03  0.17259970921E+03 0.  0.
        -24    2    5    5    0    0 -0.84848757549E+02 -0.27306736658E+02 -0.11661762792E+03  0.16689151572E+03  0.79423783294E+02 0.  0.
          5    1    3    3  501    0  0.15521504528E+02  0.12991286984E+02 -0.13854495635E+03  0.14009455939E+03  0.47000000000E+01 0. -1.
        -13    1    4    4    0    0  0.28955734471E+02  0.17379629655E+02 -0.18827938436E+02  0.38664936977E+02  0.00000000000E+00 0.  1.
         14    1    4    4    0    0 -0.65177217137E+01 -0.35876421920E+02  0.19869659954E+02  0.41525916400E+02  0.00000000000E+00 0. -1.
         -5    1    5    5    0  503  0.46889240264E+02  0.32812241940E+02 -0.55376938056E+02  0.79774302517E+02  0.47000000000E+01 0.  1.
         11    1    6    6    0    0 -0.61115764857E+02  0.37040374373E+00 -0.11519576989E+03  0.13040452183E+03  0.00000000000E+00 0. -1.
        -12    1    6    6    0    0 -0.23732992692E+02 -0.27677140402E+02 -0.14218580310E+01  0.36486993891E+02  0.00000000000E+00 0.  1.
</event>
<event>
12    1  0.9017558E-003  0.2231439E+03  0.7818608E-02  0.1131877E+00
         21   -1    0    0  503  502  0.00000000000E+00  0.00000000000E+00  0.73194267875E+03  0.73194267875E+03  0.00000000000E+00 0. -1.
         21   -1    0    0  501  503 -0.00000000000E+00 -0.00000000000E+00 -0.85147781382E+02  0.85147781382E+02  0.00000000000E+00 0. -1.
          6    2    1    2  501    0 -0.13588137890E+03  0.39686984449E+02  0.13643530673E+03  0.26008047530E+03  0.17025996254E+03 0.  0.
         24    2    3    3    0    0 -0.10073292985E+02  0.10624439681E+02  0.16571665442E+02  0.83837210200E+02  0.80868459664E+02 0.  0.
         -6    2    1    2    0  502  0.13588137890E+03 -0.39686984449E+02  0.51035959064E+03  0.55700998484E+03  0.17249465377E+03 0.  0.
        -24    2    5    5    0    0  0.95231089934E+02 -0.30330248540E+02  0.49839448291E+03  0.51336083475E+03  0.71787196608E+02 0.  0.
          5    1    3    3  501    0 -0.12580808592E+03  0.29062544768E+02  0.11986364128E+03  0.17624326510E+03  0.47000000000E+01 0. -1.
        -13    1    4    4    0    0  0.26791723944E+02 -0.11967249890E+02  0.26429572463E+02  0.39490933674E+02  0.00000000000E+00 0.  1.
         14    1    4    4    0    0 -0.36865016929E+02  0.22591689571E+02 -0.98579070212E+01  0.44346276526E+02  0.00000000000E+00 0. -1.
         -5    1    5    5    0  502  0.40650288966E+02 -0.93567359091E+01  0.11965107733E+02  0.43649150083E+02  0.47000000000E+01 0.  1.
         11    1    6    6    0    0  0.42121067254E+02  0.19762511282E+02  0.25663863304E+03  0.26082202577E+03  0.00000000000E+00 0. -1.
        -12    1    6    6    0    0  0.53110022680E+02 -0.50092759822E+02  0.24175584987E+03  0.25253880898E+03  0.00000000000E+00 0.  1.
</event>
<event>
12    1  0.9017558E-003  0.2106517E+03  0.7818608E-02  0.1141569E+00
         21   -1    0    0  503  502  0.00000000000E+00  0.00000000000E+00  0.86259123451E+03  0.86259123451E+03  0.00000000000E+00 0. -1.
         21   -1    0    0  501  503 -0.00000000000E+00 -0.00000000000E+00 -0.53160052945E+02  0.53160052945E+02  0.00000000000E+00 0.  1.
          6    2    1    2  501    0 -0.96346443131E+02 -0.69980374290E+02  0.31080825404E+03  0.37546759567E+03  0.17376494101E+03 0.  0.
         24    2    3    3    0    0 -0.58332561298E+02  0.24075167829E+01  0.67619076932E+02  0.11885869510E+03  0.78400038208E+02 0.  0.
         -6    2    1    2    0  502  0.96346443131E+02  0.69980374290E+02  0.49862292753E+03  0.54028369179E+03  0.17059236171E+03 0.  0.
        -24    2    5    5    0    0  0.12346361032E+03  0.56229064411E+02  0.29593371882E+03  0.33527285157E+03  0.80163260374E+02 0.  0.
          5    1    3    3  501    0 -0.38013881833E+02 -0.72387891073E+02  0.24318917711E+03  0.25660890057E+03  0.47000000000E+01 0. -1.
        -13    1    4    4    0    0  0.24977476987E+01 -0.26222290887E+02  0.35884093158E+02  0.44514215984E+02  0.00000000000E+00 0.  1.
         14    1    4    4    0    0 -0.60830308997E+02  0.28629807669E+02  0.31734983774E+02  0.74344479116E+02  0.00000000000E+00 0. -1.
         -5    1    5    5    0  502 -0.27117167184E+02  0.13751309880E+02  0.20268920871E+03  0.20501084022E+03  0.47000000000E+01 0.  1.
         11    1    6    6    0    0  0.55450970422E+02  0.68766293793E+02  0.16058866661E+03  0.18328211349E+03  0.00000000000E+00 0. -1.
        -12    1    6    6    0    0  0.68012639893E+02 -0.12537229383E+02  0.13534505221E+03  0.15199073808E+03  0.00000000000E+00 0.  1.
</event>
<event>
12    1  0.9017558E-003  0.2188844E+03  0.7818608E-02  0.1135239E+00
         21   -1    0    0  501  502  0.00000000000E+00  0.00000000000E+00  0.24027563337E+03  0.24027563337E+03  0.00000000000E+00 0. -1.
         21   -1    0    0  502  503 -0.00000000000E+00 -0.00000000000E+00 -0.27000746107E+03  0.27000746107E+03  0.00000000000E+00 0. -1.
          6    2    1    2  501    0  0.39387797029E+02  0.12480615532E+03  0.11797026812E+03  0.24622574552E+03  0.17199464712E+03 0.  0.
         24    2    3    3    0    0  0.13337893278E+02  0.12851801844E+02  0.21843159833E+01  0.83005491085E+02  0.80883076761E+02 0.  0.
         -6    2    1    2    0  503 -0.39387797029E+02 -0.12480615532E+03 -0.14770209582E+03  0.26405734891E+03  0.17544913634E+03 0.  0.
        -24    2    5    5    0    0 -0.56635776150E+02 -0.15012631231E+03 -0.14922424113E+03  0.23302494552E+03  0.79292057038E+02 0.  0.
          5    1    3    3  501    0  0.26049903752E+02  0.11195435347E+03  0.11578595214E+03  0.16322025444E+03  0.47000000000E+01 0. -1.
        -13    1    4    4    0    0 -0.23989825843E+02  0.31486982147E+02 -0.72204887227E+01  0.40237758959E+02  0.00000000000E+00 0.  1.
         14    1    4    4    0    0  0.37327719121E+02 -0.18635180303E+02  0.94048047060E+01  0.42767732126E+02  0.00000000000E+00 0. -1.
         -5    1    5    5    0  503  0.17247979121E+02  0.25320156990E+02  0.15221453043E+01  0.31032403388E+02  0.47000000000E+01 0.  1.
         11    1    6    6    0    0 -0.29439139402E+01 -0.93520660217E+02 -0.47815298393E+02  0.10507655912E+03  0.00000000000E+00 0. -1.
        -12    1    6    6    0    0 -0.53691862210E+02 -0.56605652089E+02 -0.10140894273E+03  0.12794838640E+03  0.00000000000E+00 0.  1.
</event>
<event>
12    1  0.9017558E-003  0.2753284E+03  0.7818608E-02  0.1098273E+00
         21   -1    0    0  501  502  0.00000000000E+00  0.00000000000E+00  0.11036262193E+03  0.11036262193E+03  0.00000000000E+00 0.  1.
         21   -1    0    0  502  503 -0.00000000000E+00 -0.00000000000E+00 -0.71739762051E+03  0.71739762051E+03  0.00000000000E+00 0. -1.
          6    2    1    2  501    0  0.13128806663E+03  0.17043379662E+03 -0.38897434950E+03  0.47653925242E+03  0.17176838782E+03 0.  0.
         24    2    3    3    0    0  0.21158154892E+02  0.15122723101E+02 -0.11617247130E+03  0.14383355399E+03  0.80719786253E+02 0.  0.
         -6    2    1    2    0  503 -0.13128806663E+03 -0.17043379662E+03 -0.21806064907E+03  0.35122099002E+03  0.17181822282E+03 0.  0.
        -24    2    5    5    0    0 -0.55442830082E+02 -0.16960119590E+03 -0.18199881811E+03  0.26710357932E+03  0.79889168457E+02 0.  0.
          5    1    3    3  501    0  0.11012991173E+03  0.15531107351E+03 -0.27280187820E+03  0.33270569843E+03  0.47000000000E+01 0. -1.
        -13    1    4    4    0    0 -0.88848974641E+01  0.32500020464E+02 -0.15013276870E+02  0.36886192748E+02  0.00000000000E+00 0.  1.
         14    1    4    4    0    0  0.30043052356E+02 -0.17377297362E+02 -0.10115919443E+03  0.10694736124E+03  0.00000000000E+00 0. -1.
         -5    1    5    5    0  503 -0.75845236545E+02 -0.83260071648E+00 -0.36061830965E+02  0.84117410701E+02  0.47000000000E+01 0.  1.
         11    1    6    6    0    0 -0.50678811171E+02 -0.11809626502E+03 -0.17152899735E+03  0.21432980811E+03  0.00000000000E+00 0. -1.
        -12    1    6    6    0    0 -0.47640189107E+01 -0.51504930883E+02 -0.10469820759E+02  0.52773771215E+02  0.00000000000E+00 0.  1.
</event>
<event>
12    1  0.9017558E-003  0.2754141E+03  0.7818608E-02  0.1098310E+00
         21   -1    0    0  501  502  0.00000000000E+00  0.00000000000E+00  0.60395514900E+03  0.60395514900E+03  0.00000000000E+00 0.  1.
         21   -1    0    0  502  503 -0.00000000000E+00 -0.00000000000E+00 -0.18114047246E+03  0.18114047246E+03  0.00000000000E+00 0.  1.
          6    2    1    2  501    0 -0.21194359496E+03  0.37048651290E+02  0.42952669086E+03  0.51024121778E+03  0.17193089355E+03 0.  0.
         24    2    3    3    0    0 -0.39490664064E+02  0.49568361713E+02  0.17837207078E+03  0.20528631995E+03  0.79431369709E+02 0.  0.
         -6    2    1    2    0  503  0.21194359496E+03 -0.37048651290E+02 -0.67120143152E+01  0.27485440368E+03  0.17090114710E+03 0.  0.
        -24    2    5    5    0    0  0.69832964476E+02 -0.68281153980E+02  0.22200545379E+02  0.12643295433E+03  0.77158724771E+02 0.  0.
          5    1    3    3  501    0 -0.17245293090E+03 -0.12519710423E+02  0.25115462008E+03  0.30495489783E+03  0.47000000000E+01 0. -1.
        -13    1    4    4    0    0 -0.33072038024E+01  0.10883899003E+01  0.12369535293E+03  0.12374434341E+03  0.00000000000E+00 0.  1.
         14    1    4    4    0    0 -0.36183460261E+02  0.48479971813E+02  0.54676717849E+02  0.81541976541E+02  0.00000000000E+00 0. -1.
         -5    1    5    5    0  503  0.14211063049E+03  0.31232502689E+02 -0.28912559694E+02  0.14842144936E+03  0.47000000000E+01 0.  1.
         11    1    6    6    0    0 -0.32882056328E+01 -0.22915122106E+02 -0.19998475210E+02  0.30591733004E+02  0.00000000000E+00 0. -1.
        -12    1    6    6    0    0  0.73121170109E+02 -0.45366031873E+02  0.42199020589E+02  0.95841221323E+02  0.00000000000E+00 0.  1.
</event>
<event>
12    1  0.9017558E-003  0.1761741E+03  0.7818608E-02  0.1171805E+00
         21   -1    0    0  501  502  0.00000000000E+00  0.00000000000E+00  0.18991698712E+03  0.18991698712E+03  0.00000000000E+00 0. -1.
         21   -1    0    0  502  503 -0.00000000000E+00 -0.00000000000E+00 -0.29998457544E+03  0.29998457544E+03  0.00000000000E+00 0. -1.
          6    2    1    2  501    0  0.32268292160E+02 -0.48480776250E+01  0.11087119350E+03  0.20732193176E+03  0.17211977023E+03 0.  0.
         24    2    3    3    0    0 -0.31611464492E+02 -0.34701223751E+02  0.99712603892E+02  0.13577867376E+03  0.79308166385E+02 0.  0.
         -6    2    1    2    0  503 -0.32268292160E+02  0.48480776250E+01 -0.22093878182E+03  0.28257963079E+03  0.17312583831E+03 0.  0.
        -24    2    5    5    0    0 -0.82491225761E+02  0.12907850691E+02 -0.10251714158E+03  0.15361034035E+03  0.78198193114E+02 0.  0.
          5    1    3    3  501    0  0.63879756652E+02  0.29853146126E+02  0.11158589607E+02  0.71543258002E+02  0.47000000000E+01 0. -1.
        -11    1    4    4    0    0  0.23293994271E+02 -0.17702781104E+02  0.13642762277E+02  0.32281939075E+02  0.00000000000E+00 0.  1.
         12    1    4    4    0    0 -0.54905458762E+02 -0.16998442647E+02  0.86069841615E+02  0.10349673468E+03  0.00000000000E+00 0. -1.
         -5    1    5    5    0  503  0.50222933601E+02 -0.80597730657E+01 -0.11842164024E+03  0.12896929045E+03  0.47000000000E+01 0.  1.
         13    1    6    6    0    0 -0.31939984105E+02 -0.31746279033E+02 -0.27665743830E+02  0.52852456884E+02  0.00000000000E+00 0. -1.
        -14    1    6    6    0    0 -0.50551241656E+02  0.44654129724E+02 -0.74851397753E+02  0.10075788346E+03  0.00000000000E+00 0.  1.
</event>
<event>
12    1  0.9017558E-003  0.2317987E+03  0.7818608E-02  0.1125922E+00
         21   -1    0    0  501  502  0.00000000000E+00  0.00000000000E+00  0.17177565570E+03  0.17177565570E+03  0.00000000000E+00 0.  1.
         21   -1    0    0  502  503 -0.00000000000E+00 -0.00000000000E+00 -0.30999169418E+03  0.30999169418E+03  0.00000000000E+00 0. -1.
          6    2    1    2  501    0  0.15434645451E+03  0.66415649586E+01 -0.53680514720E+02  0.23793327426E+03  0.17281118868E+03 0.  0.
         24    2    3    3    0    0  0.46393616602E+02  0.37902352545E+02  0.23501296138E+02  0.10151416277E+03  0.78510243488E+02 0.  0.
         -6    2    1    2    0  503 -0.15434645451E+03 -0.66415649586E+01 -0.84535523761E+02  0.24383407563E+03  0.16864715609E+03 0.  0.
        -24    2    5    5    0    0 -0.21650822150E+02  0.53799079875E+01 -0.70991369160E+02  0.10982593863E+03  0.80772896386E+02 0.  0.
          5    1    3    3  501    0  0.10795283791E+03 -0.31260787587E+02 -0.77181810858E+02  0.13641911149E+03  0.47000000000E+01 0. -1.
        -11    1    4    4    0    0  0.39855033697E+02  0.61796413544E+02  0.13317383982E+02  0.74730001699E+02  0.00000000000E+00 0.  1.
         12    1    4    4    0    0  0.65385829050E+01 -0.23894060998E+02  0.10183912155E+02  0.26784161069E+02  0.00000000000E+00 0. -1.
         -5    1    5    5    0  503 -0.13269563236E+03 -0.12021472946E+02 -0.13544154601E+02  0.13400813700E+03  0.47000000000E+01 0.  1.
         11    1    6    6    0    0 -0.42620279842E+02 -0.21954674463E+02 -0.31238399833E+02  0.57221793127E+02  0.00000000000E+00 0. -1.
        -12    1    6    6    0    0  0.20969457692E+02  0.27334582450E+02 -0.39752969327E+02  0.52604145501E+02  0.00000000000E+00 0.  1.
</event>
<event>
12    1  0.9017558E-003  0.1864478E+03  0.7818608E-02  0.1162062E+00
         21   -1    0    0  503  502  0.00000000000E+00  0.00000000000E+00  0.16083776468E+04  0.16083776468E+04  0.00000000000E+00 0. -1.
         21   -1    0    0  501  503 -0.00000000000E+00 -0.00000000000E+00 -0.22012355784E+02  0.22012355784E+02  0.00000000000E+00 0. -1.
          6    2    1    2  501    0 -0.70271676138E+02 -0.18566440177E+02  0.66441959765E+03  0.69008419657E+03  0.17169733673E+03 0.  0.
         24    2    3    3    0    0 -0.53196144423E+02  0.10425462428E+02  0.64221280791E+03  0.64949681293E+03  0.80438170726E+02 0.  0.
         -6    2    1    2    0  502  0.70271676138E+02  0.18566440177E+02  0.92194569334E+03  0.94030580599E+03  0.17002448690E+03 0.  0.
        -24    2    5    5    0    0  0.80226966402E+02  0.63689851598E+02  0.50151272955E+03  0.51731502938E+03  0.74880293675E+02 0.  0.
          5    1    3    3  501    0 -0.17075531715E+02 -0.28991902605E+02  0.22206789736E+02  0.40587383636E+02  0.47000000000E+01 0. -1.
        -11    1    4    4    0    0 -0.32817785088E+02 -0.29318754384E+02  0.18746872138E+03  0.19256458104E+03  0.00000000000E+00 0.  1.
         12    1    4    4    0    0 -0.20378359335E+02  0.39744216813E+02  0.45474408654E+03  0.45693223189E+03  0.00000000000E+00 0. -1.
         -5    1    5    5    0  502 -0.99552902637E+01 -0.45123411421E+02  0.42043296378E+03  0.42299077661E+03  0.47000000000E+01 0.  1.
         13    1    6    6    0    0  0.25651659144E+02  0.43432717668E+02  0.37093152775E+03  0.37434557144E+03  0.00000000000E+00 0. -1.
        -14    1    6    6    0    0  0.54575307258E+02  0.20257133930E+02  0.13058120181E+03  0.14296945794E+03  0.00000000000E+00 0.  1.
</event>
<event>
12    1  0.9017558E-003  0.1785175E+03  0.7818608E-02  0.1169670E+00
         21   -1    0    0  501  502  0.00000000000E+00  0.00000000000E+00  0.83252014500E+02  0.83252014500E+02  0.00000000000E+00 0.  1.
         21   -1    0    0  502  503 -0.00000000000E+00 -0.00000000000E+00 -0.38632726606E+03  0.38632726606E+03  0.00000000000E+00 0.  1.
          6    2    1    2  501    0  0.38120037575E+02  0.19598375797E+02 -0.12014823449E+03  0.21518386287E+03  0.17329530574E+03 0.  0.
         24    2    3    3    0    0  0.49868212682E+01  0.69492769724E+02 -0.11159185766E+03  0.15449974508E+03  0.81014289493E+02 0.  0.
         -6    2    1    2    0  503 -0.38120037575E+02 -0.19598375797E+02 -0.18292701707E+03  0.25439541769E+03  0.17151530943E+03 0.  0.
        -24    2    5    5    0    0 -0.60813441578E+02 -0.63991365624E+02 -0.15952923948E+03  0.19912088352E+03  0.80039855420E+02 0.  0.
          5    1    3    3  501    0  0.33133216307E+02 -0.49894393927E+02 -0.85563768280E+01  0.60684117796E+02  0.47000000000E+01 0. -1.
        -11    1    4    4    0    0  0.33816571967E+02  0.30396261567E+01 -0.29092300787E+02  0.44711987563E+02  0.00000000000E+00 0.  1.
         12    1    4    4    0    0 -0.28829750699E+02  0.66453143567E+02 -0.82499556875E+02  0.10978775751E+03  0.00000000000E+00 0. -1.
         -5    1    5    5    0  503  0.22693404002E+02  0.44392989827E+02 -0.23397777596E+02  0.55274534167E+02  0.47000000000E+01 0.  1.
         13    1    6    6    0    0 -0.76587501261E+01 -0.16662084422E+02  0.57093937970E+01  0.19206214836E+02  0.00000000000E+00 0. -1.
        -14    1    6    6    0    0 -0.53154691452E+02 -0.47329281202E+02 -0.16523863327E+03  0.17991466869E+03  0.00000000000E+00 0.  1.
</event>
<event>
12    1  0.9017558E-003  0.2354562E+03  0.7818608E-02  0.1122981E+00
         21   -1    0    0  503  502  0.00000000000E+00  0.00000000000E+00  0.12466804164E+04  0.12466804164E+04  0.00000000000E+00 0.  1.
         21   -1    0    0  501  503 -0.00000000000E+00 -0.00000000000E+00 -0.45134084572E+02  0.45134084572E+02  0.00000000000E+00 0.  1.
          6    2    1    2  501    0  0.11642396605E+03 -0.11035464943E+03  0.51382857509E+03  0.56490644159E+03  0.17136742587E+03 0.  0.
         24    2    3    3    0    0  0.76313712083E+02 -0.13534343016E+03  0.46659066220E+03  0.49792299550E+03  0.77966894636E+02 0.  0.
         -6    2    1    2    0  502 -0.11642396605E+03  0.11035464943E+03  0.68771775679E+03  0.72690805943E+03  0.17235697068E+03 0.  0.
        -24    2    5    5    0    0 -0.10930188189E+03  0.14166573477E+02  0.45671906466E+03  0.47653762227E+03  0.79675643868E+02 0.  0.
          5    1    3    3  501    0  0.40110253965E+02  0.24988780729E+02  0.47237912886E+02  0.66983446084E+02  0.47000000000E+01 0. -1.
        -13    1    4    4    0    0  0.15419242813E+02 -0.98731167396E+02  0.31574887364E+03  0.33118415975E+03  0.00000000000E+00 0.  1.
         14    1    4    4    0    0  0.60894469269E+02 -0.36612262765E+02  0.15084178856E+03  0.16673883575E+03  0.00000000000E+00 0. -1.
         -5    1    5    5    0  502 -0.71220841554E+01  0.96188075955E+02  0.23099869212E+03  0.25037043715E+03  0.47000000000E+01 0.  1.
         13    1    6    6    0    0 -0.69356600871E+02 -0.28221968453E+02  0.20732286998E+03  0.22043046524E+03  0.00000000000E+00 0. -1.
        -14    1    6    6    0    0 -0.39945281021E+02  0.42388541931E+02  0.24939619469E+03  0.25610715704E+03  0.00000000000E+00 0.  1.
</event>
<event>
12    1  0.9017558E-003  0.2590495E+03  0.7818608E-02  0.1108169E+00
         21   -1    0    0  501  502  0.00000000000E+00  0.00000000000E+00  0.11486943835E+03  0.11486943835E+03  0.00000000000E+00 0.  1.
         21   -1    0    0  502  503 -0.00000000000E+00 -0.00000000000E+00 -0.66658469422E+03  0.66658469422E+03  0.00000000000E+00 0. -1.
          6    2    1    2  501    0  0.35850390520E+02 -0.18579865379E+03 -0.13439090852E+03  0.29183481158E+03  0.17691876867E+03 0.  0.
         24    2    3    3    0    0  0.81253049205E+01 -0.22594542842E+02 -0.73526775993E+01  0.83112353957E+02  0.79227946876E+02 0.  0.
         -6    2    1    2    0  503 -0.35850390520E+02  0.18579865379E+03 -0.41732434735E+03  0.48961932099E+03  0.17251399463E+03 0.  0.
        -24    2    5    5    0    0  0.24621620851E+02  0.39272336581E+02 -0.11367250717E+03  0.14705056025E+03  0.80956085305E+02 0.  0.
          5    1    3    3  501    0  0.27725085600E+02 -0.16320411094E+03 -0.12703823092E+03  0.20872245762E+03  0.47000000000E+01 0. -1.
        -13    1    4    4    0    0  0.91510891042E+01 -0.51639488796E+02 -0.11679847569E+02  0.53728931444E+02  0.00000000000E+00 0.  1.
         14    1    4    4    0    0 -0.10257841838E+01  0.29044945954E+02  0.43271699695E+01  0.29383422513E+02  0.00000000000E+00 0. -1.
         -5    1    5    5    0  503 -0.60472011372E+02  0.14652631720E+03 -0.30365184018E+03  0.34256876074E+03  0.47000000000E+01 0.  1.
         11    1    6    6    0    0 -0.19215360818E+02 -0.13882381788E+02 -0.21738837431E+02  0.32164074187E+02  0.00000000000E+00 0. -1.
        -12    1    6    6    0    0  0.43836981669E+02  0.53154718370E+02 -0.91933669744E+02  0.11488648606E+03  0.00000000000E+00 0.  1.
</event>
<event>
12    1  0.9017558E-003  0.1716336E+03  0.7818608E-02  0.1176275E+00
         21   -1    0    0  501  502  0.00000000000E+00  0.00000000000E+00  0.59916654558E+02  0.59916654558E+02  0.00000000000E+00 0. -1.
         21   -1    0    0  502  503 -0.00000000000E+00 -0.00000000000E+00 -0.63620877190E+03  0.63620877190E+03  0.00000000000E+00 0. -1.
          6    2    1    2  501    0 -0.46806621580E+01 -0.15169047411E+01 -0.12177281963E+03  0.21044407873E+03  0.17156305277E+03 0.  0.
         24    2    3    3    0    0 -0.64237861727E+02 -0.15203450514E+02 -0.36550629791E+02  0.10547125750E+03  0.73692535811E+02 0.  0.
         -6    2    1    2    0  503  0.46806621580E+01  0.15169047411E+01 -0.45451929772E+03  0.48568134773E+03  0.17109754510E+03 0.  0.
        -24    2    5    5    0    0 -0.63481267329E+01  0.60648377253E+02 -0.35647724068E+03  0.37056184385E+03  0.80756006706E+02 0.  0.
          5    1    3    3  501    0  0.59557199569E+02  0.13686545773E+02 -0.85222189839E+02  0.10497282123E+03  0.47000000000E+01 0. -1.
        -11    1    4    4    0    0 -0.49047056068E+02  0.24947457744E+02 -0.13139959157E+02  0.56574268740E+02  0.00000000000E+00 0.  1.
         12    1    4    4    0    0 -0.15190805660E+02 -0.40150908258E+02 -0.23410670634E+02  0.48896988762E+02  0.00000000000E+00 0. -1.
         -5    1    5    5    0  503  0.11028788891E+02 -0.59131472512E+02 -0.98042057040E+02  0.11511950388E+03  0.47000000000E+01 0.  1.
         11    1    6    6    0    0  0.27664909859E+01 -0.16889996566E+02 -0.27051190388E+02  0.32010816262E+02  0.00000000000E+00 0. -1.
        -12    1    6    6    0    0 -0.91146177188E+01  0.77538373818E+02 -0.32942605029E+03  0.33855102759E+03  0.00000000000E+00 0.  1.
</event>
<event>
12    1  0.9017558E-003  0.2097264E+03  0.7818608E-02  0.1141909E+00
         21   -1    0    0  503  502  0.00000000000E+00  0.00000000000E+00  0.28745627158E+02  0.28745627158E+02  0.00000000000E+00 0. -1.
         21   -1    0    0  501  503 -0.00000000000E+00 -0.00000000000E+00 -0.19387625932E+04  0.19387625932E+04  0.00000000000E+00 0. -1.
          6    2    1    2  501    0  0.12914944829E+02 -0.12120072403E+03 -0.14080436185E+04  0.14234839535E+04  0.16989209248E+03 0.  0.
         24    2    3    3    0    0  0.46825702069E+02 -0.13967075653E+03 -0.10343397854E+04  0.10477610151E+04  0.79017634811E+02 0.  0.
         -6    2    1    2    0  502 -0.12914944829E+02  0.12120072403E+03 -0.50197334760E+03  0.54402426687E+03  0.17067146785E+03 0.  0.
        -24    2    5    5    0    0  0.45419779480E+02  0.34433442503E+02 -0.17546225646E+03  0.20114953196E+03  0.80159294128E+02 0.  0.
          5    1    3    3  501    0 -0.33910757240E+02  0.18470032503E+02 -0.37370383311E+03  0.37572293840E+03  0.47000000000E+01 0. -1.
        -11    1    4    4    0    0  0.15872907649E+02 -0.81792291908E+02 -0.32946213722E+03  0.33983411846E+03  0.00000000000E+00 0.  1.
         12    1    4    4    0    0  0.30952794420E+02 -0.57878464625E+02 -0.70487764814E+03  0.70792689665E+03  0.00000000000E+00 0. -1.
         -5    1    5    5    0  502 -0.58334724309E+02  0.86767281527E+02 -0.32651109114E+03  0.34287473491E+03  0.47000000000E+01 0.  1.
         11    1    6    6    0    0  0.61081391184E+01  0.36532494112E+02 -0.14943266897E+03  0.15395471752E+03  0.00000000000E+00 0. -1.
        -12    1    6    6    0    0  0.39311640361E+02 -0.20990516087E+01 -0.26029587488E+02  0.47194814444E+02  0.00000000000E+00 0.  1.
</event>
<event>
12    1  0.9017558E-003  0.4456513E+03  0.7818608E-02  0.1029106E+00
         21   -1    0    0  501  502  0.00000000000E+00  0.00000000000E+00  0.50089877410E+03  0.50089877410E+03  0.00000000000E+00 0.  1.
         21   -1    0    0  502  503 -0.00000000000E+00 -0.00000000000E+00 -0.49107417573E+03  0.49107417573E+03  0.00000000000E+00 0. -1.
          6    2    1    2  501    0  0.23204150236E+03 -0.33812508137E+03  0.22364288821E+03  0.49768222244E+03  0.17175454469E+03 0.  0.
         24    2    3    3    0    0  0.22113202674E+03 -0.21521543625E+03  0.18286303723E+03  0.36764036854E+03  0.80644236895E+02 0.  0.
         -6    2    1    2    0  503 -0.23204150236E+03  0.33812508137E+03 -0.21381828984E+03  0.49429072739E+03  0.17445123285E+03 0.  0.
        -24    2    5    5    0    0 -0.17365505220E+03  0.33334571525E+03 -0.16521357218E+03  0.41802586994E+03  0.78579007891E+02 0.  0.
          5    1    3    3  501    0  0.10909475623E+02 -0.12290964512E+03  0.40779850973E+02  0.13004185391E+03  0.47000000000E+01 0. -1.
        -13    1    4    4    0    0  0.13940891337E+02 -0.35860056824E+02  0.50009638604E+02  0.63097195500E+02  0.00000000000E+00 0.  1.
         14    1    4    4    0    0  0.20719113540E+03 -0.17935537943E+03  0.13285339863E+03  0.30454317304E+03  0.00000000000E+00 0. -1.
         -5    1    5    5    0  503 -0.58386450156E+02  0.47793661240E+01 -0.48604717656E+02  0.76264857442E+02  0.47000000000E+01 0.  1.
         11    1    6    6    0    0 -0.16419698211E+03  0.26526466877E+03 -0.11337131434E+03  0.33193229482E+03  0.00000000000E+00 0. -1.
        -12    1    6    6    0    0 -0.94580700965E+01  0.68081046473E+02 -0.51842257841E+02  0.86093575120E+02  0.00000000000E+00 0.  1.
</event>
<event>
12    1  0.9017558E-003  0.2608784E+03  0.7818608E-02  0.1106752E+00
         21   -1    0    0  503  502  0.00000000000E+00  0.00000000000E+00  0.15432754334E+03  0.15432754334E+03  0.00000000000E+00 0. -1.
         21   -1    0    0  501  503 -0.00000000000E+00 -0.00000000000E+00 -0.43991715118E+03  0.43991715118E+03  0.00000000000E+00 0.  1.
          6    2    1    2  501    0 -0.47961717850E+02 -0.18940541814E+03 -0.13304433347E+03  0.29204016484E+03  0.17149905076E+03 0.  0.
         24    2    3    3    0    0 -0.38988743363E+02 -0.21421469646E+03 -0.10988431859E+03  0.25662137249E+03  0.79824225992E+02 0.  0.
         -6    2    1    2    0  502  0.47961717850E+02  0.18940541814E+03 -0.15254527437E+03  0.30220452969E+03  0.17286635945E+03 0.  0.
        -24    2    5    5    0    0  0.98820360799E+02  0.12450892467E+03 -0.98208082058E+02  0.20334717338E+03  0.80232845578E+02 0.  0.
          5    1    3    3  501    0 -0.89729744870E+01  0.24809278326E+02 -0.23160014885E+02  0.35418792352E+02  0.47000000000E+01 0. -1.
        -13    1    4    4    0    0 -0.31523202350E+02 -0.35201472668E+02 -0.47240197754E+02  0.66816856019E+02  0.00000000000E+00 0.  1.
         14    1    4    4    0    0 -0.74655410127E+01 -0.17901322380E+03 -0.62644120833E+02  0.18980451647E+03  0.00000000000E+00 0. -1.
         -5    1    5    5    0  502 -0.50858642949E+02  0.64896493472E+02 -0.54337192312E+02  0.98857356307E+02  0.47000000000E+01 0.  1.
         11    1    6    6    0    0  0.51264209668E+02  0.16481001854E+02 -0.72508835632E+01  0.54334316297E+02  0.00000000000E+00 0. -1.
        -12    1    6    6    0    0  0.47556151130E+02  0.10802792281E+03 -0.90957198495E+02  0.14901285708E+03  0.00000000000E+00 0.  1.
</event>
<event>
12    1  0.9017558E-003  0.2090424E+03  0.7818608E-02  0.1145542E+00
         21   -1    0    0  501  502  0.00000000000E+00  0.00000000000E+00  0.15176578636E+03  0.15176578636E+03  0.00000000000E+00 0.  1.
         21   -1    0    0  502  503 -0.00000000000E+00 -0.00000000000E+00 -0.33654756179E+03  0.33654756179E+03  0.00000000000E+00 0.  1.
          6    2    1    2  501    0 -0.69892125628E+02 -0.51238259701E+02  0.15724811882E+02  0.20963295478E+03  0.19023258801E+03 0.  0.
         24    2    3    3    0    0 -0.77185179045E+02 -0.77605554443E+02 -0.44747629039E+02  0.14309402655E+03  0.80581487846E+02 0.  0.
         -6    2    1    2    0  503  0.69892125628E+02  0.51238259701E+02 -0.20050658730E+03  0.27868039337E+03  0.17305953199E+03 0.  0.
        -24    2    5    5    0    0  0.55709653900E+02 -0.24814149058E+02 -0.55118616902E+02  0.11392341075E+03  0.78874419538E+02 0.  0.
          5    1    3    3  501    0  0.72930534175E+01  0.26367294743E+02  0.60472440921E+02  0.66538928239E+02  0.47000000000E+01 0. -1.
        -13    1    4    4    0    0 -0.61815893426E+02 -0.70930358825E+02  0.12965072411E+01  0.94095703484E+02  0.00000000000E+00 0.  1.
         14    1    4    4    0    0 -0.15369285619E+02 -0.66751956185E+01 -0.46044136281E+02  0.48998323061E+02  0.00000000000E+00 0. -1.
         -5    1    5    5    0  503  0.14182471728E+02  0.76052408759E+02 -0.14538797040E+03  0.16475698261E+03  0.47000000000E+01 0.  1.
         11    1    6    6    0    0  0.16734424349E+02  0.20666645058E+02  0.71364182044E+01  0.27533246104E+02  0.00000000000E+00 0. -1.
        -12    1    6    6    0    0  0.38975229551E+02 -0.45480794117E+02 -0.62255035107E+02  0.86390164649E+02  0.00000000000E+00 0.  1.
</event>
<event>
12    1  0.9017558E-003  0.1759974E+03  0.7818608E-02  0.1171877E+00
         21   -1    0    0  503  502  0.00000000000E+00  0.00000000000E+00  0.55541442779E+02  0.55541442779E+02  0.00000000000E+00 0. -1.
         21   -1    0    0  501  503 -0.00000000000E+00 -0.00000000000E+00 -0.57813086279E+03  0.57813086279E+03  0.00000000000E+00 0.  1.
          6    2    1    2  501    0 -0.35139221801E+02  0.15031954310E+00 -0.19872211450E+03  0.26507342823E+03  0.17186813567E+03 0.  0.
         24    2    3    3    0    0 -0.76966944332E+02 -0.39462012816E+02 -0.13332358054E+03  0.17779368550E+03  0.79713590440E+02 0.  0.
         -6    2    1    2    0  502  0.35139221801E+02 -0.15031954310E+00 -0.32386730550E+03  0.36859887733E+03  0.17245380045E+03 0.  0.
        -24    2    5    5    0    0  0.85606945482E+01 -0.66827198786E+02 -0.18276017063E+03  0.21021473087E+03  0.79055633065E+02 0.  0.
          5    1    3    3  501    0  0.41827722531E+02  0.39612332359E+02 -0.65398533962E+02  0.87279742732E+02  0.47000000000E+01 0. -1.
        -13    1    4    4    0    0 -0.74140938323E+01 -0.39633523009E+02 -0.20447798267E+02  0.45209483380E+02  0.00000000000E+00 0.  1.
         14    1    4    4    0    0 -0.69552850499E+02  0.17151019345E+00 -0.11287578227E+03  0.13258420212E+03  0.00000000000E+00 0. -1.
         -5    1    5    5    0  502  0.26578527253E+02  0.66676879243E+02 -0.14110713487E+03  0.15838414646E+03  0.47000000000E+01 0.  1.
         13    1    6    6    0    0 -0.14315709962E+02  0.12945855511E+02 -0.21774482691E+02  0.29097471078E+02  0.00000000000E+00 0. -1.
        -14    1    6    6    0    0  0.22876404511E+02 -0.79773054297E+02 -0.16098568794E+03  0.18111725980E+03  0.00000000000E+00 0.  1.
</event>
<event>
12    1  0.9017558E-003  0.2194488E+03  0.7818608E-02  0.1134374E+00
         21   -1    0    0  503  502  0.00000000000E+00  0.00000000000E+00  0.11535702457E+03  0.11535702457E+03  0.00000000000E+00 0. -1.
         21   -1    0    0  501  503 -0.00000000000E+00 -0.00000000000E+00 -0.57726991910E+03  0.57726991910E+03  0.00000000000E+00 0. -1.
          6    2    1    2  501    0  0.13474399827E+03  0.27267289365E+02 -0.41346313747E+03  0.46789341701E+03  0.17050816254E+03 0.  0.
         24    2    3    3    0    0  0.29639914936E+02  0.64825004582E+02 -0.21266617646E+03  0.23811317448E+03  0.79938573127E+02 0.  0.
         -6    2    1    2    0  502 -0.13474399827E+03 -0.27267289365E+02 -0.48449757065E+02  0.22473352666E+03  0.17105066182E+03 0.  0.
        -24    2    5    5    0    0 -0.86830481887E+02 -0.32626249115E+02 -0.96732766375E+02  0.15633935667E+03  0.80503177802E+02 0.  0.
          5    1    3    3  501    0  0.10510408333E+03 -0.37557715218E+02 -0.20079696101E+03  0.22978024253E+03  0.47000000000E+01 0. -1.
        -11    1    4    4    0    0  0.41120717180E+02  0.58524359622E+02 -0.91006100011E+02  0.11575026691E+03  0.00000000000E+00 0.  1.
         12    1    4    4    0    0 -0.11480802244E+02  0.63006449605E+01 -0.12166007645E+03  0.12236290757E+03  0.00000000000E+00 0. -1.
         -5    1    5    5    0  502 -0.47913516378E+02  0.53589597500E+01  0.48283009310E+02  0.68394169996E+02  0.47000000000E+01 0.  1.
         13    1    6    6    0    0 -0.99663676252E+02 -0.22939768999E+02 -0.66182259653E+02  0.12181614367E+03  0.00000000000E+00 0. -1.
        -14    1    6    6    0    0  0.12833194365E+02 -0.96864801152E+01 -0.30550506722E+02  0.34523212996E+02  0.00000000000E+00 0.  1.
</event>
<event>
12    1  0.9017558E-003  0.2116523E+03  0.7818608E-02  0.1141845E+00
         21   -1    0    0  501  502  0.00000000000E+00  0.00000000000E+00  0.76235134635E+03  0.76235134635E+03  0.00000000000E+00 0. -1.
         21   -1    0    0  502  503 -0.00000000000E+00 -0.00000000000E+00 -0.57404122580E+02  0.57404122580E+02  0.00000000000E+00 0. -1.
          6    2    1    2  501    0 -0.11170510711E+03 -0.32127839385E+02  0.31020742262E+03  0.37553341817E+03  0.17687982954E+03 0.  0.
         24    2    3    3    0    0 -0.61032848058E+02 -0.76890974971E+02  0.26425991042E+03  0.29365130766E+03  0.82222622565E+02 0.  0.
         -6    2    1    2    0  503  0.11170510711E+03  0.32127839385E+02  0.39473980116E+03  0.44422205076E+03  0.16734243559E+03 0.  0.
        -24    2    5    5    0    0  0.10502040810E+03  0.60004902594E+02  0.38877351506E+03  0.41456564464E+03  0.78038152557E+02 0.  0.
          5    1    3    3  501    0 -0.50672259050E+02  0.44763135587E+02  0.45947512198E+02  0.81882110512E+02  0.47000000000E+01 0. -1.
        -13    1    4    4    0    0 -0.81583271772E+01  0.13439649552E+02  0.81839344717E+02  0.83335831586E+02  0.00000000000E+00 0.  1.
         14    1    4    4    0    0 -0.52874520881E+02 -0.90330624523E+02  0.18242056571E+03  0.21031547608E+03  0.00000000000E+00 0. -1.
         -5    1    5    5    0  503  0.66846990079E+01 -0.27877063209E+02  0.59662860963E+01  0.29656406117E+02  0.47000000000E+01 0.  1.
         13    1    6    6    0    0  0.42187996267E+02  0.20176188195E+02  0.27282520323E+03  0.27680407713E+03  0.00000000000E+00 0. -1.
        -14    1    6    6    0    0  0.62832411832E+02  0.39828714399E+02  0.11594831183E+03  0.13776156751E+03  0.00000000000E+00 0.  1.
</event>
<event>
12    1  0.9017558E-003  0.2056712E+03  0.7818608E-02  0.1145470E+00
         21   -1    0    0  501  502  0.00000000000E+00  0.00000000000E+00  0.25743339942E+03  0.25743339942E+03  0.00000000000E+00 0. -1.
         21   -1    0    0  502  503 -0.00000000000E+00 -0.00000000000E+00 -0.19471000119E+03  0.19471000119E+03  0.00000000000E+00 0.  1.
          6    2    1    2  501    0 -0.10284721416E+02  0.10765978537E+03  0.12324101946E+03  0.23976859231E+03  0.17494063022E+03 0.  0.
         24    2    3    3    0    0 -0.15331813648E+01  0.14367861719E+03  0.79453127430E+02  0.18220632006E+03  0.78996505799E+02 0.  0.
         -6    2    1    2    0  503  0.10284721416E+02 -0.10765978537E+03 -0.60517621229E+02  0.21237480830E+03  0.17246527721E+03 0.  0.
        -24    2    5    5    0    0  0.22917121605E+01  0.83171681294E+01 -0.54650863436E+02  0.95879955251E+02  0.78305949419E+02 0.  0.
          5    1    3    3  501    0 -0.87515400507E+01 -0.36018831815E+02  0.43787892028E+02  0.57562272253E+02  0.47000000000E+01 0. -1.
        -11    1    4    4    0    0 -0.24145263995E+02  0.67828834616E+01  0.94975083487E+01  0.26817978042E+02  0.00000000000E+00 0.  1.
         12    1    4    4    0    0  0.22612082630E+02  0.13689573373E+03  0.69955619081E+02  0.15538834202E+03  0.00000000000E+00 0. -1.
         -5    1    5    5    0  503  0.79930092550E+01 -0.11597695350E+03 -0.58667577931E+01  0.11649485305E+03  0.47000000000E+01 0.  1.
         11    1    6    6    0    0  0.28706747079E+02  0.14275327237E+02 -0.60231094838E+02  0.68232302328E+02  0.00000000000E+00 0. -1.
        -12    1    6    6    0    0 -0.26415034918E+02 -0.59581591072E+01  0.55802314021E+01  0.27647652923E+02  0.00000000000E+00 0.  1.
</event>
<event>
12    1  0.9017558E-003  0.1895689E+03  0.7818608E-02  0.1160839E+00
         21   -1    0    0  501  502  0.00000000000E+00  0.00000000000E+00  0.72657887820E+02  0.72657887820E+02  0.00000000000E+00 0. -1.
         21   -1    0    0  502  503 -0.00000000000E+00 -0.00000000000E+00 -0.48107537308E+03  0.48107537308E+03  0.00000000000E+00 0. -1.
          6    2    1    2  501    0  0.55873289800E+01 -0.75058707423E+02 -0.17183133254E+03  0.25585618702E+03  0.17398664830E+03 0.  0.
         24    2    3    3    0    0 -0.19588017651E+02 -0.48253621918E+01 -0.16057081644E+03  0.18025585578E+03  0.79386471745E+02 0.  0.
         -6    2    1    2    0  503 -0.55873289800E+01  0.75058707423E+02 -0.23658615272E+03  0.29787707389E+03  0.16459865030E+03 0.  0.
        -24    2    5    5    0    0  0.27434285087E+02  0.29996250980E+01 -0.66374444763E+02  0.11005520650E+03  0.83336329484E+02 0.  0.
          5    1    3    3  501    0  0.25175346631E+02 -0.70233345231E+02 -0.11260516106E+02  0.75600331238E+02  0.47000000000E+01 0. -1.
        -13    1    4    4    0    0  0.10464509005E+02 -0.34314448106E+02 -0.10197773313E+03  0.10810386372E+03  0.00000000000E+00 0.  1.
         14    1    4    4    0    0 -0.30052526656E+02  0.29489085914E+02 -0.58593083312E+02  0.72151992061E+02  0.00000000000E+00 0. -1.
         -5    1    5    5    0  503 -0.33021614067E+02  0.72059082325E+02 -0.17021170796E+03  0.18782186738E+03  0.47000000000E+01 0.  1.
         11    1    6    6    0    0  0.46129557869E+02  0.19547495425E+02 -0.68647115309E+02  0.84985099440E+02  0.00000000000E+00 0. -1.
        -12    1    6    6    0    0 -0.18695272782E+02 -0.16547870327E+02  0.22726705460E+01  0.25070107063E+02  0.00000000000E+00 0.  1.
</event>
<event>
12    1  0.9017558E-003  0.2108642E+03  0.7818608E-02  0.1141351E+00
         21   -1    0    0  501  502  0.00000000000E+00  0.00000000000E+00  0.27197711820E+03  0.27197711820E+03  0.00000000000E+00 0. -1.
         21   -1    0    0  502  503 -0.00000000000E+00 -0.00000000000E+00 -0.17890195290E+03  0.17890195290E+03  0.00000000000E+00 0.  1.
          6    2    1    2  501    0 -0.12031982293E+03 -0.18628532745E+02  0.11628609814E+03  0.23874123133E+03  0.16926617174E+03 0.  0.
         24    2    3    3    0    0 -0.91203111316E+02 -0.95204459622E+01  0.14997364133E+03  0.19305008662E+03  0.79797220782E+02 0.  0.
         -6    2    1    2    0  503  0.12031982293E+03  0.18628532745E+02 -0.23210932845E+02  0.21213783977E+03  0.17216223057E+03 0.  0.
        -24    2    5    5    0    0  0.59467885410E+02  0.35212967875E+02 -0.77156584092E+02  0.12901007619E+03  0.76903047983E+02 0.  0.
          5    1    3    3  501    0 -0.29116711612E+02 -0.91080867829E+01 -0.33687543183E+02  0.45691144718E+02  0.47000000000E+01 0. -1.
        -11    1    4    4    0    0 -0.21781015703E+02 -0.35760182638E+02  0.28332779745E+02  0.50556401330E+02  0.00000000000E+00 0.  1.
         12    1    4    4    0    0 -0.69422095612E+02  0.26239736675E+02  0.12164086158E+03  0.14249368529E+03  0.00000000000E+00 0. -1.
         -5    1    5    5    0  503  0.60851937517E+02 -0.16584435130E+02  0.53945651246E+02  0.83127763572E+02  0.47000000000E+01 0.  1.
         13    1    6    6    0    0 -0.18697601316E+02  0.38249356943E+01 -0.16230973557E+02  0.25053441493E+02  0.00000000000E+00 0. -1.
        -14    1    6    6    0    0  0.78165486726E+02  0.31388032181E+02 -0.60925610534E+02  0.10395663470E+03  0.00000000000E+00 0.  1.
</event>
<event>
12    1  0.9017558E-003  0.1937525E+03  0.7818608E-02  0.1155171E+00
         21   -1    0    0  501  502  0.00000000000E+00  0.00000000000E+00  0.76293521470E+02  0.76293521470E+02  0.00000000000E+00 0. -1.
         21   -1    0    0  502  503 -0.00000000000E+00 -0.00000000000E+00 -0.49425584737E+03  0.49425584737E+03  0.00000000000E+00 0. -1.
          6    2    1    2  501    0 -0.80051328035E+02  0.40925970937E+02 -0.18738754630E+03  0.26937708207E+03  0.17136735283E+03 0.  0.
         24    2    3    3    0    0 -0.61511495052E+02 -0.47368029023E+02 -0.11056833884E+03  0.15079025113E+03  0.66969755005E+02 0.  0.
         -6    2    1    2    0  503  0.80051328035E+02 -0.40925970937E+02 -0.23057477960E+03  0.30117228678E+03  0.17163002976E+03 0.  0.
        -24    2    5    5    0    0  0.10895994764E+03  0.75451369762E+01 -0.17635162650E+03  0.22276694945E+03  0.81215874774E+02 0.  0.
          5    1    3    3  501    0 -0.18539832983E+02  0.88293999960E+02 -0.76819207459E+02  0.11858683093E+03  0.47000000000E+01 0. -1.
        -13    1    4    4    0    0  0.41964343310E+01 -0.23000974068E+02 -0.47318867313E+01  0.23854677135E+02  0.00000000000E+00 0.  1.
         14    1    4    4    0    0 -0.65707929383E+02 -0.24367054955E+02 -0.10583645211E+03  0.12693557400E+03  0.00000000000E+00 0. -1.
         -5    1    5    5    0  503 -0.28908619603E+02 -0.48471107913E+02 -0.54223153100E+02  0.78405337330E+02  0.47000000000E+01 0.  1.
         11    1    6    6    0    0  0.75054970151E+02  0.43187875965E+02 -0.11969719021E+03  0.14773577264E+03  0.00000000000E+00 0. -1.
        -12    1    6    6    0    0  0.33904977486E+02 -0.35642738989E+02 -0.56654436294E+02  0.75031176805E+02  0.00000000000E+00 0.  1.
</event>
<event>
12    1  0.9017558E-003  0.1836331E+03  0.7818608E-02  0.1164428E+00
         21   -1    0    0  501  502  0.00000000000E+00  0.00000000000E+00  0.25354342367E+03  0.25354342367E+03  0.00000000000E+00 0.  1.
         21   -1    0    0  502  503 -0.00000000000E+00 -0.00000000000E+00 -0.14606279516E+03  0.14606279516E+03  0.00000000000E+00 0.  1.
          6    2    1    2  501    0  0.57482991134E+02  0.28985099899E+02  0.11410663888E+03  0.21585359190E+03  0.17154596414E+03 0.  0.
         24    2    3    3    0    0  0.33886403703E+02 -0.46420507081E+02  0.88106340899E+02  0.13254146795E+03  0.80631021236E+02 0.  0.
         -6    2    1    2    0  503 -0.57482991134E+02 -0.28985099899E+02 -0.66260103710E+01  0.18375262693E+03  0.17197875916E+03 0.  0.
        -24    2    5    5    0    0 -0.52436587657E+02 -0.50214333556E+02 -0.61560415870E+02  0.12445654394E+03  0.80178996682E+02 0.  0.
          5    1    3    3  501    0  0.23596587431E+02  0.75405606981E+02  0.26000297981E+02  0.83312123954E+02  0.47000000000E+01 0. -1.
        -13    1    4    4    0    0 -0.20698511793E+01  0.13251493492E+02  0.52725007514E+02  0.54404161431E+02  0.00000000000E+00 0.  1.
         14    1    4    4    0    0  0.35956254883E+02 -0.59672000574E+02  0.35381333385E+02  0.78137306517E+02  0.00000000000E+00 0. -1.
         -5    1    5    5    0  503 -0.50464034771E+01  0.21229233656E+02  0.54934405499E+02  0.59296082984E+02  0.47000000000E+01 0.  1.
         13    1    6    6    0    0 -0.15181246844E+02 -0.13037381000E+01  0.18208424017E+02  0.23742718756E+02  0.00000000000E+00 0. -1.
        -14    1    6    6    0    0 -0.37255340813E+02 -0.48910595456E+02 -0.79768839887E+02  0.10071382519E+03  0.00000000000E+00 0.  1.
</event>
<event>
12    1  0.9017558E-003  0.1738625E+03  0.7818608E-02  0.1174257E+00
         21   -1    0    0  503  502  0.00000000000E+00  0.00000000000E+00  0.49893539602E+03  0.49893539602E+03  0.00000000000E+00 0. -1.
         21   -1    0    0  501  503 -0.00000000000E+00 -0.00000000000E+00 -0.66547674773E+02  0.66547674773E+02  0.00000000000E+00 0. -1.
          6    2    1    2  501    0  0.87858020487E+01 -0.90880122303E+01  0.12880656885E+03  0.21637769191E+03  0.17340239645E+03 0.  0.
         24    2    3    3    0    0  0.57091052088E+02 -0.23411089334E+02  0.13139208677E+03  0.16570893801E+03  0.79925617519E+02 0.  0.
         -6    2    1    2    0  502 -0.87858020487E+01  0.90880122303E+01  0.30358115240E+03  0.34910537889E+03  0.17191063722E+03 0.  0.
        -24    2    5    5    0    0 -0.30361912624E+02 -0.45794244567E+02  0.25206291254E+03  0.27065915719E+03  0.81863965969E+02 0.  0.
          5    1    3    3  501    0 -0.48305250039E+02  0.14323077103E+02 -0.25855179278E+01  0.50668753902E+02  0.47000000000E+01 0. -1.
        -11    1    4    4    0    0 -0.12337235935E+02 -0.39086637871E+01 -0.29146292716E+01  0.13265749391E+02  0.00000000000E+00 0.  1.
         12    1    4    4    0    0  0.69428288023E+02 -0.19502425547E+02  0.13430671605E+03  0.15244318861E+03  0.00000000000E+00 0. -1.
         -5    1    5    5    0  502  0.21576110575E+02  0.54882256798E+02  0.51518239865E+02  0.78446221691E+02  0.47000000000E+01 0.  1.
         11    1    6    6    0    0 -0.49484460824E+02 -0.10872965954E+02  0.85323588943E+02  0.99232293543E+02  0.00000000000E+00 0. -1.
        -12    1    6    6    0    0  0.19122548200E+02 -0.34921278613E+02  0.16673932359E+03  0.17142686365E+03  0.00000000000E+00 0.  1.
</event>
<event>
12    1  0.9017558E-003  0.1992947E+03  0.7818608E-02  0.1151451E+00
         21   -1    0    0  503  502  0.00000000000E+00  0.00000000000E+00  0.18238384683E+03  0.18238384683E+03  0.00000000000E+00 0.  1.
         21   -1    0    0  501  503 -0.00000000000E+00 -0.00000000000E+00 -0.22801745232E+03  0.22801745232E+03  0.00000000000E+00 0.  1.
          6    2    1    2  501    0  0.26752589877E+02 -0.98040328845E+02 -0.76683158264E+02  0.20870237058E+03  0.16537462194E+03 0.  0.
         24    2    3    3    0    0 -0.11827235762E+02  0.69290532171E+01 -0.27794523054E+02  0.86558345885E+02  0.80820272496E+02 0.  0.
         -6    2    1    2    0  502 -0.26752589877E+02  0.98040328845E+02  0.31049552774E+02  0.20169892856E+03  0.17143738190E+03 0.  0.
        -24    2    5    5    0    0 -0.31052254276E+02 -0.25322459711E+01 -0.20288726021E+02  0.88601453841E+02  0.80423444678E+02 0.  0.
          5    1    3    3  501    0  0.38579825638E+02 -0.10496938206E+03 -0.48888635209E+02  0.12214402470E+03  0.47000000000E+01 0. -1.
        -13    1    4    4    0    0  0.52369285814E+01 -0.31054035040E+02 -0.31763895998E+02  0.44729448937E+02  0.00000000000E+00 0.  1.
         14    1    4    4    0    0 -0.17064164343E+02  0.37983088257E+02  0.39693729440E+01  0.41828896948E+02  0.00000000000E+00 0. -1.
         -5    1    5    5    0  502  0.42996644000E+01  0.10057257482E+03  0.51338278794E+02  0.11309747472E+03  0.47000000000E+01 0.  1.
         11    1    6    6    0    0  0.88038816709E+00  0.34260159724E+02 -0.20401034855E+02  0.39884030022E+02  0.00000000000E+00 0. -1.
        -12    1    6    6    0    0 -0.31932642444E+02 -0.36792405695E+02  0.11230883416E+00  0.48717423819E+02  0.00000000000E+00 0.  1.
</event>
<event>
12    1  0.9017558E-003  0.2327331E+03  0.7818608E-02  0.1124930E+00
         21   -1    0    0  503  502  0.00000000000E+00  0.00000000000E+00  0.18166545082E+04  0.18166545082E+04  0.00000000000E+00 0.  1.
         21   -1    0    0  501  503 -0.00000000000E+00 -0.00000000000E+00 -0.29988316120E+02  0.29988316120E+02  0.00000000000E+00 0.  1.
          6    2    1    2  501    0 -0.13716427980E+03  0.76180770122E+02  0.98647067303E+03  0.10132896154E+04  0.17033468955E+03 0.  0.
         24    2    3    3    0    0 -0.40136889565E+02 -0.25796849350E+02  0.39443393699E+03  0.40473120720E+03  0.77154209790E+02 0.  0.
         -6    2    1    2    0  502  0.13716427980E+03 -0.76180770122E+02  0.80019551902E+03  0.83335320893E+03  0.17189285262E+03 0.  0.
        -24    2    5    5    0    0  0.15055207207E+02 -0.52761818723E+02  0.49110065614E+03  0.50015537407E+03  0.77233897818E+02 0.  0.
          5    1    3    3  501    0 -0.97027390235E+02  0.10197761947E+03  0.59203673604E+03  0.60855840817E+03  0.47000000000E+01 0. -1.
        -11    1    4    4    0    0 -0.38595460625E+02  0.35416581514E+01  0.34541379285E+03  0.34758141667E+03  0.00000000000E+00 0.  1.
         12    1    4    4    0    0 -0.15414289395E+01 -0.29338507502E+02  0.49020144139E+02  0.57149790525E+02  0.00000000000E+00 0. -1.
         -5    1    5    5    0  502  0.12210907259E+03 -0.23418951399E+02  0.30909486288E+03  0.33319783486E+03  0.47000000000E+01 0.  1.
         13    1    6    6    0    0 -0.18362315185E+00  0.54434361819E+01  0.29458529553E+03  0.29463564119E+03  0.00000000000E+00 0. -1.
        -14    1    6    6    0    0  0.15238830359E+02 -0.58205254905E+02  0.19651536061E+03  0.20551973288E+03  0.00000000000E+00 0.  1.
</event>
<event>
12    1  0.9017558E-003  0.1731364E+03  0.7818608E-02  0.1174682E+00
         21   -1    0    0  503  502  0.00000000000E+00  0.00000000000E+00  0.15186416003E+03  0.15186416003E+03  0.00000000000E+00 0. -1.
         21   -1    0    0  501  503 -0.00000000000E+00 -0.00000000000E+00 -0.43454830988E+03  0.43454830988E+03  0.00000000000E+00 0. -1.
          6    2    1    2  501    0 -0.15251711725E+02 -0.16841987269E+02 -0.35803713144E+03  0.39758904759E+03  0.17137734982E+03 0.  0.
         24    2    3    3    0    0  0.33292987095E+02 -0.67888947076E+02 -0.23724731801E+03  0.25767961647E+03  0.66296023382E+02 0.  0.
         -6    2    1    2    0  502  0.15251711725E+02  0.16841987269E+02  0.75352981584E+02  0.18882342232E+03  0.17163899830E+03 0.  0.
        -24    2    5    5    0    0 -0.20785239719E+02 -0.17853824962E+02 -0.18262010097E+02  0.82576926269E+02  0.75727554321E+02 0.  0.
          5    1    3    3  501    0 -0.48544698819E+02  0.51046959807E+02 -0.12078981343E+03  0.13990943113E+03  0.47000000000E+01 0. -1.
        -13    1    4    4    0    0  0.25916165533E+02 -0.50051555740E+01 -0.25621410395E+02  0.36785267280E+02  0.00000000000E+00 0.  1.
         14    1    4    4    0    0  0.73768215618E+01 -0.62883791502E+02 -0.21162590761E+03  0.22089434919E+03  0.00000000000E+00 0. -1.
         -5    1    5    5    0  502  0.36036951443E+02  0.34695812231E+02  0.93614991681E+02  0.10624649605E+03  0.47000000000E+01 0.  1.
         13    1    6    6    0    0 -0.24636775518E+02 -0.55683320272E+01  0.26137945010E+02  0.36347891257E+02  0.00000000000E+00 0. -1.
        -14    1    6    6    0    0  0.38515357997E+01 -0.12285492935E+02 -0.44399955107E+02  0.46229035012E+02  0.00000000000E+00 0.  1.
</event>
<event>
12    1  0.9017558E-003  0.1873712E+03  0.7818608E-02  0.1160972E+00
         21   -1    0    0  503  502  0.00000000000E+00  0.00000000000E+00  0.43301181550E+03  0.43301181550E+03  0.00000000000E+00 0. -1.
         21   -1    0    0  501  503 -0.00000000000E+00 -0.00000000000E+00 -0.10346042612E+03  0.10346042612E+03  0.00000000000E+00 0. -1.
          6    2    1    2  501    0 -0.72301292880E+02 -0.12397272761E+02  0.39222037600E+02  0.19093048568E+03  0.17185724542E+03 0.  0.
         24    2    3    3    0    0 -0.71622845032E+02 -0.22789313213E+02  0.88040018521E+02  0.14079327337E+03  0.80140602936E+02 0.  0.
         -6    2    1    2    0  502  0.72301292880E+02  0.12397272761E+02  0.29032935178E+03  0.34554175594E+03  0.17241462603E+03 0.  0.
        -24    2    5    5    0    0  0.11542531397E+02 -0.53630165650E+02  0.16875094545E+03  0.19436421593E+03  0.79316720450E+02 0.  0.
          5    1    3    3  501    0 -0.67844784757E+00  0.10392040452E+02 -0.48817980921E+02  0.50137212302E+02  0.47000000000E+01 0. -1.
        -13    1    4    4    0    0 -0.82488187262E+02 -0.23412808953E+01  0.50686136333E+02  0.96844550959E+02  0.00000000000E+00 0.  1.
         14    1    4    4    0    0  0.10865342230E+02 -0.20448032317E+02  0.37353882187E+02  0.43948722415E+02  0.00000000000E+00 0. -1.
         -5    1    5    5    0  502  0.60758761483E+02  0.66027438411E+02  0.12157840633E+03  0.15117754002E+03  0.47000000000E+01 0.  1.
         11    1    6    6    0    0  0.38397014492E+02 -0.13919461885E+02  0.11651072539E+03  0.12346186161E+03  0.00000000000E+00 0. -1.
        -12    1    6    6    0    0 -0.26854483094E+02 -0.39710703764E+02  0.52240220066E+02  0.70902354321E+02  0.00000000000E+00 0.  1.
</event>
<event>
12    1  0.9017558E-003  0.1839911E+03  0.7818608E-02  0.1164069E+00
         21   -1    0    0  501  502  0.00000000000E+00  0.00000000000E+00  0.15637690187E+03  0.15637690187E+03  0.00000000000E+00 0. -1.
         21   -1    0    0  502  503 -0.00000000000E+00 -0.00000000000E+00 -0.35188029691E+03  0.35188029691E+03  0.00000000000E+00 0. -1.
          6    2    1    2  501    0  0.24142654686E+02  0.60556304668E+02  0.60152861732E+02  0.19327646783E+03  0.17171922558E+03 0.  0.
         24    2    3    3    0    0  0.98623678416E+01 -0.23467781838E+02 -0.61620253971E+01  0.85185173270E+02  0.81058868141E+02 0.  0.
         -6    2    1    2    0  503 -0.24142654686E+02 -0.60556304668E+02 -0.25565625676E+03  0.31498073095E+03  0.17205465828E+03 0.  0.
        -24    2    5    5    0    0 -0.35761940914E+02 -0.16301520853E+02 -0.47008611749E+02  0.10132347394E+03  0.80696844993E+02 0.  0.
          5    1    3    3  501    0  0.14280286844E+02  0.84024086506E+02  0.66314887129E+02  0.10809129456E+03  0.47000000000E+01 0. -1.
        -13    1    4    4    0    0 -0.49435381432E+00 -0.13232778839E+02 -0.43308033542E+02  0.45287267424E+02  0.00000000000E+00 0.  1.
         14    1    4    4    0    0  0.10356721656E+02 -0.10235002999E+02  0.37146008144E+02  0.39897905846E+02  0.00000000000E+00 0. -1.
         -5    1    5    5    0  503  0.11619286228E+02 -0.44254783815E+02 -0.20864764502E+03  0.21365725701E+03  0.47000000000E+01 0.  1.
         11    1    6    6    0    0 -0.50533790341E+02 -0.38197422319E+02 -0.33174737851E+02  0.71507134396E+02  0.00000000000E+00 0. -1.
        -12    1    6    6    0    0  0.14771849427E+02  0.21895901467E+02 -0.13833873898E+02  0.29816339540E+02  0.00000000000E+00 0.  1.
</event>
<event>
12    1  0.9017558E-003  0.2343375E+03  0.7818608E-02  0.1123672E+00
         21   -1    0    0  503  502  0.00000000000E+00  0.00000000000E+00  0.21511226378E+04  0.21511226378E+04  0.00000000000E+00 0. -1.
         21   -1    0    0  501  503 -0.00000000000E+00 -0.00000000000E+00 -0.25799648256E+02  0.25799648256E+02  0.00000000000E+00 0. -1.
          6    2    1    2  501    0  0.15464419345E+03  0.36414643416E+02  0.94548246138E+03  0.97408990670E+03  0.17225913248E+03 0.  0.
         24    2    3    3    0    0  0.16612248841E+03  0.64780646754E+02  0.88287393233E+03  0.90424508362E+03  0.79997359399E+02 0.  0.
         -6    2    1    2    0  502 -0.15464419345E+03 -0.36414643416E+02  0.11798405281E+04  0.12028323793E+04  0.17187555999E+03 0.  0.
        -24    2    5    5    0    0 -0.15745912294E+03 -0.55070241419E+02  0.74730331741E+03  0.76985838031E+03  0.79959806427E+02 0.  0.
          5    1    3    3  501    0 -0.11478294961E+02 -0.28366003338E+02  0.62608529053E+02  0.69844823078E+02  0.47000000000E+01 0. -1.
        -11    1    4    4    0    0  0.35731473930E+02  0.52336546131E+02  0.24511064042E+03  0.25317005814E+03  0.00000000000E+00 0.  1.
         12    1    4    4    0    0  0.13039101448E+03  0.12444100623E+02  0.63776329191E+03  0.65107502548E+03  0.00000000000E+00 0. -1.
         -5    1    5    5    0  502  0.28149294885E+01  0.18655598003E+02  0.43253721073E+03  0.43297399902E+03  0.47000000000E+01 0.  1.
         13    1    6    6    0    0 -0.12641517209E+03 -0.11626678584E+02  0.59711598829E+03  0.61046169320E+03  0.00000000000E+00 0. -1.
        -14    1    6    6    0    0 -0.31043950846E+02 -0.43443562836E+02  0.15018732911E+03  0.15939668711E+03  0.00000000000E+00 0.  1.
</event>
<event>
12    1  0.9017558E-003  0.1921563E+03  0.7818608E-02  0.1156601E+00
         21   -1    0    0  503  502  0.00000000000E+00  0.00000000000E+00  0.15289572908E+03  0.15289572908E+03  0.00000000000E+00 0. -1.
         21   -1    0    0  501  503 -0.00000000000E+00 -0.00000000000E+00 -0.31014759728E+03  0.31014759728E+03  0.00000000000E+00 0. -1.
          6    2    1    2  501    0 -0.50525086285E+02 -0.70469193922E+02 -0.18781338587E+03  0.26847184434E+03  0.17112735508E+03 0.  0.
         24    2    3    3    0    0 -0.14752579156E+02 -0.22485376108E+02 -0.14880562868E+02  0.85414557380E+02  0.79693065763E+02 0.  0.
         -6    2    1    2    0  502  0.50525086285E+02  0.70469193922E+02  0.30561517663E+02  0.19457148202E+03  0.17147992191E+03 0.  0.
        -24    2    5    5    0    0 -0.37006475391E+02  0.41409777882E+02  0.13267382465E+01  0.97705666186E+02  0.80376539147E+02 0.  0.
          5    1    3    3  501    0 -0.35772507129E+02 -0.47983817814E+02 -0.17293282300E+03  0.18305728696E+03  0.47000000000E+01 0. -1.
        -11    1    4    4    0    0  0.18087478879E+02 -0.37984148100E+02  0.75342994273E+01  0.42740122449E+02  0.00000000000E+00 0.  1.
         12    1    4    4    0    0 -0.32840058035E+02  0.15498771992E+02 -0.22414862295E+02  0.42674434931E+02  0.00000000000E+00 0. -1.
         -5    1    5    5    0  502  0.87531561676E+02  0.29059416040E+02  0.29234779416E+02  0.96865815836E+02  0.47000000000E+01 0.  1.
         13    1    6    6    0    0  0.48033213171E+01  0.27922851299E+02  0.33039247150E+02  0.43524124030E+02  0.00000000000E+00 0. -1.
        -14    1    6    6    0    0 -0.41809796708E+02  0.13486926583E+02 -0.31712508903E+02  0.54181542156E+02  0.00000000000E+00 0.  1.
</event>
<event>
12    1  0.9017558E-003  0.3683815E+03  0.7818608E-02  0.1055403E+00
         21   -1    0    0  501  502  0.00000000000E+00  0.00000000000E+00  0.31726721211E+03  0.31726721211E+03  0.00000000000E+00 0.  1.
         21   -1    0    0  502  503 -0.00000000000E+00 -0.00000000000E+00 -0.45318784021E+03  0.45318784021E+03  0.00000000000E+00 0. -1.
          6    2    1    2  501    0  0.17729575214E+03  0.27231207510E+03 -0.16125150881E+03  0.40212805354E+03  0.17354328676E+03 0.  0.
         24    2    3    3    0    0  0.20281095052E+03  0.23275490297E+03 -0.12334328433E+03  0.34150694584E+03  0.78142829250E+02 0.  0.
         -6    2    1    2    0  503 -0.17729575214E+03 -0.27231207510E+03  0.25330880710E+02  0.36832699877E+03  0.17156769665E+03 0.  0.
        -24    2    5    5    0    0 -0.15051600805E+03 -0.20620667627E+03 -0.41082254747E+02  0.27075716220E+03  0.80283418016E+02 0.  0.
          5    1    3    3  501    0 -0.25515198379E+02  0.39557172136E+02 -0.37908224480E+02  0.60621107701E+02  0.47000000000E+01 0. -1.
        -13    1    4    4    0    0  0.85732388704E+02  0.14871907989E+03 -0.44945747414E+02  0.17744725246E+03  0.00000000000E+00 0.  1.
         14    1    4    4    0    0  0.11707856182E+03  0.84035823079E+02 -0.78397536918E+02  0.16405969338E+03  0.00000000000E+00 0. -1.
         -5    1    5    5    0  503 -0.26779744090E+02 -0.66105398829E+02  0.66413135456E+02  0.97569836574E+02  0.47000000000E+01 0.  1.
         11    1    6    6    0    0 -0.15767752167E+03 -0.20651449886E+03 -0.36836333286E+02  0.26242590293E+03  0.00000000000E+00 0. -1.
        -12    1    6    6    0    0  0.71615136160E+01  0.30782258412E+00 -0.42459214611E+01  0.83312592727E+01  0.00000000000E+00 0.  1.
</event>
<event>
12    1  0.9017558E-003  0.1820649E+03  0.7818608E-02  0.1166061E+00
         21   -1    0    0  503  502  0.00000000000E+00  0.00000000000E+00  0.43146066110E+02  0.43146066110E+02  0.00000000000E+00 0. -1.
         21   -1    0    0  501  503 -0.00000000000E+00 -0.00000000000E+00 -0.94387014668E+03  0.94387014668E+03  0.00000000000E+00 0. -1.
          6    2    1    2  501    0  0.57553385764E+02  0.28870042660E+01 -0.66478005116E+03  0.68899402917E+03  0.17163778372E+03 0.  0.
         24    2    3    3    0    0  0.77235885213E+02  0.15137905679E+02 -0.24666025677E+03  0.27020561263E+03  0.77299758540E+02 0.  0.
         -6    2    1    2    0  502 -0.57553385764E+02 -0.28870042660E+01 -0.23594402941E+03  0.29802218362E+03  0.17270468989E+03 0.  0.
        -24    2    5    5    0    0 -0.86044758304E+02  0.87414057359E+01 -0.23939037439E+03  0.26670213378E+03  0.79637705942E+02 0.  0.
          5    1    3    3  501    0 -0.19682499449E+02 -0.12250901413E+02 -0.41811979439E+03  0.41878841654E+03  0.47000000000E+01 0. -1.
        -13    1    4    4    0    0  0.46139132587E+02 -0.30165070845E+02 -0.11456175167E+03  0.12713436199E+03  0.00000000000E+00 0.  1.
         14    1    4    4    0    0  0.31096752626E+02  0.45302976524E+02 -0.13209850511E+03  0.14307125063E+03  0.00000000000E+00 0. -1.
         -5    1    5    5    0  502  0.28491372540E+02 -0.11628410002E+02  0.34463449804E+01  0.31320049842E+02  0.47000000000E+01 0.  1.
         13    1    6    6    0    0 -0.85791638114E+02  0.27449799029E+02 -0.14673711792E+03  0.17217862356E+03  0.00000000000E+00 0. -1.
        -14    1    6    6    0    0 -0.25312018996E+00 -0.18708393293E+02 -0.92653256471E+02  0.94523510219E+02  0.00000000000E+00 0.  1.
</event>
<event>
12    1  0.9017558E-003  0.1786563E+03  0.7818608E-02  0.1169354E+00
         21   -1    0    0  503  502  0.00000000000E+00  0.00000000000E+00  0.39734166109E+02  0.39734166109E+02  0.00000000000E+00 0.  1.
         21   -1    0    0  501  503 -0.00000000000E+00 -0.00000000000E+00 -0.80427800478E+03  0.80427800478E+03  0.00000000000E+00 0. -1.
          6    2    1    2  501    0  0.26257883238E+02 -0.45902323418E+02 -0.34856146527E+03  0.39167994877E+03  0.17065048336E+03 0.  0.
         24    2    3    3    0    0 -0.32888997162E+02  0.65722250061E+01 -0.10719607209E+03  0.13764988221E+03  0.79571426558E+02 0.  0.
         -6    2    1    2    0  502 -0.26257883238E+02  0.45902323418E+02 -0.41598237340E+03  0.45233222211E+03  0.16960720639E+03 0.  0.
        -24    2    5    5    0    0  0.18205477030E+02  0.25713415288E+01 -0.35838580011E+03  0.36751465523E+03  0.79300623563E+02 0.  0.
          5    1    3    3  501    0  0.59146880400E+02 -0.52474548425E+02 -0.24136539318E+03  0.25403006656E+03  0.47000000000E+01 0. -1.
        -11    1    4    4    0    0  0.21786398805E+02 -0.56452150032E+01 -0.82998877318E+01  0.23987575152E+02  0.00000000000E+00 0.  1.
         12    1    4    4    0    0 -0.54675395967E+02  0.12217440009E+02 -0.98896184362E+02  0.11366230706E+03  0.00000000000E+00 0. -1.
         -5    1    5    5    0  502 -0.44463360267E+02  0.43330981890E+02 -0.57596573288E+02  0.84817566885E+02  0.47000000000E+01 0.  1.
         13    1    6    6    0    0  0.21325103877E+02  0.11449007942E+02 -0.28067857811E+02  0.37062710105E+02  0.00000000000E+00 0. -1.
        -14    1    6    6    0    0 -0.31196268473E+01 -0.88776664131E+01 -0.33031794230E+03  0.33045194512E+03  0.00000000000E+00 0.  1.
</event>
<event>
12    1  0.9017558E-003  0.1746099E+03  0.7818608E-02  0.1173186E+00
         21   -1    0    0  503  502  0.00000000000E+00  0.00000000000E+00  0.85920661222E+02  0.85920661222E+02  0.00000000000E+00 0. -1.
         21   -1    0    0  501  503 -0.00000000000E+00 -0.00000000000E+00 -0.37432900847E+03  0.37432900847E+03  0.00000000000E+00 0. -1.
          6    2    1    2  501    0  0.23671085094E+02  0.14609026642E+02 -0.19747041600E+03  0.26359662729E+03  0.17238002436E+03 0.  0.
         24    2    3    3    0    0  0.12939070929E+02 -0.47998736040E+02 -0.57457548554E+02  0.10977659893E+03  0.79235305065E+02 0.  0.
         -6    2    1    2    0  502 -0.23671085094E+02 -0.14609026642E+02 -0.90937931247E+02  0.19665304240E+03  0.17213067076E+03 0.  0.
        -24    2    5    5    0    0 -0.56432053800E+02 -0.18614676176E+02  0.29935858904E+00  0.99515720241E+02  0.79826099081E+02 0.  0.
          5    1    3    3  501    0  0.10732014164E+02  0.62607762682E+02 -0.14001286744E+03  0.15382002836E+03  0.47000000000E+01 0. -1.
        -11    1    4    4    0    0  0.14659232477E+02 -0.30282844418E+02  0.13774124464E+02  0.36354783284E+02  0.00000000000E+00 0.  1.
         12    1    4    4    0    0 -0.17201615476E+01 -0.17715891622E+02 -0.71231673018E+02  0.73421815646E+02  0.00000000000E+00 0. -1.
         -5    1    5    5    0  502  0.32760968706E+02  0.40056495335E+01 -0.91237289836E+02  0.97137322155E+02  0.47000000000E+01 0.  1.
         13    1    6    6    0    0  0.16505666049E+02  0.84256824921E+01 -0.99840433760E+01  0.21050184306E+02  0.00000000000E+00 0. -1.
        -14    1    6    6    0    0 -0.72937719849E+02 -0.27040358668E+02  0.10283401965E+02  0.78465535935E+02  0.00000000000E+00 0.  1.
</event>
<event>
12    1  0.9017558E-003  0.1836417E+03  0.7818608E-02  0.1165982E+00
         21   -1    0    0  503  502  0.00000000000E+00  0.00000000000E+00  0.20419575105E+04  0.20419575105E+04  0.00000000000E+00 0. -1.
         21   -1    0    0  501  503 -0.00000000000E+00 -0.00000000000E+00 -0.21328942208E+02  0.21328942208E+02  0.00000000000E+00 0. -1.
          6    2    1    2  501    0 -0.39562510749E+02  0.24207653607E+02  0.47558646953E+03  0.50736891767E+03  0.17055651809E+03 0.  0.
         24    2    3    3    0    0 -0.68341686618E+01  0.60987293082E+02  0.42548966902E+03  0.43697242857E+03  0.78340852115E+02 0.  0.
         -6    2    1    2    0  502  0.39562510749E+02 -0.24207653607E+02  0.15450420988E+04  0.15559175351E+04  0.17768817112E+03 0.  0.
        -24    2    5    5    0    0  0.16420898454E+02 -0.12175969550E+02  0.15091283889E+04  0.15112836892E+04  0.78051232108E+02 0.  0.
          5    1    3    3  501    0 -0.32728342087E+02 -0.36779639475E+02  0.50096800513E+02  0.70396489098E+02  0.47000000000E+01 0. -1.
        -11    1    4    4    0    0  0.61802995305E+01  0.67453789666E+02  0.20288184028E+03  0.21389074537E+03  0.00000000000E+00 0.  1.
         12    1    4    4    0    0 -0.13014468192E+02 -0.64664965846E+01  0.22260782874E+03  0.22308168319E+03  0.00000000000E+00 0. -1.
         -5    1    5    5    0  502  0.23141612295E+02 -0.12031684057E+02  0.35913709849E+02  0.44633845856E+02  0.47000000000E+01 0.  1.
         11    1    6    6    0    0  0.32497935887E+02  0.20668540802E+02  0.49492122895E+03  0.49641749293E+03  0.00000000000E+00 0. -1.
        -12    1    6    6    0    0 -0.16077037433E+02 -0.32844510352E+02  0.10142071600E+04  0.10148661963E+04  0.00000000000E+00 0.  1.
</event>
<event>
12    1  0.9017558E-003  0.1770005E+03  0.7818608E-02  0.1170902E+00
         21   -1    0    0  503  502  0.00000000000E+00  0.00000000000E+00  0.20437263257E+03  0.20437263257E+03  0.00000000000E+00 0. -1.
         21   -1    0    0  501  503 -0.00000000000E+00 -0.00000000000E+00 -0.15291646184E+03  0.15291646184E+03  0.00000000000E+00 0. -1.
          6    2    1    2  501    0  0.10210543735E+02  0.38739682049E+02  0.32170829317E+02  0.17990031715E+03  0.17240691309E+03 0.  0.
         24    2    3    3    0    0  0.32355816158E+02  0.34157863989E+02 -0.42815760923E+02  0.10143704636E+03  0.79010293496E+02 0.  0.
         -6    2    1    2    0  502 -0.10210543735E+02 -0.38739682049E+02  0.19285341419E+02  0.17738877727E+03  0.17172604851E+03 0.  0.
        -24    2    5    5    0    0  0.29538662094E+02 -0.33770829036E+02 -0.42473189459E+02  0.10362635458E+03  0.83195240780E+02 0.  0.
          5    1    3    3  501    0 -0.22145272423E+02  0.45818180598E+01  0.74986590240E+02  0.78463270791E+02  0.47000000000E+01 0. -1.
        -13    1    4    4    0    0 -0.23226226534E+02  0.39068217099E+01  0.23817485635E+01  0.23672633591E+02  0.00000000000E+00 0.  1.
         14    1    4    4    0    0  0.55582042692E+02  0.30251042279E+02 -0.45197509487E+02  0.77764412765E+02  0.00000000000E+00 0. -1.
         -5    1    5    5    0  502 -0.39749205829E+02 -0.49688530122E+01  0.61758530878E+02  0.73762422686E+02  0.47000000000E+01 0.  1.
         13    1    6    6    0    0  0.34761864742E+02 -0.46520676089E+02  0.93774907488E+00  0.58081321588E+02  0.00000000000E+00 0. -1.
        -14    1    6    6    0    0 -0.52232026480E+01  0.12749847053E+02 -0.43410938534E+02  0.45545032991E+02  0.00000000000E+00 0.  1.
</event>
<event>
12    1  0.9017558E-003  0.3858328E+03  0.7818608E-02  0.1048995E+00
         21   -1    0    0  503  502  0.00000000000E+00  0.00000000000E+00  0.69840542409E+02  0.69840542409E+02  0.00000000000E+00 0. -1.
         21   -1    0    0  501  503 -0.00000000000E+00 -0.00000000000E+00 -0.22451033293E+04  0.22451033293E+04  0.00000000000E+00 0.  1.
          6    2    1    2  501    0 -0.87527525143E+02  0.33181956167E+03 -0.13584121813E+04  0.14115547559E+04  0.17157472237E+03 0.  0.
         24    2    3    3    0    0 -0.12255064514E+02  0.27463565954E+03 -0.96776360786E+03  0.10096040873E+04  0.84611349139E+02 0.  0.
         -6    2    1    2    0  502  0.87527525143E+02 -0.33181956167E+03 -0.81685060553E+03  0.90338911578E+03  0.17635672256E+03 0.  0.
        -24    2    5    5    0    0  0.26816239251E+02 -0.51921712160E+02 -0.24065250877E+03  0.25991805730E+03  0.78922694145E+02 0.  0.
          5    1    3    3  501    0 -0.75272460629E+02  0.57183902129E+02 -0.39064857349E+03  0.40195066857E+03  0.47000000000E+01 0. -1.
        -13    1    4    4    0    0  0.14643427849E+02  0.63450195374E+02 -0.13250338487E+03  0.14763977876E+03  0.00000000000E+00 0.  1.
         14    1    4    4    0    0 -0.26898492363E+02  0.21118546417E+03 -0.83526022299E+03  0.86196430859E+03  0.00000000000E+00 0. -1.
         -5    1    5    5    0  502  0.60711285891E+02 -0.27989784951E+03 -0.57619809676E+03  0.64347105849E+03  0.47000000000E+01 0.  1.
         11    1    6    6    0    0  0.11044161971E+02  0.10720610320E+02 -0.59724287136E+01  0.16509842640E+02  0.00000000000E+00 0. -1.
        -12    1    6    6    0    0  0.15772077281E+02 -0.62642322480E+02 -0.23468008006E+03  0.24340821466E+03  0.00000000000E+00 0.  1.
</event>
<event>
12    1  0.9017558E-003  0.1925253E+03  0.7818608E-02  0.1156271E+00
         21   -1    0    0  501  502  0.00000000000E+00  0.00000000000E+00  0.34451428570E+03  0.34451428570E+03  0.00000000000E+00 0.  1.
         21   -1    0    0  502  503 -0.00000000000E+00 -0.00000000000E+00 -0.15624696027E+03  0.15624696027E+03  0.00000000000E+00 0.  1.
          6    2    1    2  501    0 -0.37690240183E+02 -0.76236597241E+02  0.23405174257E+03  0.30286680938E+03  0.17238188147E+03 0.  0.
         24    2    3    3    0    0  0.50925715983E+01 -0.10888014184E+03  0.19071645390E+03  0.23361359839E+03  0.79509295007E+02 0.  0.
         -6    2    1    2    0  503  0.37690240183E+02  0.76236597241E+02 -0.45784417144E+02  0.19789443659E+03  0.17272354274E+03 0.  0.
        -24    2    5    5    0    0 -0.11661212328E+02 -0.18645326697E+02 -0.32515794120E+02  0.90022791976E+02  0.81013542863E+02 0.  0.
          5    1    3    3  501    0 -0.42782811781E+02  0.32643544600E+02  0.43335288669E+02  0.69253210987E+02  0.47000000000E+01 0. -1.
        -11    1    4    4    0    0  0.28184910276E+02 -0.64723639995E+02  0.16049641211E+03  0.17533578368E+03  0.00000000000E+00 0.  1.
         12    1    4    4    0    0 -0.23092338678E+02 -0.44156501847E+02  0.30220041793E+02  0.58277814706E+02  0.00000000000E+00 0. -1.
         -5    1    5    5    0  503  0.49351452511E+02  0.94881923938E+02 -0.13268623024E+02  0.10787164462E+03  0.47000000000E+01 0.  1.
         11    1    6    6    0    0 -0.13713866322E+02  0.31036266693E+02 -0.16883118800E+02  0.37899336144E+02  0.00000000000E+00 0. -1.
        -12    1    6    6    0    0  0.20526539938E+01 -0.49681593390E+02 -0.15632675320E+02  0.52123455832E+02  0.00000000000E+00 0.  1.
</event>
<event>
12    1  0.9017558E-003  0.1937511E+03  0.7818608E-02  0.1155247E+00
         21   -1    0    0  503  502  0.00000000000E+00  0.00000000000E+00  0.41238505173E+02  0.41238505173E+02  0.00000000000E+00 0. -1.
         21   -1    0    0  501  503 -0.00000000000E+00 -0.00000000000E+00 -0.11044934204E+04  0.11044934204E+04  0.00000000000E+00 0. -1.
          6    2    1    2  501    0 -0.75701382822E+02 -0.44418348523E+02 -0.77413333004E+03  0.79801120655E+03  0.17273037966E+03 0.  0.
         24    2    3    3    0    0 -0.84413361365E+02 -0.75772235866E+02 -0.42025108083E+03  0.44260481786E+03  0.80131183340E+02 0.  0.
         -6    2    1    2    0  502  0.75701382822E+02  0.44418348523E+02 -0.28912158514E+03  0.34772071897E+03  0.17208927440E+03 0.  0.
        -24    2    5    5    0    0  0.35988558566E+02  0.84555328041E+02 -0.26013602384E+03  0.28407845079E+03  0.67712889898E+02 0.  0.
          5    1    3    3  501    0  0.87119785435E+01  0.31353887343E+02 -0.35388224921E+03  0.35540638869E+03  0.47000000000E+01 0. -1.
        -13    1    4    4    0    0 -0.33531731187E+02 -0.32069168948E+02 -0.58391312202E+02  0.74581190216E+02  0.00000000000E+00 0.  1.
         14    1    4    4    0    0 -0.50881630178E+02 -0.43703066917E+02 -0.36185976863E+03  0.36802362764E+03  0.00000000000E+00 0. -1.
         -5    1    5    5    0  502  0.39712824255E+02 -0.40136979518E+02 -0.28985561298E+02  0.63642268179E+02  0.47000000000E+01 0.  1.
         11    1    6    6    0    0 -0.18950143371E+02  0.33477856919E+02 -0.74168647069E+02  0.83551559206E+02  0.00000000000E+00 0. -1.
        -12    1    6    6    0    0  0.54938701938E+02  0.51077471122E+02 -0.18596737677E+03  0.20052689159E+03  0.00000000000E+00 0.  1.
</event>
<event>
12    1  0.9017558E-003  0.2537988E+03  0.7818608E-02  0.1111245E+00
         21   -1    0    0  501  502  0.00000000000E+00  0.00000000000E+00  0.93578358091E+02  0.93578358091E+02  0.00000000000E+00 0. -1.
         21   -1    0    0  502  503 -0.00000000000E+00 -0.00000000000E+00 -0.77750709961E+03  0.77750709961E+03  0.00000000000E+00 0. -1.
          6    2    1    2  501    0  0.16450377506E+03 -0.90429474711E+02 -0.19118063737E+03  0.31774813642E+03  0.17080649927E+03 0.  0.
         24    2    3    3    0    0  0.64603246003E+02  0.14885013883E+02 -0.11403828933E+03  0.15329665703E+03  0.78102436527E+02 0.  0.
         -6    2    1    2    0  503 -0.16450377506E+03  0.90429474711E+02 -0.49274810416E+03  0.55333732128E+03  0.16775731002E+03 0.  0.
        -24    2    5    5    0    0 -0.53896156922E+02  0.10168071837E+03 -0.25272384359E+03  0.28877282757E+03  0.79225252294E+02 0.  0.
          5    1    3    3  501    0  0.99900529059E+02 -0.10531448859E+03 -0.77142348038E+02  0.16445147939E+03  0.47000000000E+01 0. -1.
        -11    1    4    4    0    0  0.31675630715E+01  0.32620019202E+02 -0.64712570088E+02  0.72538374920E+02  0.00000000000E+00 0.  1.
         12    1    4    4    0    0  0.61435682932E+02 -0.17735005320E+02 -0.49325719239E+02  0.80758282111E+02  0.00000000000E+00 0. -1.
         -5    1    5    5    0  503 -0.11060761814E+03 -0.11251243663E+02 -0.24002426056E+03  0.26456449371E+03  0.47000000000E+01 0.  1.
         13    1    6    6    0    0 -0.53582608309E+02  0.76610487645E+02 -0.24547289581E+03  0.26267319107E+03  0.00000000000E+00 0. -1.
        -14    1    6    6    0    0 -0.31354861326E+00  0.25070230729E+02 -0.72509477848E+01  0.26099636498E+02  0.00000000000E+00 0.  1.
</event>
<event>
12    1  0.9017558E-003  0.1840810E+03  0.7818608E-02  0.1166134E+00
         21   -1    0    0  501  502  0.00000000000E+00  0.00000000000E+00  0.16167973383E+03  0.16167973383E+03  0.00000000000E+00 0. -1.
         21   -1    0    0  502  503 -0.00000000000E+00 -0.00000000000E+00 -0.20761238344E+03  0.20761238344E+03  0.00000000000E+00 0. -1.
          6    2    1    2  501    0 -0.29466139484E+02 -0.15009995636E+02  0.13545758864E+02  0.18457876406E+03  0.18108638605E+03 0.  0.
         24    2    3    3    0    0  0.46854765058E+01 -0.71516383698E+02  0.38330282814E+02  0.11389872873E+03  0.79794504810E+02 0.  0.
         -6    2    1    2    0  503  0.29466139484E+02  0.15009995636E+02 -0.59478408482E+02  0.18471335322E+03  0.17172008746E+03 0.  0.
        -24    2    5    5    0    0 -0.35885004685E+01 -0.23650981790E+02 -0.92309237327E+02  0.12399075676E+03  0.79249392366E+02 0.  0.
          5    1    3    3  501    0 -0.34151615989E+02  0.56506388062E+02 -0.24784523951E+02  0.70680035328E+02  0.47000000000E+01 0. -1.
        -11    1    4    4    0    0  0.33342277261E+02 -0.44579164383E+01  0.18197803904E+02  0.38245791126E+02  0.00000000000E+00 0.  1.
         12    1    4    4    0    0 -0.28656800755E+02 -0.67058467260E+02  0.20132478910E+02  0.75652937602E+02  0.00000000000E+00 0. -1.
         -5    1    5    5    0  503  0.33054639952E+02  0.38660977427E+02  0.32830828844E+02  0.60722596458E+02  0.47000000000E+01 0.  1.
         11    1    6    6    0    0  0.16196346559E+02 -0.34485558801E+02 -0.11065896360E+02  0.39674040252E+02  0.00000000000E+00 0. -1.
        -12    1    6    6    0    0 -0.19784847028E+02  0.10834577011E+02 -0.81243340967E+02  0.84316716506E+02  0.00000000000E+00 0.  1.
</event>
<event>
12    1  0.9017558E-003  0.1732145E+03  0.7818608E-02  0.1174626E+00
         21   -1    0    0  503  502  0.00000000000E+00  0.00000000000E+00  0.32933618997E+03  0.32933618997E+03  0.00000000000E+00 0.  1.
         21   -1    0    0  501  503 -0.00000000000E+00 -0.00000000000E+00 -0.97888989841E+02  0.97888989841E+02  0.00000000000E+00 0.  1.
          6    2    1    2  501    0 -0.12741941824E+02  0.16837802983E+01  0.58823024797E+02  0.18293008035E+03  0.17273700777E+03 0.  0.
         24    2    3    3    0    0 -0.51401994246E+02 -0.42706549607E+02  0.65822743483E+02  0.12346423214E+03  0.80279316548E+02 0.  0.
         -6    2    1    2    0  502  0.12741941824E+02 -0.16837802983E+01  0.17262417533E+03  0.24429509946E+03  0.17238270654E+03 0.  0.
        -24    2    5    5    0    0  0.14608243790E+02  0.65081452655E+02  0.12040002295E+03  0.15938025090E+03  0.80354854140E+02 0.  0.
          5    1    3    3  501    0  0.38660052422E+02  0.44390329905E+02 -0.69997186867E+01  0.59465848216E+02  0.47000000000E+01 0. -1.
        -11    1    4    4    0    0  0.34837157258E+00 -0.51891965409E+02  0.33114098323E+02  0.61558435201E+02  0.00000000000E+00 0.  1.
         12    1    4    4    0    0 -0.51750365819E+02  0.91854158016E+01  0.32708645161E+02  0.61905796934E+02  0.00000000000E+00 0. -1.
         -5    1    5    5    0  502 -0.18663019659E+01 -0.66765232953E+02  0.52224152387E+02  0.84914848565E+02  0.47000000000E+01 0.  1.
         13    1    6    6    0    0 -0.32822178753E+02  0.34192830435E+02  0.62136316404E+02  0.78149644193E+02  0.00000000000E+00 0. -1.
        -14    1    6    6    0    0  0.47430422543E+02  0.30888622220E+02  0.58263706542E+02  0.81230606703E+02  0.00000000000E+00 0.  1.
</event>
<event>
12    1  0.9017558E-003  0.1798405E+03  0.7818608E-02  0.1171441E+00
         21   -1    0    0  503  502  0.00000000000E+00  0.00000000000E+00  0.18729701162E+03  0.18729701162E+03  0.00000000000E+00 0.  1.
         21   -1    0    0  501  503 -0.00000000000E+00 -0.00000000000E+00 -0.17848070656E+03  0.17848070656E+03  0.00000000000E+00 0.  1.
          6    2    1    2  501    0  0.75141392603E+01  0.52315777154E+02 -0.54718028458E+02  0.18798052772E+03  0.17189884623E+03 0.  0.
         24    2    3    3    0    0  0.24254429861E+02  0.98747889468E+02 -0.48829961488E+02  0.13805120050E+03  0.79588603323E+02 0.  0.
         -6    2    1    2    0  502 -0.75141392603E+01 -0.52315777154E+02  0.63534333520E+02  0.17779719046E+03  0.15742244621E+03 0.  0.
        -24    2    5    5    0    0 -0.38879079582E+02 -0.45807212429E+02 -0.66444255623E+01  0.10051026322E+03  0.80301189787E+02 0.  0.
          5    1    3    3  501    0 -0.16740290600E+02 -0.46432112314E+02 -0.58880669700E+01  0.49929327213E+02  0.47000000000E+01 0. -1.
        -13    1    4    4    0    0 -0.25987642768E+02  0.20265028086E+02 -0.23761904635E+00  0.32955809849E+02  0.00000000000E+00 0.  1.
         14    1    4    4    0    0  0.50242072628E+02  0.78482861381E+02 -0.48592342442E+02  0.10509539065E+03  0.00000000000E+00 0. -1.
         -5    1    5    5    0  502  0.31364940322E+02 -0.65085647242E+01  0.70178759083E+02  0.77286927242E+02  0.47000000000E+01 0.  1.
         13    1    6    6    0    0  0.16764407097E+02 -0.41044208639E+02 -0.52524833890E+01  0.44645951551E+02  0.00000000000E+00 0. -1.
        -14    1    6    6    0    0 -0.55643486679E+02 -0.47630037901E+01 -0.13919421734E+01  0.55864311666E+02  0.00000000000E+00 0.  1.
</event>
<event>
12    1  0.9017558E-003  0.1809511E+03  0.7818608E-02  0.1166995E+00
         21   -1    0    0  501  502  0.00000000000E+00  0.00000000000E+00  0.14977209420E+03  0.14977209420E+03  0.00000000000E+00 0. -1.
         21   -1    0    0  502  503 -0.00000000000E+00 -0.00000000000E+00 -0.24705173368E+03  0.24705173368E+03  0.00000000000E+00 0.  1.
          6    2    1    2  501    0  0.42809781313E+02  0.27291756381E+02  0.19262703927E+02  0.18197347485E+03  0.17368297684E+03 0.  0.
         24    2    3    3    0    0 -0.41647018029E+02  0.37037530807E+01  0.24546349011E+02  0.93999889268E+02  0.80531137054E+02 0.  0.
         -6    2    1    2    0  503 -0.42809781313E+02 -0.27291756381E+02 -0.11654234341E+03  0.21485035303E+03  0.17320808021E+03 0.  0.
        -24    2    5    5    0    0 -0.16636777393E+02  0.48345857736E+02 -0.35632758191E+02  0.10094457713E+03  0.79410388953E+02 0.  0.
          5    1    3    3  501    0  0.84456799342E+02  0.23588003301E+02 -0.52836450831E+01  0.87973585582E+02  0.47000000000E+01 0. -1.
        -13    1    4    4    0    0 -0.49587863586E+02  0.24373374052E+02 -0.67475013100E+01  0.55664587950E+02  0.00000000000E+00 0.  1.
         14    1    4    4    0    0  0.79408455578E+01 -0.20669620971E+02  0.31293850321E+02  0.38335301318E+02  0.00000000000E+00 0. -1.
         -5    1    5    5    0  503 -0.26173003920E+02 -0.75637614117E+02 -0.80909585219E+02  0.11390577590E+03  0.47000000000E+01 0.  1.
         13    1    6    6    0    0  0.26664505734E+02  0.35228066238E+02 -0.33861649534E+02  0.55665283850E+02  0.00000000000E+00 0. -1.
        -14    1    6    6    0    0 -0.43301283127E+02  0.13117791497E+02 -0.17711086570E+01  0.45279293281E+02  0.00000000000E+00 0.  1.
</event>
<event>
12    1  0.9017558E-003  0.1848778E+03  0.7818608E-02  0.1164493E+00
         21   -1    0    0  501  502  0.00000000000E+00  0.00000000000E+00  0.80520223302E+03  0.80520223302E+03  0.00000000000E+00 0. -1.
         21   -1    0    0  502  503 -0.00000000000E+00 -0.00000000000E+00 -0.55272774358E+02  0.55272774358E+02  0.00000000000E+00 0. -1.
          6    2    1    2  501    0  0.50802879550E+01 -0.65923474589E+02  0.58794901349E+03  0.61467538522E+03  0.16664355044E+03 0.  0.
         24    2    3    3    0    0  0.15143239275E+02  0.25950062753E+02  0.24807495672E+03  0.26242763957E+03  0.80152095445E+02 0.  0.
         -6    2    1    2    0  503 -0.50802879550E+01  0.65923474589E+02  0.16198044517E+03  0.24579962216E+03  0.17265015438E+03 0.  0.
        -24    2    5    5    0    0  0.35889509426E+02  0.42183118228E+02  0.23615113658E+02  0.99480847619E+02  0.79191496385E+02 0.  0.
          5    1    3    3  501    0 -0.10062951320E+02 -0.91873537342E+02  0.33987405677E+03  0.35224774565E+03  0.47000000000E+01 0. -1.
        -11    1    4    4    0    0 -0.78821498628E+01  0.14822026361E+02  0.43194772861E+01  0.17334319599E+02  0.00000000000E+00 0.  1.
         12    1    4    4    0    0  0.23025389138E+02  0.11128036392E+02  0.24375547943E+03  0.24509331997E+03  0.00000000000E+00 0. -1.
         -5    1    5    5    0  503 -0.40969797381E+02  0.23740356361E+02  0.13836533151E+03  0.14631877454E+03  0.47000000000E+01 0.  1.
         13    1    6    6    0    0  0.56809243532E+02  0.21617549960E+02  0.32371893102E+02  0.68866160630E+02  0.00000000000E+00 0. -1.
        -14    1    6    6    0    0 -0.20919734106E+02  0.20565568268E+02 -0.87567794431E+01  0.30614686989E+02  0.00000000000E+00 0.  1.
</event>
<event>
12    1  0.9017558E-003  0.1841384E+03  0.7818608E-02  0.1164602E+00
         21   -1    0    0  501  502  0.00000000000E+00  0.00000000000E+00  0.60216247650E+03  0.60216247650E+03  0.00000000000E+00 0. -1.
         21   -1    0    0  502  503 -0.00000000000E+00 -0.00000000000E+00 -0.66108124094E+02  0.66108124094E+02  0.00000000000E+00 0.  1.
          6    2    1    2  501    0  0.17484697758E+02  0.54386276707E+02  0.40087403188E+03  0.43983969315E+03  0.17174220358E+03 0.  0.
         24    2    3    3    0    0  0.47023481724E+02 -0.21133973437E+02  0.26459131850E+03  0.28118624722E+03  0.79995544467E+02 0.  0.
         -6    2    1    2    0  503 -0.17484697758E+02 -0.54386276707E+02  0.13518032053E+03  0.22843090744E+03  0.17505250260E+03 0.  0.
        -24    2    5    5    0    0 -0.31883454263E+02 -0.83218941729E+02  0.15068327057E+03  0.19236044554E+03  0.79719169974E+02 0.  0.
          5    1    3    3  501    0 -0.29538783966E+02  0.75520250144E+02  0.13628271338E+03  0.15865344593E+03  0.47000000000E+01 0. -1.
        -11    1    4    4    0    0 -0.68110018606E+01 -0.14522747443E+02  0.62542243409E+01  0.17216714604E+02  0.00000000000E+00 0.  1.
         12    1    4    4    0    0  0.53834483585E+02 -0.66112259938E+01  0.25833709416E+03  0.26396953262E+03  0.00000000000E+00 0. -1.
         -5    1    5    5    0  503  0.14398756504E+02  0.28832665022E+02 -0.15502950047E+02  0.36070461895E+02  0.47000000000E+01 0.  1.
         13    1    6    6    0    0  0.25031912357E+02 -0.24615387927E+02  0.65625191501E+02  0.74425665725E+02  0.00000000000E+00 0. -1.
        -14    1    6    6    0    0 -0.56915366620E+02 -0.58603553802E+02  0.85058079071E+02  0.11793477982E+03  0.00000000000E+00 0.  1.
</event>
<event>
12    1  0.9017558E-003  0.1728425E+03  0.7818608E-02  0.1177362E+00
         21   -1    0    0  503  502  0.00000000000E+00  0.00000000000E+00  0.60985444160E+03  0.60985444160E+03  0.00000000000E+00 0.  1.
         21   -1    0    0  501  503 -0.00000000000E+00 -0.00000000000E+00 -0.12316083963E+03  0.12316083963E+03  0.00000000000E+00 0.  1.
          6    2    1    2  501    0  0.24698936231E+02 -0.20753464071E+01 -0.43451391995E+02  0.17822053857E+03  0.17105610889E+03 0.  0.
         24    2    3    3    0    0 -0.51731321080E+02 -0.57554180921E+01 -0.16181866482E+02  0.96851968583E+02  0.80057458101E+02 0.  0.
         -6    2    1    2    0  502 -0.24698936231E+02  0.20753464071E+01  0.53014499396E+03  0.55479474266E+03  0.16164512782E+03 0.  0.
        -24    2    5    5    0    0 -0.32681094733E+02  0.39757303927E+02  0.48814109631E+03  0.49761028502E+03  0.81765326946E+02 0.  0.
          5    1    3    3  501    0  0.76430257311E+02  0.36800716851E+01 -0.27269525513E+02  0.81368569988E+02  0.47000000000E+01 0. -1.
        -13    1    4    4    0    0 -0.32986011322E+02  0.69288069925E+01 -0.47480033594E+02  0.58227475468E+02  0.00000000000E+00 0.  1.
         14    1    4    4    0    0 -0.18745309758E+02 -0.12684225085E+02  0.31298167112E+02  0.38624493116E+02  0.00000000000E+00 0. -1.
         -5    1    5    5    0  502  0.79821585018E+01 -0.37681957520E+02  0.42003897660E+02  0.57184457639E+02  0.47000000000E+01 0.  1.
         13    1    6    6    0    0  0.22709926854E+02  0.11036327296E+02  0.62297051473E+02  0.67219520380E+02  0.00000000000E+00 0. -1.
        -14    1    6    6    0    0 -0.55391021588E+02  0.28720976631E+02  0.42584404483E+03  0.43039076464E+03  0.00000000000E+00 0.  1.
</event>
<event>
12    1  0.9017558E-003  0.2299641E+03  0.7818608E-02  0.1126687E+00
         21   -1    0    0  501  502  0.00000000000E+00  0.00000000000E+00  0.68590469048E+02  0.68590469048E+02  0.00000000000E+00 0. -1.
         21   -1    0    0  502  503 -0.00000000000E+00 -0.00000000000E+00 -0.78503694400E+03  0.78503694400E+03  0.00000000000E+00 0. -1.
          6    2    1    2  501    0 -0.34137900775E+01 -0.15371412900E+03 -0.41603452162E+03  0.47530103692E+03  0.17084105217E+03 0.  0.
         24    2    3    3    0    0  0.20935606574E+02 -0.10703975082E+03 -0.14076783037E+03  0.19500613507E+03  0.79473283372E+02 0.  0.
         -6    2    1    2    0  503  0.34137900775E+01  0.15371412900E+03 -0.30041195333E+03  0.37832637612E+03  0.17100823883E+03 0.  0.
        -24    2    5    5    0    0  0.46510016425E+02  0.15675782817E+03 -0.26940757345E+03  0.32494182403E+03  0.79186804770E+02 0.  0.
          5    1    3    3  501    0 -0.24349396651E+02 -0.46674378181E+02 -0.27526669125E+03  0.28029490186E+03  0.47000000000E+01 0. -1.
        -13    1    4    4    0    0 -0.28779443822E+02 -0.21889458148E+02 -0.33252897658E+02  0.49123924592E+02  0.00000000000E+00 0.  1.
         14    1    4    4    0    0  0.49715050396E+02 -0.85150292669E+02 -0.10751493271E+03  0.14588221047E+03  0.00000000000E+00 0. -1.
         -5    1    5    5    0  503 -0.43096226348E+02 -0.30436991777E+01 -0.31004379885E+02  0.53384552093E+02  0.47000000000E+01 0.  1.
         13    1    6    6    0    0  0.62773765024E+02  0.72961077358E+02 -0.13833122550E+03  0.16852119253E+03  0.00000000000E+00 0. -1.
        -14    1    6    6    0    0 -0.16263748598E+02  0.83796750817E+02 -0.13107634795E+03  0.15642063149E+03  0.00000000000E+00 0.  1.
</event>
<event>
12    1  0.9017558E-003  0.1784430E+03  0.7818608E-02  0.1169504E+00
         21   -1    0    0  503  502  0.00000000000E+00  0.00000000000E+00  0.16387807285E+04  0.16387807285E+04  0.00000000000E+00 0.  1.
         21   -1    0    0  501  503 -0.00000000000E+00 -0.00000000000E+00 -0.23197164908E+02  0.23197164908E+02  0.00000000000E+00 0.  1.
          6    2    1    2  501    0 -0.34472923525E+02 -0.36698527089E+02  0.47071803901E+03  0.50340577100E+03  0.17119209587E+03 0.  0.
         24    2    3    3    0    0  0.44873320323E+02 -0.22877900843E+02  0.30342702476E+03  0.31767691065E+03  0.79458460713E+02 0.  0.
         -6    2    1    2    0  502  0.34472923525E+02  0.36698527089E+02  0.11448655246E+04  0.11585721224E+04  0.17040284352E+03 0.  0.
        -24    2    5    5    0    0 -0.34221935891E+02  0.16992939248E+02  0.30634905163E+03  0.31700260102E+03  0.71979210465E+02 0.  0.
          5    1    3    3  501    0 -0.79346243849E+02 -0.13820626246E+02  0.16729101424E+03  0.18572886036E+03  0.47000000000E+01 0. -1.
        -13    1    4    4    0    0  0.41956139290E+02 -0.86824795632E+01  0.59506016822E+02  0.73325773869E+02  0.00000000000E+00 0.  1.
         14    1    4    4    0    0  0.29171810334E+01 -0.14195421280E+02  0.24392100794E+03  0.24435113678E+03  0.00000000000E+00 0. -1.
         -5    1    5    5    0  502  0.68694859416E+02  0.19705587842E+02  0.83851647296E+03  0.84156952139E+03  0.47000000000E+01 0.  1.
         13    1    6    6    0    0 -0.99776001363E+01  0.41346823054E+02  0.21986549566E+03  0.22394184169E+03  0.00000000000E+00 0. -1.
        -14    1    6    6    0    0 -0.24244335755E+02 -0.24353883806E+02  0.86483555972E+02  0.93060759325E+02  0.00000000000E+00 0.  1.
</event>
<event>
12    1  0.9017558E-003  0.1808360E+03  0.7818608E-02  0.1167811E+00
         21   -1    0    0  503  502  0.00000000000E+00  0.00000000000E+00  0.44861169552E+03  0.44861169552E+03  0.00000000000E+00 0. -1.
         21   -1    0    0  501  503 -0.00000000000E+00 -0.00000000000E+00 -0.92922969728E+02  0.92922969728E+02  0.00000000000E+00 0. -1.
          6    2    1    2  501    0  0.42942925355E+02 -0.93020051201E+00  0.46711523340E+02  0.18352829737E+03  0.17220833143E+03 0.  0.
         24    2    3    3    0    0  0.47025022354E+02  0.58736979380E+02  0.19472703310E+01  0.10867668270E+03  0.78392882496E+02 0.  0.
         -6    2    1    2    0  502 -0.42942925355E+02  0.93020051201E+00  0.30897720245E+03  0.35800636787E+03  0.17566071756E+03 0.  0.
        -24    2    5    5    0    0  0.45553124263E+02 -0.23402451312E+00  0.21400968789E+03  0.22810707981E+03  0.64479077627E+02 0.  0.
          5    1    3    3  501    0 -0.40820969992E+01 -0.59667179892E+02  0.44764253009E+02  0.74851614676E+02  0.47000000000E+01 0. -1.
        -11    1    4    4    0    0  0.14179785220E+02  0.71608678562E+02  0.55841475400E+01  0.73212375033E+02  0.00000000000E+00 0.  1.
         12    1    4    4    0    0  0.32845237133E+02 -0.12871699182E+02 -0.36368772090E+01  0.35464307663E+02  0.00000000000E+00 0. -1.
         -5    1    5    5    0  502 -0.88496049618E+02  0.11642250251E+01  0.94967514562E+02  0.12989928807E+03  0.47000000000E+01 0.  1.
         11    1    6    6    0    0 -0.83905251801E+00 -0.25781413254E+02  0.77717726150E+02  0.81886691449E+02  0.00000000000E+00 0. -1.
        -12    1    6    6    0    0  0.46392176781E+02  0.25547388740E+02  0.13629196173E+03  0.14622038836E+03  0.00000000000E+00 0.  1.
</event>
<event>
12    1  0.9017558E-003  0.2023588E+03  0.7818608E-02  0.1147920E+00
         21   -1    0    0  501  502  0.00000000000E+00  0.00000000000E+00  0.44710128611E+02  0.44710128611E+02  0.00000000000E+00 0. -1.
         21   -1    0    0  502  503 -0.00000000000E+00 -0.00000000000E+00 -0.98246652003E+03  0.98246652003E+03  0.00000000000E+00 0.  1.
          6    2    1    2  501    0 -0.78109349204E+02 -0.72372435392E+02 -0.33101693528E+03  0.38758158467E+03  0.17119706042E+03 0.  0.
         24    2    3    3    0    0 -0.49519031914E+02  0.13088585718E+02 -0.24608037620E+03  0.26365700502E+03  0.79599115266E+02 0.  0.
         -6    2    1    2    0  503  0.78109349204E+02  0.72372435392E+02 -0.60673945614E+03  0.63959506397E+03  0.17207625746E+03 0.  0.
        -24    2    5    5    0    0  0.34184827693E+01 -0.59358396609E+01 -0.86212077596E+02  0.10791682172E+03  0.64549189535E+02 0.  0.
          5    1    3    3  501    0 -0.28590317290E+02 -0.85461021110E+02 -0.84936559085E+02  0.12392457965E+03  0.47000000000E+01 0. -1.
        -11    1    4    4    0    0 -0.60130606829E+02 -0.72514619005E+01 -0.22313940261E+03  0.23121303288E+03  0.00000000000E+00 0.  1.
         12    1    4    4    0    0  0.10611574915E+02  0.20340047619E+02 -0.22940973592E+02  0.32443972147E+02  0.00000000000E+00 0. -1.
         -5    1    5    5    0  503  0.74690866435E+02  0.78308275053E+02 -0.52052737854E+03  0.53167824225E+03  0.47000000000E+01 0.  1.
         13    1    6    6    0    0  0.33951578079E+02 -0.47658395827E+01 -0.48110361326E+02  0.59076473726E+02  0.00000000000E+00 0. -1.
        -14    1    6    6    0    0 -0.30533095310E+02 -0.11700000782E+01 -0.38101716270E+02  0.48840347993E+02  0.00000000000E+00 0.  1.
</event>
<event>
12    1  0.9017558E-003  0.2137484E+03  0.7818608E-02  0.1138784E+00
         21   -1    0    0  503  502  0.00000000000E+00  0.00000000000E+00  0.21245140771E+03  0.21245140771E+03  0.00000000000E+00 0. -1.
         21   -1    0    0  501  503 -0.00000000000E+00 -0.00000000000E+00 -0.30288543875E+03  0.30288543875E+03  0.00000000000E+00 0.  1.
          6    2    1    2  501    0  0.96003691293E+02 -0.80287908849E+02 -0.18465313836E+03  0.28246266359E+03  0.17327872855E+03 0.  0.
         24    2    3    3    0    0  0.10560420678E+03 -0.90190485983E+01 -0.82967996467E+02  0.15782968874E+03  0.82419236119E+02 0.  0.
         -6    2    1    2    0  502 -0.96003691293E+02  0.80287908849E+02  0.94219107315E+02  0.23287418287E+03  0.17230869918E+03 0.  0.
        -24    2    5    5    0    0 -0.88924986191E+02  0.58757646302E+02 -0.28861688622E+01  0.13304840998E+03  0.79582882951E+02 0.  0.
          5    1    3    3  501    0 -0.96005154865E+01 -0.71268860251E+02 -0.10168514189E+03  0.12463297485E+03  0.47000000000E+01 0. -1.
        -11    1    4    4    0    0  0.51179641081E+02 -0.42768909205E+02 -0.24320919645E+02  0.70993255934E+02  0.00000000000E+00 0.  1.
         12    1    4    4    0    0  0.54424565698E+02  0.33749860607E+02 -0.58647076822E+02  0.86836432804E+02  0.00000000000E+00 0. -1.
         -5    1    5    5    0  502 -0.70787051017E+01  0.21530262547E+02  0.97105276177E+02  0.99825772888E+02  0.47000000000E+01 0.  1.
         13    1    6    6    0    0 -0.31507542156E+02  0.46490853680E+02  0.32113634578E+02  0.64694746420E+02  0.00000000000E+00 0. -1.
        -14    1    6    6    0    0 -0.57417444036E+02  0.12266792623E+02 -0.34999803441E+02  0.68353663557E+02  0.00000000000E+00 0.  1.
</event>
<event>
12    1  0.9017558E-003  0.2440148E+03  0.7818608E-02  0.1117284E+00
         21   -1    0    0  501  502  0.00000000000E+00  0.00000000000E+00  0.13188783508E+03  0.13188783508E+03  0.00000000000E+00 0.  1.
         21   -1    0    0  502  503 -0.00000000000E+00 -0.00000000000E+00 -0.48559771617E+03  0.48559771617E+03  0.00000000000E+00 0.  1.
          6    2    1    2  501    0  0.17072107266E+03 -0.23730264055E+02 -0.92873452497E+02  0.26030372123E+03  0.17153349244E+03 0.  0.
         24    2    3    3    0    0  0.10321825310E+03 -0.69121557446E+02 -0.17622042723E+02  0.14938994915E+03  0.81086515781E+02 0.  0.
         -6    2    1    2    0  503 -0.17072107266E+03  0.23730264055E+02 -0.26083642859E+03  0.35718183001E+03  0.17272639384E+03 0.  0.
        -24    2    5    5    0    0 -0.75523744932E+02  0.51412589590E+02 -0.21990903088E+03  0.24982269329E+03  0.75526854873E+02 0.  0.
          5    1    3    3  501    0  0.67502819559E+02  0.45391293391E+02 -0.75251409773E+02  0.11091377208E+03  0.47000000000E+01 0. -1.
        -13    1    4    4    0    0  0.58133985931E+02 -0.71281788284E+01  0.22655782678E+02  0.62798532963E+02  0.00000000000E+00 0.  1.
         14    1    4    4    0    0  0.45084267166E+02 -0.61993378618E+02 -0.40277825401E+02  0.86591416188E+02  0.00000000000E+00 0. -1.
         -5    1    5    5    0  503 -0.95197327724E+02 -0.27682325535E+02 -0.40927397716E+02  0.10735913672E+03  0.47000000000E+01 0.  1.
         11    1    6    6    0    0 -0.81546309869E+02  0.34756150928E+02 -0.12479608544E+03  0.15307466682E+03  0.00000000000E+00 0. -1.
        -12    1    6    6    0    0  0.60225649368E+01  0.16656438662E+02 -0.95112945437E+02  0.96748026476E+02  0.00000000000E+00 0.  1.
</event>
<event>
12    1  0.9017558E-003  0.1888881E+03  0.7818608E-02  0.1159678E+00
         21   -1    0    0  503  502  0.00000000000E+00  0.00000000000E+00  0.18922433239E+04  0.18922433239E+04  0.00000000000E+00 0.  1.
         21   -1    0    0  501  503 -0.00000000000E+00 -0.00000000000E+00 -0.18869998659E+02  0.18869998659E+02  0.00000000000E+00 0.  1.
          6    2    1    2  501    0 -0.77272648591E+02 -0.18269821907E+01  0.86264256580E+03  0.88288407697E+03  0.17134087943E+03 0.  0.
         24    2    3    3    0    0 -0.14786641238E+02 -0.51797294805E+02  0.62634495744E+03  0.63336417201E+03  0.77075055418E+02 0.  0.
         -6    2    1    2    0  502  0.77272648591E+02  0.18269821907E+01  0.10107307594E+04  0.10282292456E+04  0.17234939311E+03 0.  0.
        -24    2    5    5    0    0  0.67294130400E+02 -0.45083615153E+02  0.39565748803E+03  0.41127106695E+03  0.77704635254E+02 0.  0.
          5    1    3    3  501    0 -0.62486007353E+02  0.49970312614E+02  0.23629760836E+03  0.24951990496E+03  0.47000000000E+01 0. -1.
        -11    1    4    4    0    0  0.14287637251E+02  0.74509329201E+01  0.37277309915E+02  0.40610969136E+02  0.00000000000E+00 0.  1.
         12    1    4    4    0    0 -0.29074278489E+02 -0.59248227725E+02  0.58906764753E+03  0.59275320288E+03  0.00000000000E+00 0. -1.
         -5    1    5    5    0  502  0.99785181908E+01  0.46910597343E+02  0.61507327142E+03  0.61695817863E+03  0.47000000000E+01 0.  1.
         13    1    6    6    0    0  0.26507656058E+02 -0.20443988520E+01  0.27061687900E+02  0.37936398727E+02  0.00000000000E+00 0. -1.
        -14    1    6    6    0    0  0.40786474342E+02 -0.43039216301E+02  0.36859580013E+03  0.37333466823E+03  0.00000000000E+00 0.  1.
</event>
<event>
12    1  0.9017558E-003  0.1845945E+03  0.7818608E-02  0.1163619E+00
         21   -1    0    0  501  502  0.00000000000E+00  0.00000000000E+00  0.98815186530E+03  0.98815186530E+03  0.00000000000E+00 0.  1.
         21   -1    0    0  502  503 -0.00000000000E+00 -0.00000000000E+00 -0.41703169348E+02  0.41703169348E+02  0.00000000000E+00 0.  1.
          6    2    1    2  501    0  0.64683478183E+02 -0.40067681419E+00  0.69055741708E+03  0.71480393470E+03  0.17289015557E+03 0.  0.
         24    2    3    3    0    0  0.79401555075E+02 -0.16161536851E+02  0.29079264711E+03  0.31443037438E+03  0.87978943495E+02 0.  0.
         -6    2    1    2    0  503 -0.64683478183E+02  0.40067681419E+00  0.25589127887E+03  0.31505109994E+03  0.17202539371E+03 0.  0.
        -24    2    5    5    0    0 -0.53909620261E+02 -0.55088328408E+02  0.22028571136E+03  0.24808131457E+03  0.84128312269E+02 0.  0.
          5    1    3    3  501    0 -0.14718076892E+02  0.15760860037E+02  0.39976476997E+03  0.40037356032E+03  0.47000000000E+01 0. -1.
        -13    1    4    4    0    0  0.57322469188E+02  0.32295912655E+02  0.14541640236E+03  0.15960833789E+03  0.00000000000E+00 0.  1.
         14    1    4    4    0    0  0.22079085887E+02 -0.48457449506E+02  0.14537624475E+03  0.15482203649E+03  0.00000000000E+00 0. -1.
         -5    1    5    5    0  503 -0.10773857921E+02  0.55489005222E+02  0.35605567506E+02  0.66969785370E+02  0.47000000000E+01 0.  1.
         11    1    6    6    0    0 -0.60648952341E+01  0.13684580935E+02  0.30846818784E+01  0.15282865303E+02  0.00000000000E+00 0. -1.
        -12    1    6    6    0    0 -0.47844725027E+02 -0.68772909343E+02  0.21720102949E+03  0.23279844927E+03  0.00000000000E+00 0.  1.
</event>
<event>
12    1  0.9017558E-003  0.1801272E+03  0.7818608E-02  0.1169441E+00
         21   -1    0    0  503  502  0.00000000000E+00  0.00000000000E+00  0.11513395254E+04  0.11513395254E+04  0.00000000000E+00 0.  1.
         21   -1    0    0  501  503 -0.00000000000E+00 -0.00000000000E+00 -0.27757149039E+02  0.27757149039E+02  0.00000000000E+00 0.  1.
          6    2    1    2  501    0  0.44153387515E+01  0.27269537833E+02  0.66514685099E+03  0.68910531226E+03  0.17799627830E+03 0.  0.
         24    2    3    3    0    0  0.53086100104E+02  0.65789297586E+02  0.38538172003E+03  0.40249890374E+03  0.79623687910E+02 0.  0.
         -6    2    1    2    0  502 -0.44153387515E+01 -0.27269537833E+02  0.45843552540E+03  0.48999136221E+03  0.17077845644E+03 0.  0.
        -24    2    5    5    0    0 -0.37752259605E+02  0.19680578497E+01  0.12505982821E+03  0.15364684721E+03  0.80859672702E+02 0.  0.
          5    1    3    3  501    0 -0.48670761353E+02 -0.38519759753E+02  0.27976513096E+03  0.28660640852E+03  0.47000000000E+01 0. -1.
        -11    1    4    4    0    0  0.35980271549E+02  0.82708253846E+02  0.33026557014E+03  0.34236031022E+03  0.00000000000E+00 0.  1.
         12    1    4    4    0    0  0.17105828556E+02 -0.16918956260E+02  0.55116149889E+02  0.60138593516E+02  0.00000000000E+00 0. -1.
         -5    1    5    5    0  502  0.33336920853E+02 -0.29237595683E+02  0.33337569719E+03  0.33634451500E+03  0.47000000000E+01 0.  1.
         11    1    6    6    0    0  0.19705056684E+02 -0.22903023612E+01  0.49691987810E+01  0.20450615647E+02  0.00000000000E+00 0. -1.
        -12    1    6    6    0    0 -0.57457316288E+02  0.42583602109E+01  0.12009062943E+03  0.13319623156E+03  0.00000000000E+00 0.  1.
</event>
<event>
12    1  0.9017558E-003  0.2065756E+03  0.7818608E-02  0.1144830E+00
         21   -1    0    0  501  502  0.00000000000E+00  0.00000000000E+00  0.21636126097E+04  0.21636126097E+04  0.00000000000E+00 0. -1.
         21   -1    0    0  502  503 -0.00000000000E+00 -0.00000000000E+00 -0.21782450706E+02  0.21782450706E+02  0.00000000000E+00 0. -1.
          6    2    1    2  501    0 -0.50121993935E+02  0.98149596587E+02  0.14202763864E+04  0.14348530503E+04  0.17167616247E+03 0.  0.
         24    2    3    3    0    0  0.18639355416E+02  0.30080721890E+02  0.98355941750E+03  0.98752174607E+03  0.80980218627E+02 0.  0.
         -6    2    1    2    0  503  0.50121993935E+02 -0.98149596587E+02  0.72155377263E+03  0.75054201008E+03  0.17472236412E+03 0.  0.
        -24    2    5    5    0    0  0.73674995266E+02 -0.15167852001E+02  0.26780322668E+03  0.28864119632E+03  0.77052601078E+02 0.  0.
          5    1    3    3  501    0 -0.68761349351E+02  0.68068874697E+02  0.43671696889E+03  0.44733130428E+03  0.47000000000E+01 0. -1.
        -13    1    4    4    0    0  0.23533545303E+02 -0.24140426900E+02  0.41054381516E+03  0.41192573618E+03  0.00000000000E+00 0.  1.
         14    1    4    4    0    0 -0.48941898866E+01  0.54221148790E+02  0.57301560235E+03  0.57559600989E+03  0.00000000000E+00 0. -1.
         -5    1    5    5    0  503 -0.23553001331E+02 -0.82981744586E+02  0.45375054595E+03  0.46190081376E+03  0.47000000000E+01 0.  1.
         11    1    6    6    0    0 -0.16245215679E+02 -0.58399684688E+01  0.44739697714E+02  0.47954695451E+02  0.00000000000E+00 0. -1.
        -12    1    6    6    0    0  0.89920210945E+02 -0.93278835317E+01  0.22306352896E+03  0.24068650087E+03  0.00000000000E+00 0.  1.
</event>
<event>
12    1  0.9017558E-003  0.2136408E+03  0.7818608E-02  0.1139031E+00
         21   -1    0    0  503  502  0.00000000000E+00  0.00000000000E+00  0.14528086665E+04  0.14528086665E+04  0.00000000000E+00 0. -1.
         21   -1    0    0  501  503 -0.00000000000E+00 -0.00000000000E+00 -0.41311688822E+02  0.41311688822E+02  0.00000000000E+00 0. -1.
          6    2    1    2  501    0 -0.12170032055E+03  0.34868999206E+02  0.33778161838E+03  0.39967336702E+03  0.17209172978E+03 0.  0.
         24    2    3    3    0    0 -0.12441672100E+03 -0.26948956172E+02  0.21365839124E+03  0.26090195802E+03  0.78829923558E+02 0.  0.
         -6    2    1    2    0  502  0.12170032055E+03 -0.34868999206E+02  0.10737153593E+04  0.10944469883E+04  0.17006681713E+03 0.  0.
        -24    2    5    5    0    0  0.12129490238E+03  0.91276755882E+01  0.54487558398E+03  0.56375925554E+03  0.78353866381E+02 0.  0.
          5    1    3    3  501    0  0.27164004520E+01  0.61817955378E+02  0.12412322714E+03  0.13877140899E+03  0.47000000000E+01 0. -1.
        -11    1    4    4    0    0 -0.37914757999E+02 -0.15668217071E+02  0.14560862130E+02  0.43532064117E+02  0.00000000000E+00 0.  1.
         12    1    4    4    0    0 -0.86501963005E+02 -0.11280739101E+02  0.19909752911E+03  0.21736989391E+03  0.00000000000E+00 0. -1.
         -5    1    5    5    0  502  0.40541817323E+00 -0.43996674794E+02  0.52883977531E+03  0.53068773277E+03  0.47000000000E+01 0.  1.
         11    1    6    6    0    0  0.47054585079E+01 -0.18515985302E+02  0.33801145766E+02  0.38826543840E+02  0.00000000000E+00 0. -1.
        -12    1    6    6    0    0  0.11658944387E+03  0.27643660890E+02  0.51107443822E+03  0.52493271170E+03  0.00000000000E+00 0.  1.
</event>
<event>
12    1  0.9017558E-003  0.2011071E+03  0.7818608E-02  0.1151990E+00
         21   -1    0    0  501  502  0.00000000000E+00  0.00000000000E+00  0.10300227577E+03  0.10300227577E+03  0.00000000000E+00 0.  1.
         21   -1    0    0  502  503 -0.00000000000E+00 -0.00000000000E+00 -0.38959466414E+03  0.38959466414E+03  0.00000000000E+00 0. -1.
          6    2    1    2  501    0 -0.88883886117E+02  0.56079793685E+02 -0.75997533946E+02  0.20140239579E+03  0.15408442943E+03 0.  0.
         24    2    3    3    0    0 -0.99841737296E+02  0.91375883562E+01 -0.85232681252E+02  0.15209698950E+03  0.76269366291E+02 0.  0.
         -6    2    1    2    0  503  0.88883886117E+02 -0.56079793685E+02 -0.21059485442E+03  0.29119454412E+03  0.17146072829E+03 0.  0.
        -24    2    5    5    0    0  0.10060210525E+03 -0.45366971875E+02 -0.22932020733E+03  0.26619834336E+03  0.78069551039E+02 0.  0.
          5    1    3    3  501    0  0.10957851179E+02  0.46942205329E+02  0.92351473064E+01  0.49305406290E+02  0.47000000000E+01 0. -1.
        -13    1    4    4    0    0 -0.11054470784E+03  0.56958005963E+01 -0.86905147831E+02  0.14073052013E+03  0.00000000000E+00 0.  1.
         14    1    4    4    0    0  0.10702970546E+02  0.34417877599E+01  0.16724665794E+01  0.11366469371E+02  0.00000000000E+00 0. -1.
         -5    1    5    5    0  503 -0.11718219137E+02 -0.10712821810E+02  0.18725352910E+02  0.24996200761E+02  0.47000000000E+01 0.  1.
         13    1    6    6    0    0  0.32641995726E+02 -0.10687575528E+02 -0.12843806858E+02  0.36669981323E+02  0.00000000000E+00 0. -1.
        -14    1    6    6    0    0  0.67960109528E+02 -0.34679396348E+02 -0.21647640047E+03  0.22952836204E+03  0.00000000000E+00 0.  1.
</event>
<event>
12    1  0.9017558E-003  0.2103951E+03  0.7818608E-02  0.1141529E+00
         21   -1    0    0  501  502  0.00000000000E+00  0.00000000000E+00  0.88764734981E+03  0.88764734981E+03  0.00000000000E+00 0. -1.
         21   -1    0    0  502  503 -0.00000000000E+00 -0.00000000000E+00 -0.62144978320E+02  0.62144978320E+02  0.00000000000E+00 0. -1.
          6    2    1    2  501    0  0.10592206532E+03 -0.55851626486E+02  0.62553795267E+03  0.65953061990E+03  0.17130096394E+03 0.  0.
         24    2    3    3    0    0  0.10646729945E+03 -0.42326145900E+02  0.26956544962E+03  0.30326983222E+03  0.78614699816E+02 0.  0.
         -6    2    1    2    0  503 -0.10592206532E+03  0.55851626486E+02  0.19996441882E+03  0.29026170824E+03  0.17299480447E+03 0.  0.
        -24    2    5    5    0    0 -0.13850466304E+02 -0.25626994983E+02  0.67047559179E+02  0.10914040447E+03  0.81041189572E+02 0.  0.
          5    1    3    3  501    0 -0.54523413736E+00 -0.13525480586E+02  0.35597250305E+03  0.35626078768E+03  0.47000000000E+01 0. -1.
        -13    1    4    4    0    0  0.69100808087E+02 -0.63262121138E+02  0.20953560022E+03  0.22952600160E+03  0.00000000000E+00 0.  1.
         14    1    4    4    0    0  0.37366491366E+02  0.20935975238E+02  0.60029849393E+02  0.73743830619E+02  0.00000000000E+00 0. -1.
         -5    1    5    5    0  503 -0.92071599012E+02  0.81478621469E+02  0.13291685964E+03  0.18112130377E+03  0.47000000000E+01 0.  1.
         11    1    6    6    0    0 -0.82872415222E+01  0.27517291246E+02  0.39991655636E+02  0.49246443629E+02  0.00000000000E+00 0. -1.
        -12    1    6    6    0    0 -0.55632247820E+01 -0.53144286229E+02  0.27055903543E+02  0.59893960841E+02  0.00000000000E+00 0.  1.
</event>
<event>
12    1  0.9017558E-003  0.1978646E+03  0.7818608E-02  0.1151696E+00
         21   -1    0    0  503  502  0.00000000000E+00  0.00000000000E+00  0.34916012297E+03  0.34916012297E+03  0.00000000000E+00 0.  1.
         21   -1    0    0  501  503 -0.00000000000E+00 -0.00000000000E+00 -0.19930708964E+03  0.19930708964E+03  0.00000000000E+00 0. -1.
          6    2    1    2  501    0 -0.66998849182E+01 -0.98321098073E+02  0.25661785008E+03  0.32363591680E+03  0.17080854451E+03 0.  0.
         24    2    3    3    0    0 -0.12486556696E+02 -0.13764398665E+03  0.19488777100E+03  0.25006644079E+03  0.73825472347E+02 0.  0.
         -6    2    1    2    0  502  0.66998849182E+01  0.98321098073E+02 -0.10676481675E+03  0.22483129581E+03  0.17157639318E+03 0.  0.
        -24    2    5    5    0    0 -0.30392627234E+02  0.12098942550E+03 -0.57227642078E+02  0.15875763086E+03  0.79792414840E+02 0.  0.
          5    1    3    3  501    0  0.57866717782E+01  0.39322888575E+02  0.61730079086E+02  0.73569476009E+02  0.47000000000E+01 0. -1.
        -13    1    4    4    0    0 -0.31905399902E+02 -0.13142766828E+03  0.17824810555E+03  0.22374890763E+03  0.00000000000E+00 0.  1.
         14    1    4    4    0    0  0.19418843206E+02 -0.62163183627E+01  0.16639665443E+02  0.26317533157E+02  0.00000000000E+00 0. -1.
         -5    1    5    5    0  502  0.37092512153E+02 -0.22668327423E+02 -0.49537174670E+02  0.66073664952E+02  0.47000000000E+01 0.  1.
         11    1    6    6    0    0 -0.18935377371E+02  0.52621244190E+02 -0.68602522438E+02  0.88509038754E+02  0.00000000000E+00 0. -1.
        -12    1    6    6    0    0 -0.11457249863E+02  0.68368181306E+02  0.11374880360E+02  0.70248592105E+02  0.00000000000E+00 0.  1.
</event>
<event>
12    1  0.9017558E-003  0.1956645E+03  0.7818608E-02  0.1153856E+00
         21   -1    0    0  503  502  0.00000000000E+00  0.00000000000E+00  0.14727419084E+03  0.14727419084E+03  0.00000000000E+00 0. -1.
         21   -1    0    0  501  503 -0.00000000000E+00 -0.00000000000E+00 -0.26688144198E+03  0.26688144198E+03  0.00000000000E+00 0. -1.
          6    2    1    2  501    0 -0.92985594015E+01  0.85201526035E+02 -0.98943645856E+02  0.21925888013E+03  0.17589442349E+03 0.  0.
         24    2    3    3    0    0 -0.24393523621E+02  0.10365264093E+03 -0.12593587247E+03  0.18294122763E+03  0.79175342274E+02 0.  0.
         -6    2    1    2    0  502  0.92985594015E+01 -0.85201526035E+02 -0.20663605284E+02  0.19489675269E+03  0.17381598425E+03 0.  0.
        -24    2    5    5    0    0  0.65020970079E+02 -0.24215901711E+02 -0.32899797822E+02  0.11125437208E+03  0.80504671696E+02 0.  0.
          5    1    3    3  501    0  0.15094964219E+02 -0.18451114897E+02  0.26992226613E+02  0.36317652502E+02  0.47000000000E+01 0. -1.
        -13    1    4    4    0    0  0.28015601878E+02  0.22035406010E+02 -0.31523394221E+02  0.47583163512E+02  0.00000000000E+00 0.  1.
         14    1    4    4    0    0 -0.52409125499E+02  0.81617234922E+02 -0.94412478249E+02  0.13535806411E+03  0.00000000000E+00 0. -1.
         -5    1    5    5    0  502 -0.55722410678E+02 -0.60985624324E+02  0.12236192538E+02  0.83642380608E+02  0.47000000000E+01 0.  1.
         11    1    6    6    0    0  0.35532222307E+02 -0.44803289336E+02  0.69172830463E+01  0.57599673282E+02  0.00000000000E+00 0. -1.
        -12    1    6    6    0    0  0.29488747772E+02  0.20587387626E+02 -0.39817080869E+02  0.53654698800E+02  0.00000000000E+00 0.  1.
</event>
<event>
12    1  0.9017558E-003  0.1874900E+03  0.7818608E-02  0.1160856E+00
         21   -1    0    0  501  502  0.00000000000E+00  0.00000000000E+00  0.10035160730E+03  0.10035160730E+03  0.00000000000E+00 0.  1.
         21   -1    0    0  502  503 -0.00000000000E+00 -0.00000000000E+00 -0.46045141165E+03  0.46045141165E+03  0.00000000000E+00 0.  1.
          6    2    1    2  501    0 -0.72903575286E+02  0.80908131013E+01 -0.42164750207E+02  0.19170247295E+03  0.17202203182E+03 0.  0.
         24    2    3    3    0    0 -0.84538965565E+02  0.22634611686E+02  0.24926076748E+02  0.12191584497E+03  0.81135698720E+02 0.  0.
         -6    2    1    2    0  503  0.72903575286E+02 -0.80908131013E+01 -0.31793505414E+03  0.36910054600E+03  0.17254599925E+03 0.  0.
        -24    2    5    5    0    0  0.11657283457E+03 -0.12597170429E+02 -0.22025895461E+03  0.26190902635E+03  0.79589047858E+02 0.  0.
          5    1    3    3  501    0  0.11635390279E+02 -0.14543798584E+02 -0.67090826955E+02  0.69786627987E+02  0.47000000000E+01 0. -1.
        -11    1    4    4    0    0 -0.51457815890E+02 -0.12773527402E+02 -0.19189229014E+02  0.56385249211E+02  0.00000000000E+00 0.  1.
         12    1    4    4    0    0 -0.33081149675E+02  0.35408139088E+02  0.44115305762E+02  0.65530595755E+02  0.00000000000E+00 0. -1.
         -5    1    5    5    0  503 -0.43669259285E+02  0.45063573273E+01 -0.97676099534E+02  0.10719151964E+03  0.47000000000E+01 0.  1.
         13    1    6    6    0    0  0.93419073827E+02 -0.13143284033E+02 -0.92689842206E+02  0.13225458827E+03  0.00000000000E+00 0. -1.
        -14    1    6    6    0    0  0.23153760743E+02  0.54611360453E+00 -0.12756911240E+03  0.12965443809E+03  0.00000000000E+00 0.  1.
</event>
<event>
12    1  0.9017558E-003  0.1860336E+03  0.7818608E-02  0.1162443E+00
         21   -1    0    0  501  502  0.00000000000E+00  0.00000000000E+00  0.83002574584E+02  0.83002574584E+02  0.00000000000E+00 0.  1.
         21   -1    0    0  502  503 -0.00000000000E+00 -0.00000000000E+00 -0.43825003949E+03  0.43825003949E+03  0.00000000000E+00 0. -1.
          6    2    1    2  501    0  0.37212494981E+02  0.56349415882E+02 -0.11643808450E+03  0.21946826470E+03  0.17334493139E+03 0.  0.
         24    2    3    3    0    0 -0.24642666904E+02 -0.47861589189E+01 -0.99529296342E+02  0.13074613288E+03  0.80983344485E+02 0.  0.
         -6    2    1    2    0  503 -0.37212494981E+02 -0.56349415882E+02 -0.23880938040E+03  0.30178434937E+03  0.17170861044E+03 0.  0.
        -24    2    5    5    0    0 -0.16817762577E+02 -0.10377682654E+03 -0.17832036207E+03  0.22212058263E+03  0.80541510015E+02 0.  0.
          5    1    3    3  501    0  0.61855161884E+02  0.61135574801E+02 -0.16908788155E+02  0.88722131821E+02  0.47000000000E+01 0. -1.
        -11    1    4    4    0    0  0.21015835856E+02 -0.34555217532E+01 -0.68781919151E-01  0.21298138845E+02  0.00000000000E+00 0.  1.
         12    1    4    4    0    0 -0.45658502759E+02 -0.13306371657E+01 -0.99460514423E+02  0.10944799404E+03  0.00000000000E+00 0. -1.
         -5    1    5    5    0  503 -0.20394732403E+02  0.47427410655E+02 -0.60489018338E+02  0.79663766737E+02  0.47000000000E+01 0.  1.
         13    1    6    6    0    0 -0.44722155466E+02 -0.36006630456E+02 -0.60845933704E+02  0.83658689176E+02  0.00000000000E+00 0. -1.
        -14    1    6    6    0    0  0.27904392889E+02 -0.67770196081E+02 -0.11747442836E+03  0.13846189345E+03  0.00000000000E+00 0.  1.
</event>
<event>
12    1  0.9017558E-003  0.2100004E+03  0.7818608E-02  0.1141664E+00
         21   -1    0    0  503  502  0.00000000000E+00  0.00000000000E+00  0.57722093813E+03  0.57722093813E+03  0.00000000000E+00 0. -1.
         21   -1    0    0  501  503 -0.00000000000E+00 -0.00000000000E+00 -0.86318763091E+02  0.86318763091E+02  0.00000000000E+00 0. -1.
          6    2    1    2  501    0  0.10703735719E+03 -0.52062545862E+02  0.35866930669E+03  0.41537505650E+03  0.17241015480E+03 0.  0.
         24    2    3    3    0    0  0.73495766819E+02 -0.92809381332E+02  0.31568500998E+03  0.34714689039E+03  0.82696608038E+02 0.  0.
         -6    2    1    2    0  502 -0.10703735719E+03  0.52062545862E+02  0.13223286834E+03  0.24816464472E+03  0.17301056298E+03 0.  0.
        -24    2    5    5    0    0 -0.59153041843E+02  0.16738862617E+02 -0.31197666642E+01  0.10023528301E+03  0.79108198908E+02 0.  0.
          5    1    3    3  501    0  0.33541590374E+02  0.40746835470E+02  0.42984296717E+02  0.68228166104E+02  0.47000000000E+01 0. -1.
        -11    1    4    4    0    0  0.22243077045E+02 -0.53426858538E+02  0.24336786264E+03  0.25015415299E+03  0.00000000000E+00 0.  1.
         12    1    4    4    0    0  0.51252689774E+02 -0.39382522794E+02  0.72317147336E+02  0.96992737405E+02  0.00000000000E+00 0. -1.
         -5    1    5    5    0  502 -0.47884315351E+02  0.35323683245E+02  0.13535263500E+03  0.14792936171E+03  0.47000000000E+01 0.  1.
         11    1    6    6    0    0 -0.76250149370E+02  0.24712674631E+02  0.35298054878E+01  0.80232543853E+02  0.00000000000E+00 0. -1.
        -12    1    6    6    0    0  0.17097107527E+02 -0.79738120146E+01 -0.66495721520E+01  0.20002739154E+02  0.00000000000E+00 0.  1.
</event>
<event>
12    1  0.9017558E-003  0.2621874E+03  0.7818608E-02  0.1105895E+00
         21   -1    0    0  501  502  0.00000000000E+00  0.00000000000E+00  0.26124005359E+03  0.26124005359E+03  0.00000000000E+00 0. -1.
         21   -1    0    0  502  503 -0.00000000000E+00 -0.00000000000E+00 -0.32913935811E+03  0.32913935811E+03  0.00000000000E+00 0.  1.
          6    2    1    2  501    0  0.12167176013E+03  0.15581593538E+03  0.98654034646E+02  0.27976349891E+03  0.17161693926E+03 0.  0.
         24    2    3    3    0    0  0.68558715967E+01  0.86201504190E+02  0.97798806801E+01  0.11867481982E+03  0.80686829736E+02 0.  0.
         -6    2    1    2    0  503 -0.12167176013E+03 -0.15581593538E+03 -0.16655333916E+03  0.31061591278E+03  0.17221964916E+03 0.  0.
        -24    2    5    5    0    0 -0.68904553759E+02 -0.29259350863E+02 -0.12821893706E+03  0.16816394356E+03  0.78962452779E+02 0.  0.
          5    1    3    3  501    0  0.11481588853E+03  0.69614431186E+02  0.88874153966E+02  0.16108867910E+03  0.47000000000E+01 0. -1.
        -11    1    4    4    0    0 -0.99056748399E+01  0.66935000633E+02 -0.27871966594E+02  0.73179664017E+02  0.00000000000E+00 0.  1.
         12    1    4    4    0    0  0.16761546437E+02  0.19266503557E+02  0.37651847274E+02  0.45495155802E+02  0.00000000000E+00 0. -1.
         -5    1    5    5    0  503 -0.52767206372E+02 -0.12655658451E+03 -0.38334402098E+02  0.14245196923E+03  0.47000000000E+01 0.  1.
         11    1    6    6    0    0 -0.17875840800E+01  0.23144158402E+02 -0.33991208148E+02  0.41161265242E+02  0.00000000000E+00 0. -1.
        -12    1    6    6    0    0 -0.67116969679E+02 -0.52403509265E+02 -0.94227728916E+02  0.12700267831E+03  0.00000000000E+00 0.  1.
</event>
<event>
12    1  0.9017558E-003  0.2635644E+03  0.7818608E-02  0.1105304E+00
         21   -1    0    0  501  502  0.00000000000E+00  0.00000000000E+00  0.36941576791E+03  0.36941576791E+03  0.00000000000E+00 0.  1.
         21   -1    0    0  502  503 -0.00000000000E+00 -0.00000000000E+00 -0.18717651409E+03  0.18717651409E+03  0.00000000000E+00 0. -1.
          6    2    1    2  501    0  0.85454957035E+02  0.17949861452E+03  0.10513509620E+03  0.28198117112E+03  0.17011081716E+03 0.  0.
         24    2    3    3    0    0  0.10303580866E+03  0.15641924793E+03  0.13160308309E+03  0.24242882812E+03  0.79806053879E+02 0.  0.
         -6    2    1    2    0  503 -0.85454957035E+02 -0.17949861452E+03  0.77104157621E+02  0.27461111088E+03  0.17304308365E+03 0.  0.
        -24    2    5    5    0    0 -0.10058391034E+02 -0.13332449041E+03 -0.31023391123E+01  0.15514620382E+03  0.78639233698E+02 0.  0.
          5    1    3    3  501    0 -0.17580851629E+02  0.23079366598E+02 -0.26467986894E+02  0.39552343000E+02  0.47000000000E+01 0. -1.
        -13    1    4    4    0    0  0.30219069781E+02  0.11423342362E+03  0.63335831139E+02  0.13406675485E+03  0.00000000000E+00 0.  1.
         14    1    4    4    0    0  0.72816738884E+02  0.42185824307E+02  0.68267251951E+02  0.10836207327E+03  0.00000000000E+00 0. -1.
         -5    1    5    5    0  503 -0.75396566002E+02 -0.46174124111E+02  0.80206496733E+02  0.11946490707E+03  0.47000000000E+01 0.  1.
         13    1    6    6    0    0  0.31799920881E+02 -0.30895573587E+02 -0.37195714416E+01  0.44492770728E+02  0.00000000000E+00 0. -1.
        -14    1    6    6    0    0 -0.41858311915E+02 -0.10242891683E+03  0.61723232933E+00  0.11065343309E+03  0.00000000000E+00 0.  1.
</event>
<event>
12    1  0.9017558E-003  0.1822221E+03  0.7818608E-02  0.1166244E+00
         21   -1    0    0  501  502  0.00000000000E+00  0.00000000000E+00  0.28447342265E+03  0.28447342265E+03  0.00000000000E+00 0.  1.
         21   -1    0    0  502  503 -0.00000000000E+00 -0.00000000000E+00 -0.13011843155E+03  0.13011843155E+03  0.00000000000E+00 0.  1.
          6    2    1    2  501    0 -0.20535519141E+02 -0.52712642739E+02  0.14783362996E+03  0.23464797294E+03  0.17321824040E+03 0.  0.
         24    2    3    3    0    0  0.17633570087E+02 -0.86055822868E+02  0.13916714517E+03  0.18301615143E+03  0.80067908344E+02 0.  0.
         -6    2    1    2    0  503  0.20535519141E+02  0.52712642739E+02  0.65213611455E+01  0.17994388126E+03  0.17069546567E+03 0.  0.
        -24    2    5    5    0    0 -0.29067032925E+02  0.44698157465E+02 -0.45873762394E+02  0.10719785652E+03  0.80895986807E+02 0.  0.
          5    1    3    3  501    0 -0.38169089228E+02  0.33343180129E+02  0.86664847902E+01  0.51631821508E+02  0.47000000000E+01 0. -1.
        -11    1    4    4    0    0  0.49508845897E+02 -0.45245380061E+02  0.77603436324E+02  0.10256979852E+03  0.00000000000E+00 0.  1.
         12    1    4    4    0    0 -0.31875275810E+02 -0.40810442807E+02  0.61563708845E+02  0.80446352912E+02  0.00000000000E+00 0. -1.
         -5    1    5    5    0  503  0.49602552066E+02  0.80144852740E+01  0.52395123540E+02  0.72746024747E+02  0.47000000000E+01 0.  1.
         13    1    6    6    0    0  0.18331828182E+02  0.94915469383E+01 -0.43449868492E+02  0.48104432849E+02  0.00000000000E+00 0. -1.
        -14    1    6    6    0    0 -0.47398861106E+02  0.35206610527E+02 -0.24238939027E+01  0.59093423666E+02  0.00000000000E+00 0.  1.
</event>
<event>
12    1  0.9017558E-003  0.2083646E+03  0.7818608E-02  0.1143170E+00
         21   -1    0    0  503  502  0.00000000000E+00  0.00000000000E+00  0.14707992584E+04  0.14707992584E+04  0.00000000000E+00 0. -1.
         21   -1    0    0  501  503 -0.00000000000E+00 -0.00000000000E+00 -0.36022497463E+02  0.36022497463E+02  0.00000000000E+00 0. -1.
          6    2    1    2  501    0 -0.40490417937E+02 -0.10726697577E+03  0.38993464251E+03  0.44140594957E+03  0.17217580797E+03 0.  0.
         24    2    3    3    0    0 -0.28772908919E+02 -0.13188302126E+03  0.37910008767E+03  0.41169522269E+03  0.86919896033E+02 0.  0.
         -6    2    1    2    0  502  0.40490417937E+02  0.10726697577E+03  0.10448421184E+04  0.10654158062E+04  0.17398307339E+03 0.  0.
        -24    2    5    5    0    0 -0.41522907614E-01  0.33285336194E+00  0.63133350440E+03  0.63635962275E+03  0.79821445557E+02 0.  0.
          5    1    3    3  501    0 -0.11717509018E+02  0.24616045495E+02  0.10834554843E+02  0.29710726885E+02  0.47000000000E+01 0. -1.
        -13    1    4    4    0    0  0.91582146317E+01 -0.15366353038E+02  0.58105838221E+01  0.18808524272E+02  0.00000000000E+00 0.  1.
         14    1    4    4    0    0 -0.37931123551E+02 -0.11651666822E+03  0.37328950385E+03  0.39288669841E+03  0.00000000000E+00 0. -1.
         -5    1    5    5    0  502  0.40531940845E+02  0.10693412240E+03  0.41350861398E+03  0.42905618350E+03  0.47000000000E+01 0.  1.
         11    1    6    6    0    0  0.39251109425E+02 -0.35115744936E+01  0.36391598160E+03  0.36604347066E+03  0.00000000000E+00 0. -1.
        -12    1    6    6    0    0 -0.39292632332E+02  0.38444278555E+01  0.26741752280E+03  0.27031615209E+03  0.00000000000E+00 0.  1.
</event>
<event>
12    1  0.9017558E-003  0.1768979E+03  0.7818608E-02  0.1171160E+00
         21   -1    0    0  503  502  0.00000000000E+00  0.00000000000E+00  0.87571604980E+03  0.87571604980E+03  0.00000000000E+00 0. -1.
         21   -1    0    0  501  503 -0.00000000000E+00 -0.00000000000E+00 -0.37870474999E+02  0.37870474999E+02  0.00000000000E+00 0. -1.
          6    2    1    2  501    0  0.24229762267E+02 -0.27132979294E+02  0.30258440795E+03  0.34985130324E+03  0.17180026340E+03 0.  0.
         24    2    3    3    0    0 -0.24798039791E+02 -0.65722659173E+02  0.19330527870E+03  0.22392709248E+03  0.88555074761E+02 0.  0.
         -6    2    1    2    0  502 -0.24229762267E+02  0.27132979294E+02  0.53526116685E+03  0.56373522155E+03  0.17311731091E+03 0.  0.
        -24    2    5    5    0    0  0.42612101730E+02  0.19989568892E+02  0.27535312654E+03  0.29523355953E+03  0.95541280582E+02 0.  0.
          5    1    3    3  501    0  0.49027802058E+02  0.38589679879E+02  0.10927912925E+03  0.12592421076E+03  0.47000000000E+01 0. -1.
        -11    1    4    4    0    0 -0.14562393334E+02 -0.22417663941E+02  0.17293327507E+03  0.17498723549E+03  0.00000000000E+00 0.  1.
         12    1    4    4    0    0 -0.10235646458E+02 -0.43304995231E+02  0.20372003627E+02  0.48939856990E+02  0.00000000000E+00 0. -1.
         -5    1    5    5    0  502 -0.66841863996E+02  0.71434104020E+01  0.25990804031E+03  0.26850166203E+03  0.47000000000E+01 0.  1.
         11    1    6    6    0    0 -0.22807856318E+02 -0.18442557194E+02  0.98937918659E+02  0.10319417607E+03  0.00000000000E+00 0. -1.
        -12    1    6    6    0    0  0.65419958048E+02  0.38432126086E+02  0.17641520788E+03  0.19203938346E+03  0.00000000000E+00 0.  1.
</event>
<event>
12    1  0.9017558E-003  0.2000321E+03  0.7818608E-02  0.1149881E+00
         21   -1    0    0  501  502  0.00000000000E+00  0.00000000000E+00  0.78098759363E+02  0.78098759363E+02  0.00000000000E+00 0. -1.
         21   -1    0    0  502  503 -0.00000000000E+00 -0.00000000000E+00 -0.52906842272E+03  0.52906842272E+03  0.00000000000E+00 0. -1.
          6    2    1    2  501    0  0.78815629322E+01  0.99768788580E+02 -0.16872117769E+03  0.26168618358E+03  0.17319611043E+03 0.  0.
         24    2    3    3    0    0 -0.17624480408E+02  0.11866121279E+03 -0.17761725285E+03  0.22838885497E+03  0.78882664958E+02 0.  0.
         -6    2    1    2    0  503 -0.78815629322E+01 -0.99768788580E+02 -0.28224848566E+03  0.34548099850E+03  0.17227008578E+03 0.  0.
        -24    2    5    5    0    0 -0.62424537357E+02 -0.53002522138E+02 -0.22949476381E+03  0.25622258206E+03  0.79221680891E+02 0.  0.
          5    1    3    3  501    0  0.25506043340E+02 -0.18892424214E+02  0.88960751619E+01  0.33297328614E+02  0.47000000000E+01 0. -1.
        -13    1    4    4    0    0 -0.24558908871E+02  0.14975170859E+02 -0.83023914461E+02  0.87865613977E+02  0.00000000000E+00 0.  1.
         14    1    4    4    0    0  0.69344284627E+01  0.10368604193E+03 -0.94593338393E+02  0.14052324099E+03  0.00000000000E+00 0. -1.
         -5    1    5    5    0  503  0.54542974425E+02 -0.46766266442E+02 -0.52753721852E+02  0.89258416439E+02  0.47000000000E+01 0.  1.
         13    1    6    6    0    0 -0.54383396122E+01  0.15607019269E+01 -0.12579469290E+03  0.12592186502E+03  0.00000000000E+00 0. -1.
        -14    1    6    6    0    0 -0.56986197745E+02 -0.54563224065E+02 -0.10370007091E+03  0.13030071703E+03  0.00000000000E+00 0.  1.
</event>
<event>
12    1  0.9017558E-003  0.2920584E+03  0.7818608E-02  0.1089359E+00
         21   -1    0    0  503  502  0.00000000000E+00  0.00000000000E+00  0.69025528545E+03  0.69025528545E+03  0.00000000000E+00 0. -1.
         21   -1    0    0  501  503 -0.00000000000E+00 -0.00000000000E+00 -0.16974968384E+03  0.16974968384E+03  0.00000000000E+00 0. -1.
          6    2    1    2  501    0 -0.49234999611E+02 -0.23089397121E+03  0.35553966245E+02  0.29421458384E+03  0.17193610936E+03 0.  0.
         24    2    3    3    0    0 -0.56917105931E+02 -0.10010418513E+03 -0.37901012963E+02  0.14393914716E+03  0.77598881908E+02 0.  0.
         -6    2    1    2    0  502  0.49234999611E+02  0.23089397121E+03  0.48495163536E+03  0.56579038545E+03  0.17089341852E+03 0.  0.
        -24    2    5    5    0    0  0.33011608430E+02  0.38019312984E+02  0.11870451471E+03  0.15151647172E+03  0.79569120513E+02 0.  0.
          5    1    3    3  501    0  0.76821063206E+01 -0.13078978608E+03  0.73454979207E+02  0.15027543668E+03  0.47000000000E+01 0. -1.
        -11    1    4    4    0    0  0.64253956408E+01  0.97254989623E+01 -0.64003208650E+01  0.13297937674E+02  0.00000000000E+00 0.  1.
         12    1    4    4    0    0 -0.63342501572E+02 -0.10982968409E+03 -0.31500692098E+02  0.13064120949E+03  0.00000000000E+00 0. -1.
         -5    1    5    5    0  502  0.16223391181E+02  0.19287465823E+03  0.36624712066E+03  0.41427391373E+03  0.47000000000E+01 0.  1.
         11    1    6    6    0    0  0.26826204503E+02  0.71607641561E+01  0.11672506655E+03  0.11998192760E+03  0.00000000000E+00 0. -1.
        -12    1    6    6    0    0  0.61854039263E+01  0.30858548828E+02  0.19794481615E+01  0.31534544115E+02  0.00000000000E+00 0.  1.
</event>
<event>
12    1  0.9017558E-003  0.1735414E+03  0.7818608E-02  0.1174571E+00
         21   -1    0    0  503  502  0.00000000000E+00  0.00000000000E+00  0.48704727300E+03  0.48704727300E+03  0.00000000000E+00 0. -1.
         21   -1    0    0  501  503 -0.00000000000E+00 -0.00000000000E+00 -0.65174003123E+02  0.65174003123E+02  0.00000000000E+00 0. -1.
          6    2    1    2  501    0  0.50182633377E+01 -0.11533139104E+02  0.14299952435E+03  0.22375943843E+03  0.17164272795E+03 0.  0.
         24    2    3    3    0    0 -0.37633215360E+02 -0.34518647570E+02  0.14949967609E+03  0.17464911154E+03  0.74460480019E+02 0.  0.
         -6    2    1    2    0  502 -0.50182633377E+01  0.11533139104E+02  0.27887374553E+03  0.32846183769E+03  0.17308499822E+03 0.  0.
        -24    2    5    5    0    0  0.63939519443E+01 -0.22515589241E+02  0.27946440089E+03  0.29224038778E+03  0.82196462879E+02 0.  0.
          5    1    3    3  501    0  0.42651478698E+02  0.22985508466E+02 -0.65001517383E+01  0.49110326889E+02  0.47000000000E+01 0. -1.
        -11    1    4    4    0    0 -0.10995185401E+02 -0.36380436657E+02  0.21034953259E+02  0.43438456832E+02  0.00000000000E+00 0.  1.
         12    1    4    4    0    0 -0.26638029959E+02  0.18617890871E+01  0.12846472283E+03  0.13121065471E+03  0.00000000000E+00 0. -1.
         -5    1    5    5    0  502 -0.11412215282E+02  0.34048728345E+02 -0.59065535643E+00  0.36221449906E+02  0.47000000000E+01 0.  1.
         11    1    6    6    0    0  0.42908784816E+02 -0.67983610528E+00  0.14177575344E+03  0.14812828985E+03  0.00000000000E+00 0. -1.
        -12    1    6    6    0    0 -0.36514832871E+02 -0.21835753136E+02  0.13768864744E+03  0.14411209793E+03  0.00000000000E+00 0.  1.
</event>
<event>
12    1  0.9017558E-003  0.2792104E+03  0.7818608E-02  0.1096450E+00
         21   -1    0    0  501  502  0.00000000000E+00  0.00000000000E+00  0.32663703851E+03  0.32663703851E+03  0.00000000000E+00 0. -1.
         21   -1    0    0  502  503 -0.00000000000E+00 -0.00000000000E+00 -0.24170739265E+03  0.24170739265E+03  0.00000000000E+00 0.  1.
          6    2    1    2  501    0  0.19655351023E+03 -0.10108947663E+03  0.11052774481E+01  0.27682263886E+03  0.16666489455E+03 0.  0.
         24    2    3    3    0    0  0.21720333213E+03 -0.97798455953E+02 -0.12802944401E+02  0.25127318491E+03  0.78946010619E+02 0.  0.
         -6    2    1    2    0  503 -0.19655351023E+03  0.10108947663E+03  0.83824368420E+02  0.29152179230E+03  0.17060499986E+03 0.  0.
        -24    2    5    5    0    0 -0.12123132823E+03  0.20372575822E+02  0.10260814100E+03  0.17943446345E+03  0.80970484024E+02 0.  0.
          5    1    3    3  501    0 -0.20649821907E+02 -0.32910206780E+01  0.13908221850E+02  0.25549453946E+02  0.47000000000E+01 0. -1.
        -13    1    4    4    0    0  0.11543214707E+03 -0.19038492000E+02 -0.31688199742E+02  0.12120720589E+03  0.00000000000E+00 0.  1.
         14    1    4    4    0    0  0.10177118506E+03 -0.78759963952E+02  0.18885255341E+02  0.13006597902E+03  0.00000000000E+00 0. -1.
         -5    1    5    5    0  503 -0.75322182002E+02  0.80716900809E+02 -0.18783772585E+02  0.11208732886E+03  0.47000000000E+01 0.  1.
         13    1    6    6    0    0 -0.13243660791E+03  0.23680556438E+02  0.99533380784E+02  0.16735327232E+03  0.00000000000E+00 0. -1.
        -14    1    6    6    0    0  0.11205279682E+02 -0.33079806162E+01  0.30747602201E+01  0.12081191122E+02  0.00000000000E+00 0.  1.
</event>
<event>
12    1  0.9017558E-003  0.2187193E+03  0.7818608E-02  0.1135143E+00
         21   -1    0    0  503  502  0.00000000000E+00  0.00000000000E+00  0.16987299290E+04  0.16987299290E+04  0.00000000000E+00 0. -1.
         21   -1    0    0  501  503 -0.00000000000E+00 -0.00000000000E+00 -0.29163256595E+02  0.29163256595E+02  0.00000000000E+00 0. -1.
          6    2    1    2  501    0 -0.13060936461E+03  0.14379661955E+02  0.65603109599E+03  0.69102651207E+03  0.17284461429E+03 0.  0.
         24    2    3    3    0    0 -0.48489611601E+02 -0.53095318248E+02  0.39566626387E+03  0.40976424551E+03  0.78642159715E+02 0.  0.
         -6    2    1    2    0  502  0.13060936461E+03 -0.14379661955E+02  0.10135355765E+04  0.10368666736E+04  0.17485008776E+03 0.  0.
        -24    2    5    5    0    0  0.22349705584E+02  0.22151557498E+02  0.65273750667E+03  0.65838018645E+03  0.80050087123E+02 0.  0.
          5    1    3    3  501    0 -0.82119753005E+02  0.67474980204E+02  0.26036483212E+03  0.28126226656E+03  0.47000000000E+01 0. -1.
        -11    1    4    4    0    0 -0.42643687816E+02 -0.65310208388E+02  0.21712459870E+03  0.23070977177E+03  0.00000000000E+00 0.  1.
         12    1    4    4    0    0 -0.58459237851E+01  0.12214890139E+02  0.17854166517E+03  0.17905447374E+03  0.00000000000E+00 0. -1.
         -5    1    5    5    0  502  0.10825965902E+03 -0.36531219453E+02  0.36079806979E+03  0.37848648712E+03  0.47000000000E+01 0.  1.
         11    1    6    6    0    0  0.45923023730E+02  0.13249371588E+02  0.56714906702E+03  0.56915949801E+03  0.00000000000E+00 0. -1.
        -12    1    6    6    0    0 -0.23573318147E+02  0.89021859095E+01  0.85588439650E+02  0.89220688431E+02  0.00000000000E+00 0.  1.
</event>
<event>
12    1  0.9017558E-003  0.2666708E+03  0.7818608E-02  0.1103321E+00
         21   -1    0    0  501  502  0.00000000000E+00  0.00000000000E+00  0.65279334551E+02  0.65279334551E+02  0.00000000000E+00 0.  1.
         21   -1    0    0  502  503 -0.00000000000E+00 -0.00000000000E+00 -0.11014381213E+04  0.11014381213E+04  0.00000000000E+00 0.  1.
          6    2    1    2  501    0 -0.42879597607E+02 -0.19934691475E+03 -0.58635457570E+03  0.64380527217E+03  0.17057458109E+03 0.  0.
         24    2    3    3    0    0 -0.28378795752E+02 -0.36248888658E+02 -0.29689548744E+03  0.31120958196E+03  0.81148847574E+02 0.  0.
         -6    2    1    2    0  503  0.42879597607E+02  0.19934691475E+03 -0.44980421100E+03  0.52291218364E+03  0.17185887015E+03 0.  0.
        -24    2    5    5    0    0  0.93547324171E+02  0.12822510430E+03 -0.32277015973E+03  0.36868744301E+03  0.80975770416E+02 0.  0.
          5    1    3    3  501    0 -0.14500801856E+02 -0.16309802609E+03 -0.28945908826E+03  0.33259569021E+03  0.47000000000E+01 0. -1.
        -11    1    4    4    0    0 -0.62320600386E+01 -0.43136321738E+02 -0.65628252399E+02  0.78782284420E+02  0.00000000000E+00 0.  1.
         12    1    4    4    0    0 -0.22146735713E+02  0.68874330805E+01 -0.23126723504E+03  0.23242729754E+03  0.00000000000E+00 0. -1.
         -5    1    5    5    0  503 -0.50667726564E+02  0.71121810452E+02 -0.12703405127E+03  0.15422474062E+03  0.47000000000E+01 0.  1.
         13    1    6    6    0    0  0.56381283359E+02  0.63123915563E+02 -0.87384732934E+02  0.12165348075E+03  0.00000000000E+00 0. -1.
        -14    1    6    6    0    0  0.37166040811E+02  0.65101188735E+02 -0.23538542679E+03  0.24703396226E+03  0.00000000000E+00 0.  1.
</event>
<event>
12    1  0.9017558E-003  0.2420120E+03  0.7818608E-02  0.1120790E+00
         21   -1    0    0  501  502  0.00000000000E+00  0.00000000000E+00  0.39334042186E+03  0.39334042186E+03  0.00000000000E+00 0.  1.
         21   -1    0    0  502  503 -0.00000000000E+00 -0.00000000000E+00 -0.16202169956E+03  0.16202169956E+03  0.00000000000E+00 0.  1.
          6    2    1    2  501    0  0.12385684681E+02 -0.14765918228E+03  0.11776646018E+02  0.22860759067E+03  0.17368391354E+03 0.  0.
         24    2    3    3    0    0 -0.81326911667E+01 -0.17068140202E+03 -0.13528263950E+02  0.18843975755E+03  0.78283118485E+02 0.  0.
         -6    2    1    2    0  503 -0.12385684681E+02  0.14765918228E+03  0.21954207628E+03  0.32675453076E+03  0.19134565795E+03 0.  0.
        -24    2    5    5    0    0 -0.70033240203E+01  0.15120272245E+03  0.80465889323E+02  0.18744982063E+03  0.75837761618E+02 0.  0.
          5    1    3    3  501    0  0.20518375847E+02  0.23022219737E+02  0.25304909968E+02  0.40167833120E+02  0.47000000000E+01 0. -1.
        -11    1    4    4    0    0 -0.17491821491E+02 -0.98917629876E+00 -0.52443903344E+01  0.18287862609E+02  0.00000000000E+00 0.  1.
         12    1    4    4    0    0  0.93591303247E+01 -0.16969222572E+03 -0.82838736155E+01  0.17015189494E+03  0.00000000000E+00 0. -1.
         -5    1    5    5    0  503 -0.53823606604E+01 -0.35435401695E+01  0.13907618696E+03  0.13930471012E+03  0.47000000000E+01 0.  1.
         11    1    6    6    0    0  0.32356399563E+02  0.72629749983E+02  0.24247129999E+02  0.83126051804E+02  0.00000000000E+00 0. -1.
        -12    1    6    6    0    0 -0.39359723584E+02  0.78572972466E+02  0.56218759324E+02  0.10432376883E+03  0.00000000000E+00 0.  1.
</event>
<event>
12    1  0.9017558E-003  0.3350147E+03  0.7818608E-02  0.1069254E+00
         21   -1    0    0  503  502  0.00000000000E+00  0.00000000000E+00  0.13470272447E+04  0.13470272447E+04  0.00000000000E+00 0.  1.
         21   -1    0    0  501  503 -0.00000000000E+00 -0.00000000000E+00 -0.83405234302E+02  0.83405234302E+02  0.00000000000E+00 0.  1.
          6    2    1    2  501    0 -0.27094758139E+03  0.85679175339E+02  0.55896650397E+03  0.65019261838E+03  0.17191095221E+03 0.  0.
         24    2    3    3    0    0 -0.81821196161E+02 -0.64972239111E+01  0.26415405117E+03  0.28797479649E+03  0.80094934957E+02 0.  0.
         -6    2    1    2    0  502  0.27094758139E+03 -0.85679175339E+02  0.70465550638E+03  0.78023986057E+03  0.17742982954E+03 0.  0.
        -24    2    5    5    0    0  0.15315056978E+03 -0.49671165155E+02  0.57029812107E+03  0.59790305757E+03  0.79534883480E+02 0.  0.
          5    1    3    3  501    0 -0.18912638523E+03  0.92176399250E+02  0.29481245280E+03  0.36221782189E+03  0.47000000000E+01 0. -1.
        -11    1    4    4    0    0 -0.97277300718E+02 -0.93120654501E+01  0.24031976007E+03  0.25942855448E+03  0.00000000000E+00 0.  1.
         12    1    4    4    0    0  0.15456104557E+02  0.28148415390E+01  0.23834291101E+02  0.28546242017E+02  0.00000000000E+00 0. -1.
         -5    1    5    5    0  502  0.11779701161E+03 -0.36008010184E+02  0.13435738532E+03  0.18233680300E+03  0.47000000000E+01 0.  1.
         11    1    6    6    0    0  0.67748083602E+01  0.16831618161E+02  0.43951178803E+02  0.47549001213E+02  0.00000000000E+00 0. -1.
        -12    1    6    6    0    0  0.14637576142E+03 -0.66502783316E+02  0.52634694226E+03  0.55035405636E+03  0.00000000000E+00 0.  1.
</event>
<event>
12    1  0.9017558E-003  0.2511023E+03  0.7818608E-02  0.1112737E+00
         21   -1    0    0  503  502  0.00000000000E+00  0.00000000000E+00  0.66979592195E+03  0.66979592195E+03  0.00000000000E+00 0. -1.
         21   -1    0    0  501  503 -0.00000000000E+00 -0.00000000000E+00 -0.12696727597E+03  0.12696727597E+03  0.00000000000E+00 0.  1.
          6    2    1    2  501    0 -0.10867001974E+03  0.14630912402E+03  0.47524660330E+03  0.53750505757E+03  0.17273337837E+03 0.  0.
         24    2    3    3    0    0 -0.41775485368E+02  0.85050464819E+01  0.25029074668E+03  0.26530647208E+03  0.76971028713E+02 0.  0.
         -6    2    1    2    0  502  0.10867001974E+03 -0.14630912402E+03  0.67582042687E+02  0.25925814035E+03  0.17155733118E+03 0.  0.
        -24    2    5    5    0    0  0.64242404357E+02 -0.74998810048E+01  0.42333216046E+02  0.11126688317E+03  0.80030515284E+02 0.  0.
          5    1    3    3  501    0 -0.66894534370E+02  0.13780407754E+03  0.22495585662E+03  0.27219858549E+03  0.47000000000E+01 0. -1.
        -13    1    4    4    0    0 -0.13582291432E+02  0.13207456474E+02  0.22870592698E+03  0.22948925157E+03  0.00000000000E+00 0.  1.
         14    1    4    4    0    0 -0.28193193936E+02 -0.47024099920E+01  0.21584819695E+02  0.35817220514E+02  0.00000000000E+00 0. -1.
         -5    1    5    5    0  502  0.44427615381E+02 -0.13880924301E+03  0.25248826640E+02  0.14799125718E+03  0.47000000000E+01 0.  1.
         13    1    6    6    0    0  0.36597474751E+02 -0.64142047461E+01  0.65418913614E+02  0.75233977956E+02  0.00000000000E+00 0. -1.
        -14    1    6    6    0    0  0.27644929606E+02 -0.10856762587E+01 -0.23085697568E+02  0.36032905212E+02  0.00000000000E+00 0.  1.
</event>
<event>
12    1  0.9017558E-003  0.2069320E+03  0.7818608E-02  0.1144197E+00
         21   -1    0    0  503  502  0.00000000000E+00  0.00000000000E+00  0.23284226396E+03  0.23284226396E+03  0.00000000000E+00 0. -1.
         21   -1    0    0  501  503 -0.00000000000E+00 -0.00000000000E+00 -0.38061341912E+03  0.38061341912E+03  0.00000000000E+00 0. -1.
          6    2    1    2  501    0 -0.67342997174E+02  0.93357096213E+02 -0.29490556214E+03  0.36026397990E+03  0.17195993122E+03 0.  0.
         24    2    3    3    0    0 -0.66019642738E+01  0.69588211546E+02 -0.27008623625E+03  0.29031741534E+03  0.80321364020E+02 0.  0.
         -6    2    1    2    0  502  0.67342997174E+02 -0.93357096213E+02  0.14713440698E+03  0.25319170318E+03  0.17090019942E+03 0.  0.
        -24    2    5    5    0    0  0.43052283249E+02 -0.16793849640E+02  0.70637447714E+01  0.91655794109E+02  0.78837526755E+02 0.  0.
          5    1    3    3  501    0 -0.60741032900E+02  0.23768884667E+02 -0.24819325896E+02  0.69946564562E+02  0.47000000000E+01 0. -1.
        -13    1    4    4    0    0  0.22261787445E+02 -0.73483984995E+01 -0.45783105259E+02  0.51436163036E+02  0.00000000000E+00 0.  1.
         14    1    4    4    0    0 -0.28863751719E+02  0.76936610045E+02 -0.22430313099E+03  0.23888125230E+03  0.00000000000E+00 0. -1.
         -5    1    5    5    0  502  0.24290713925E+02 -0.76563246573E+02  0.14007066221E+03  0.16153590907E+03  0.47000000000E+01 0.  1.
         13    1    6    6    0    0 -0.17938419492E+02  0.51089202444E+01  0.18016699827E+02  0.25932401212E+02  0.00000000000E+00 0. -1.
        -14    1    6    6    0    0  0.60990702741E+02 -0.21902769885E+02 -0.10952955055E+02  0.65723392897E+02  0.00000000000E+00 0.  1.
</event>
<event>
12    1  0.9017558E-003  0.2663855E+03  0.7818608E-02  0.1103787E+00
         21   -1    0    0  503  502  0.00000000000E+00  0.00000000000E+00  0.18526228492E+04  0.18526228492E+04  0.00000000000E+00 0. -1.
         21   -1    0    0  501  503 -0.00000000000E+00 -0.00000000000E+00 -0.50196985147E+02  0.50196985147E+02  0.00000000000E+00 0. -1.
          6    2    1    2  501    0 -0.10710554960E+03 -0.16910894900E+03  0.43383417759E+03  0.50909068218E+03  0.17576061461E+03 0.  0.
         24    2    3    3    0    0 -0.13885650972E+03 -0.17054424586E+03  0.37294059259E+03  0.44024082931E+03  0.79754824976E+02 0.  0.
         -6    2    1    2    0  502  0.10710554960E+03  0.16910894900E+03  0.13685916865E+04  0.13937291522E+04  0.17137184706E+03 0.  0.
        -24    2    5    5    0    0  0.76732028376E+02  0.95405616391E+02  0.48928390111E+03  0.51080276599E+03  0.80812709644E+02 0.  0.
          5    1    3    3  501    0  0.31750960119E+02  0.14352968530E+01  0.60893584997E+02  0.68849852863E+02  0.47000000000E+01 0. -1.
        -11    1    4    4    0    0 -0.15207180000E+02  0.63778289831E+01  0.15204027297E+02  0.22429834421E+02  0.00000000000E+00 0.  1.
         12    1    4    4    0    0 -0.12364932972E+03 -0.17692207484E+03  0.35773656530E+03  0.41781099489E+03  0.00000000000E+00 0. -1.
         -5    1    5    5    0  502  0.30373521221E+02  0.73703332612E+02  0.87930778535E+03  0.88292638618E+03  0.47000000000E+01 0.  1.
         13    1    6    6    0    0  0.40689912559E+02  0.18268602809E+02  0.29940021387E+03  0.30270430935E+03  0.00000000000E+00 0. -1.
        -14    1    6    6    0    0  0.36042115817E+02  0.77137013582E+02  0.18988368724E+03  0.20809845665E+03  0.00000000000E+00 0.  1.
</event>
<event>
12    1  0.9017558E-003  0.2056645E+03  0.7818608E-02  0.1145063E+00
         21   -1    0    0  501  502  0.00000000000E+00  0.00000000000E+00  0.15169963872E+03  0.15169963872E+03  0.00000000000E+00 0.  1.
         21   -1    0    0  502  503 -0.00000000000E+00 -0.00000000000E+00 -0.28483282695E+03  0.28483282695E+03  0.00000000000E+00 0.  1.
          6    2    1    2  501    0  0.37113580317E+02  0.10572852265E+03 -0.98568117740E+02  0.22806484038E+03  0.17245857252E+03 0.  0.
         24    2    3    3    0    0  0.57145027889E+02  0.13601430061E+03 -0.83174713079E+02  0.18834665632E+03  0.82407438175E+02 0.  0.
         -6    2    1    2    0  503 -0.37113580317E+02 -0.10572852265E+03 -0.34565070494E+02  0.20846762530E+03  0.17236028647E+03 0.  0.
        -24    2    5    5    0    0 -0.17363954007E+02 -0.63314032203E+02  0.46741489531E+02  0.11454274338E+03  0.81394715094E+02 0.  0.
          5    1    3    3  501    0 -0.20031447572E+02 -0.30285777956E+02 -0.15393404660E+02  0.39718184063E+02  0.47000000000E+01 0. -1.
        -13    1    4    4    0    0 -0.96723294317E+00  0.94101167894E+02 -0.65170625833E+02  0.11446910417E+03  0.00000000000E+00 0.  1.
         14    1    4    4    0    0  0.58112260832E+02  0.41913132716E+02 -0.18004087247E+02  0.73877552143E+02  0.00000000000E+00 0. -1.
         -5    1    5    5    0  503 -0.19749626310E+02 -0.42414490450E+02 -0.81306560026E+02  0.93924881915E+02  0.47000000000E+01 0.  1.
         13    1    6    6    0    0 -0.44711738694E+02 -0.19065200362E+02  0.70589043447E+01  0.49116693419E+02  0.00000000000E+00 0. -1.
        -14    1    6    6    0    0  0.27347784687E+02 -0.44248831842E+02  0.39682585187E+02  0.65426049963E+02  0.00000000000E+00 0.  1.
</event>
<event>
12    1  0.9017558E-003  0.1914649E+03  0.7818608E-02  0.1158346E+00
         21   -1    0    0  501  502  0.00000000000E+00  0.00000000000E+00  0.21342339387E+03  0.21342339387E+03  0.00000000000E+00 0.  1.
         21   -1    0    0  502  503 -0.00000000000E+00 -0.00000000000E+00 -0.32673163883E+03  0.32673163883E+03  0.00000000000E+00 0. -1.
          6    2    1    2  501    0 -0.77502586458E+02  0.12818266256E+02  0.13173868325E+03  0.23240885303E+03  0.17460766148E+03 0.  0.
         24    2    3    3    0    0 -0.69337273915E+02 -0.14807436985E+02  0.15904824598E+03  0.19243693759E+03  0.81906731439E+02 0.  0.
         -6    2    1    2    0  503  0.77502586458E+02 -0.12818266256E+02 -0.24504692822E+03  0.30774617966E+03  0.16878612268E+03 0.  0.
        -24    2    5    5    0    0 -0.96185421334E+01 -0.47593958751E+02 -0.11985051735E+03  0.15123524991E+03  0.78423549053E+02 0.  0.
          5    1    3    3  501    0 -0.81653125429E+01  0.27625703241E+02 -0.27309562724E+02  0.39971915449E+02  0.47000000000E+01 0. -1.
        -13    1    4    4    0    0 -0.63684085993E+02  0.23510576523E+02  0.11700087554E+03  0.13526867669E+03  0.00000000000E+00 0.  1.
         14    1    4    4    0    0 -0.56531879217E+01 -0.38318013508E+02  0.42047370441E+02  0.57168260896E+02  0.00000000000E+00 0. -1.
         -5    1    5    5    0  503  0.87121128591E+02  0.34775692495E+02 -0.12519641087E+03  0.15651092975E+03  0.47000000000E+01 0.  1.
         11    1    6    6    0    0 -0.20527462744E+01 -0.68973277574E+02 -0.97010341143E+02  0.11904844844E+03  0.00000000000E+00 0. -1.
        -12    1    6    6    0    0 -0.75657958590E+01  0.21379318823E+02 -0.22840176204E+02  0.32186801477E+02  0.00000000000E+00 0.  1.
</event>
<event>
12    1  0.9017558E-003  0.1954837E+03  0.7818608E-02  0.1153696E+00
         21   -1    0    0  503  502  0.00000000000E+00  0.00000000000E+00  0.14151335596E+03  0.14151335596E+03  0.00000000000E+00 0. -1.
         21   -1    0    0  501  503 -0.00000000000E+00 -0.00000000000E+00 -0.31501828548E+03  0.31501828548E+03  0.00000000000E+00 0. -1.
          6    2    1    2  501    0 -0.90977399165E+02 -0.29381488068E+01 -0.17347593327E+03  0.26104794802E+03  0.17253003178E+03 0.  0.
         24    2    3    3    0    0  0.73918712343E+01 -0.20928414935E+02 -0.12550690849E+03  0.15003767655E+03  0.79162377389E+02 0.  0.
         -6    2    1    2    0  502  0.90977399165E+02  0.29381488068E+01 -0.28996246731E-01  0.19548369342E+03  0.17299813200E+03 0.  0.
        -24    2    5    5    0    0 -0.58413524534E+01 -0.28265721863E+02 -0.30507663416E+02  0.89188861174E+02  0.78682037338E+02 0.  0.
          5    1    3    3  501    0 -0.98369270399E+02  0.17990266128E+02 -0.47969024784E+02  0.11101027148E+03  0.47000000000E+01 0. -1.
        -13    1    4    4    0    0  0.21303937734E+02 -0.22213047851E+02 -0.81318134637E+01  0.31834001445E+02  0.00000000000E+00 0.  1.
         14    1    4    4    0    0 -0.13912066499E+02  0.12846329159E+01 -0.11737509502E+03  0.11820367510E+03  0.00000000000E+00 0. -1.
         -5    1    5    5    0  502  0.96818751619E+02  0.31203870669E+02  0.30478667169E+02  0.10629483225E+03  0.47000000000E+01 0.  1.
         11    1    6    6    0    0  0.26759735623E+02 -0.13090185351E+02  0.13205200953E+02  0.32585483506E+02  0.00000000000E+00 0. -1.
        -12    1    6    6    0    0 -0.32601088076E+02 -0.15175536512E+02 -0.43712864369E+02  0.56603377668E+02  0.00000000000E+00 0.  1.
</event>
<event>
12    1  0.9017558E-003  0.1742981E+03  0.7818608E-02  0.1174779E+00
         21   -1    0    0  501  502  0.00000000000E+00  0.00000000000E+00  0.56783738693E+02  0.56783738693E+02  0.00000000000E+00 0. -1.
         21   -1    0    0  502  503 -0.00000000000E+00 -0.00000000000E+00 -0.54814926341E+03  0.54814926341E+03  0.00000000000E+00 0. -1.
          6    2    1    2  501    0 -0.21942559234E+02  0.24223446515E+02 -0.31178224500E+03  0.35467320504E+03  0.16588147218E+03 0.  0.
         24    2    3    3    0    0 -0.22301274310E+02 -0.30748561419E+01 -0.31598946157E+03  0.32665327150E+03  0.79663155722E+02 0.  0.
         -6    2    1    2    0  503  0.21942559234E+02 -0.24223446515E+02 -0.17958327972E+03  0.25025979706E+03  0.17120619266E+03 0.  0.
        -24    2    5    5    0    0  0.12990405376E+02  0.34205933952E+02 -0.16871815612E+03  0.18997485308E+03  0.79283239389E+02 0.  0.
          5    1    3    3  501    0  0.35871507643E+00  0.27298302657E+02  0.42072165748E+01  0.28019933543E+02  0.47000000000E+01 0. -1.
        -11    1    4    4    0    0  0.44510421064E+01 -0.30564422841E+02 -0.23520764802E+03  0.23722696602E+03  0.00000000000E+00 0.  1.
         12    1    4    4    0    0 -0.26752316416E+02  0.27489566699E+02 -0.80781813556E+02  0.89426305483E+02  0.00000000000E+00 0. -1.
         -5    1    5    5    0  503  0.89521538578E+01 -0.58429380467E+02 -0.10865123602E+02  0.60284943986E+02  0.47000000000E+01 0.  1.
         11    1    6    6    0    0 -0.14323586342E+02 -0.13996633362E+02 -0.98582651852E+02  0.10059627288E+03  0.00000000000E+00 0. -1.
        -12    1    6    6    0    0  0.27313991718E+02  0.48202567314E+02 -0.70135504267E+02  0.89378580197E+02  0.00000000000E+00 0.  1.
</event>
<event>
12    1  0.9017558E-003  0.1838556E+03  0.7818608E-02  0.1164127E+00
         21   -1    0    0  501  502  0.00000000000E+00  0.00000000000E+00  0.33570200721E+02  0.33570200721E+02  0.00000000000E+00 0.  1.
         21   -1    0    0  502  503 -0.00000000000E+00 -0.00000000000E+00 -0.11521755280E+04  0.11521755280E+04  0.00000000000E+00 0.  1.
          6    2    1    2  501    0 -0.21973152864E+02  0.58051250563E+02 -0.34875713481E+03  0.39425172665E+03  0.17306102321E+03 0.  0.
         24    2    3    3    0    0  0.22695438233E+02  0.46964515807E+01 -0.30361476930E+03  0.31117380679E+03  0.64109830158E+02 0.  0.
         -6    2    1    2    0  503  0.21973152864E+02 -0.58051250563E+02 -0.76984819244E+03  0.79149400203E+03  0.17304262109E+03 0.  0.
        -24    2    5    5    0    0 -0.23200964566E+01 -0.65516579160E+02 -0.75481359115E+03  0.76159379585E+03  0.77354686383E+02 0.  0.
          5    1    3    3  501    0 -0.44668591097E+02  0.53354798982E+02 -0.45142365506E+02  0.83077919861E+02  0.47000000000E+01 0. -1.
        -11    1    4    4    0    0  0.38106803759E+01 -0.10531513430E+02 -0.62588586653E+01  0.12829940446E+02  0.00000000000E+00 0.  1.
         12    1    4    4    0    0  0.18884757857E+02  0.15227965010E+02 -0.29735591063E+03  0.29834386635E+03  0.00000000000E+00 0. -1.
         -5    1    5    5    0  503  0.24293249320E+02  0.74653285976E+01 -0.15034601287E+02  0.29900206178E+02  0.47000000000E+01 0.  1.
         13    1    6    6    0    0 -0.91694487182E+01  0.14321119803E+02 -0.23781491640E+03  0.23842212088E+03  0.00000000000E+00 0. -1.
        -14    1    6    6    0    0  0.68493522617E+01 -0.79837698963E+02 -0.51699867475E+03  0.52317167497E+03  0.00000000000E+00 0.  1.
</event>
<event>
12    1  0.9017558E-003  0.2174959E+03  0.7818608E-02  0.1135830E+00
         21   -1    0    0  503  502  0.00000000000E+00  0.00000000000E+00  0.11375633053E+03  0.11375633053E+03  0.00000000000E+00 0. -1.
         21   -1    0    0  501  503 -0.00000000000E+00 -0.00000000000E+00 -0.42018729985E+03  0.42018729985E+03  0.00000000000E+00 0. -1.
          6    2    1    2  501    0  0.10238073151E+03 -0.83021772318E+02 -0.12392343667E+03  0.25001854564E+03  0.17256252823E+03 0.  0.
         24    2    3    3    0    0  0.46174886397E+02 -0.15008293350E+02  0.56032702488E+01  0.93225088670E+02  0.79386091458E+02 0.  0.
         -6    2    1    2    0  502 -0.10238073151E+03  0.83021772318E+02 -0.18250753266E+03  0.28392508473E+03  0.17300296356E+03 0.  0.
        -24    2    5    5    0    0 -0.66064989761E+02  0.10685076856E+03 -0.18750766050E+03  0.23995071221E+03  0.81458897164E+02 0.  0.
          5    1    3    3  501    0  0.56205845109E+02 -0.68013478968E+02 -0.12952670691E+03  0.15679345697E+03  0.47000000000E+01 0. -1.
        -11    1    4    4    0    0 -0.20280369259E+02  0.43898157137E+01  0.11538897055E+02  0.23742577883E+02  0.00000000000E+00 0.  1.
         12    1    4    4    0    0  0.66455255657E+02 -0.19398109064E+02 -0.59356268061E+01  0.69482510787E+02  0.00000000000E+00 0. -1.
         -5    1    5    5    0  502 -0.36315741745E+02 -0.23828996246E+02  0.50001278417E+01  0.43974372526E+02  0.47000000000E+01 0.  1.
         11    1    6    6    0    0 -0.33309370864E+02  0.50449918508E+02 -0.26070563066E+02  0.65836029068E+02  0.00000000000E+00 0. -1.
        -12    1    6    6    0    0 -0.32755618897E+02  0.56400850055E+02 -0.16143709744E+03  0.17411468314E+03  0.00000000000E+00 0.  1.
</event>
<event>
12    1  0.9017558E-003  0.2014361E+03  0.7818608E-02  0.1148710E+00
         21   -1    0    0  501  502  0.00000000000E+00  0.00000000000E+00  0.28752692403E+03  0.28752692403E+03  0.00000000000E+00 0. -1.
         21   -1    0    0  502  503 -0.00000000000E+00 -0.00000000000E+00 -0.14422917912E+03  0.14422917912E+03  0.00000000000E+00 0. -1.
          6    2    1    2  501    0 -0.89807632214E+02  0.36215240300E+02  0.37231456984E+02  0.20484796987E+03  0.17663395749E+03 0.  0.
         24    2    3    3    0    0 -0.75983459646E+02 -0.11246359741E+02  0.82206639754E+02  0.13785119166E+03  0.79655838926E+02 0.  0.
         -6    2    1    2    0  503  0.89807632214E+02 -0.36215240300E+02  0.10606628793E+03  0.22690813328E+03  0.17567096823E+03 0.  0.
        -24    2    5    5    0    0  0.57534467349E+02  0.38444714068E+02  0.10020308705E+03  0.14522500723E+03  0.79129217723E+02 0.  0.
          5    1    3    3  501    0 -0.13824172567E+02  0.47461600041E+02 -0.44975182770E+02  0.66996778212E+02  0.47000000000E+01 0. -1.
        -11    1    4    4    0    0  0.36082543226E+01 -0.20284071625E+02  0.45075115763E+02  0.49560358373E+02  0.00000000000E+00 0.  1.
         12    1    4    4    0    0 -0.79591713969E+02  0.90377118845E+01  0.37131523991E+02  0.88290833287E+02  0.00000000000E+00 0. -1.
         -5    1    5    5    0  503  0.32273164865E+02 -0.74659954368E+02  0.58632008798E+01  0.81683126049E+02  0.47000000000E+01 0.  1.
         13    1    6    6    0    0 -0.73462325403E+01  0.39540456024E+02  0.37357815200E+02  0.54890993356E+02  0.00000000000E+00 0. -1.
        -14    1    6    6    0    0  0.64880699889E+02 -0.10957419559E+01  0.62845271851E+02  0.90334013874E+02  0.00000000000E+00 0.  1.
</event>
<event>
12    1  0.9017558E-003  0.1994889E+03  0.7818608E-02  0.1150294E+00
         21   -1    0    0  501  502  0.00000000000E+00  0.00000000000E+00  0.16940866767E+04  0.16940866767E+04  0.00000000000E+00 0.  1.
         21   -1    0    0  502  503 -0.00000000000E+00 -0.00000000000E+00 -0.25680276248E+02  0.25680276248E+02  0.00000000000E+00 0.  1.
          6    2    1    2  501    0 -0.24810492598E+02  0.99544167404E+02  0.58036840830E+03  0.61369644312E+03  0.17108837814E+03 0.  0.
         24    2    3    3    0    0 -0.19436797076E+02  0.10524157352E+03  0.25356197237E+03  0.28676239227E+03  0.80532092415E+02 0.  0.
         -6    2    1    2    0  503  0.24810492598E+02 -0.99544167404E+02  0.10880379921E+04  0.11060705098E+04  0.17041331680E+03 0.  0.
        -24    2    5    5    0    0  0.26530254294E+02 -0.10427111494E+03  0.10905509939E+04  0.10987420180E+04  0.79725982111E+02 0.  0.
          5    1    3    3  501    0 -0.53736955213E+01 -0.56974061196E+01  0.32680643593E+03  0.32693405085E+03  0.47000000000E+01 0. -1.
        -13    1    4    4    0    0 -0.47725425814E+02  0.63091578905E+02  0.18705881311E+03  0.20309914613E+03  0.00000000000E+00 0.  1.
         14    1    4    4    0    0  0.28288628738E+02  0.42149994619E+02  0.66503159260E+02  0.83663246135E+02  0.00000000000E+00 0. -1.
         -5    1    5    5    0  503 -0.17197616958E+01  0.47269475400E+01 -0.25130017490E+01  0.73284917361E+01  0.47000000000E+01 0.  1.
         13    1    6    6    0    0  0.33194488240E+02 -0.46080624032E+02  0.26009073222E+03  0.26621887038E+03  0.00000000000E+00 0. -1.
        -14    1    6    6    0    0 -0.66642339461E+01 -0.58190490912E+02  0.83046026163E+03  0.83252314766E+03  0.00000000000E+00 0.  1.
</event>
<event>
12    1  0.9017558E-003  0.2250703E+03  0.7818608E-02  0.1130487E+00
         21   -1    0    0  501  502  0.00000000000E+00  0.00000000000E+00  0.32047050347E+03  0.32047050347E+03  0.00000000000E+00 0.  1.
         21   -1    0    0  502  503 -0.00000000000E+00 -0.00000000000E+00 -0.19143172356E+03  0.19143172356E+03  0.00000000000E+00 0.  1.
          6    2    1    2  501    0 -0.10708124695E+03 -0.95117626412E+02  0.17316834751E+03  0.28254645027E+03  0.17126430942E+03 0.  0.
         24    2    3    3    0    0 -0.44439234633E+02 -0.95379603820E+02  0.17543633597E+03  0.21968689165E+03  0.80076887953E+02 0.  0.
         -6    2    1    2    0  503  0.10708124695E+03  0.95117626412E+02 -0.44129567600E+02  0.22935577676E+03  0.17361709967E+03 0.  0.
        -24    2    5    5    0    0  0.72800456617E+02 -0.14515635756E+02 -0.34135209341E+02  0.11395819466E+03  0.79439583632E+02 0.  0.
          5    1    3    3  501    0 -0.62642012312E+02  0.26197740850E+00 -0.22679884616E+01  0.62859558624E+02  0.47000000000E+01 0. -1.
        -11    1    4    4    0    0 -0.52943270069E+02 -0.23789811036E+02  0.59188901874E+02  0.82899161996E+02  0.00000000000E+00 0.  1.
         12    1    4    4    0    0  0.85040354355E+01 -0.71589792784E+02  0.11624743410E+03  0.13678772965E+03  0.00000000000E+00 0. -1.
         -5    1    5    5    0  503  0.34280790328E+02  0.10963326217E+03 -0.99943582593E+01  0.11539758211E+03  0.47000000000E+01 0.  1.
         13    1    6    6    0    0  0.59215440521E+02  0.21667727864E+01  0.14303210667E+02  0.60956912125E+02  0.00000000000E+00 0. -1.
        -14    1    6    6    0    0  0.13585016096E+02 -0.16682408543E+02 -0.48438420008E+02  0.53001282531E+02  0.00000000000E+00 0.  1.
</event>
<event>
12    1  0.9017558E-003  0.1843993E+03  0.7818608E-02  0.1163816E+00
         21   -1    0    0  501  502  0.00000000000E+00  0.00000000000E+00  0.20775852053E+02  0.20775852053E+02  0.00000000000E+00 0.  1.
         21   -1    0    0  502  503 -0.00000000000E+00 -0.00000000000E+00 -0.18071684426E+04  0.18071684426E+04  0.00000000000E+00 0.  1.
          6    2    1    2  501    0  0.36643363479E+02 -0.51171310821E+02 -0.60809045192E+03  0.63543457579E+03  0.17332588743E+03 0.  0.
         24    2    3    3    0    0  0.32386721298E+02 -0.86469163469E+02 -0.26974436623E+03  0.29519315987E+03  0.76492892305E+02 0.  0.
         -6    2    1    2    0  503 -0.36643363479E+02  0.51171310821E+02 -0.11783021387E+04  0.11925097189E+04  0.17240145173E+03 0.  0.
        -24    2    5    5    0    0 -0.47858045117E+02  0.92916157597E+02 -0.10213246296E+04  0.10296219364E+04  0.78061054250E+02 0.  0.
          5    1    3    3  501    0  0.42566421802E+01  0.35297852648E+02 -0.33834608569E+03  0.34024141592E+03  0.47000000000E+01 0. -1.
        -11    1    4    4    0    0  0.33831874613E+02 -0.54165006412E+02 -0.24832657898E+03  0.25640696849E+03  0.00000000000E+00 0.  1.
         12    1    4    4    0    0 -0.14451533147E+01 -0.32304157057E+02 -0.21417787243E+02  0.38786191378E+02  0.00000000000E+00 0. -1.
         -5    1    5    5    0  503  0.11214681638E+02 -0.41744846776E+02 -0.15697750909E+03  0.16288778247E+03  0.47000000000E+01 0.  1.
         13    1    6    6    0    0  0.24933643440E+01 -0.34269951598E+01 -0.31085617979E+03  0.31088506828E+03  0.00000000000E+00 0. -1.
        -14    1    6    6    0    0 -0.50351409461E+02  0.96343152756E+02 -0.71046844977E+03  0.71873686815E+03  0.00000000000E+00 0.  1.
</event>
<event>
12    1  0.9017558E-003  0.1786878E+03  0.7818608E-02  0.1169465E+00
         21   -1    0    0  503  502  0.00000000000E+00  0.00000000000E+00  0.52822506724E+03  0.52822506724E+03  0.00000000000E+00 0. -1.
         21   -1    0    0  501  503 -0.00000000000E+00 -0.00000000000E+00 -0.73974797477E+02  0.73974797477E+02  0.00000000000E+00 0. -1.
          6    2    1    2  501    0 -0.68288157757E+01 -0.42183899417E+02  0.95051924629E+02  0.20101066592E+03  0.17188456983E+03 0.  0.
         24    2    3    3    0    0  0.49852146494E+02 -0.25645988475E+02  0.98211805539E+02  0.14169533207E+03  0.85375963535E+02 0.  0.
         -6    2    1    2    0  502  0.68288157757E+01  0.42183899417E+02  0.35919834514E+03  0.40118919880E+03  0.17350276075E+03 0.  0.
        -24    2    5    5    0    0  0.51502151691E+02 -0.54903132209E+01  0.29291333422E+03  0.30799944526E+03  0.79892563786E+02 0.  0.
          5    1    3    3  501    0 -0.56680962270E+02 -0.16537910942E+02 -0.31598809097E+01  0.59315333848E+02  0.47000000000E+01 0. -1.
        -11    1    4    4    0    0 -0.30165014120E+01 -0.37930795853E+02  0.71964914955E+02  0.81405119859E+02  0.00000000000E+00 0.  1.
         12    1    4    4    0    0  0.52868647906E+02  0.12284807377E+02  0.26246890585E+02  0.60290212216E+02  0.00000000000E+00 0. -1.
         -5    1    5    5    0  502 -0.44673335916E+02  0.47674212638E+02  0.66285010921E+02  0.93189753542E+02  0.47000000000E+01 0.  1.
         11    1    6    6    0    0  0.11041959673E+02  0.29339556796E+02  0.47964949877E+02  0.57300705782E+02  0.00000000000E+00 0. -1.
        -12    1    6    6    0    0  0.40460192019E+02 -0.34829870017E+02  0.24494838434E+03  0.25069873947E+03  0.00000000000E+00 0.  1.
</event>
<event>
12    1  0.9017558E-003  0.1868187E+03  0.7818608E-02  0.1161438E+00
         21   -1    0    0  501  502  0.00000000000E+00  0.00000000000E+00  0.13023782726E+03  0.13023782726E+03  0.00000000000E+00 0. -1.
         21   -1    0    0  502  503 -0.00000000000E+00 -0.00000000000E+00 -0.30856270571E+03  0.30856270571E+03  0.00000000000E+00 0. -1.
          6    2    1    2  501    0  0.27963869404E+02  0.67084431804E+02 -0.90712226181E+01  0.18671316558E+03  0.17174754769E+03 0.  0.
         24    2    3    3    0    0 -0.47389944977E+02  0.13783759251E+02  0.27609720351E+01  0.93539940523E+02  0.79412206886E+02 0.  0.
         -6    2    1    2    0  503 -0.27963869404E+02 -0.67084431804E+02 -0.16925365584E+03  0.25208736740E+03  0.17210154504E+03 0.  0.
        -24    2    5    5    0    0  0.27993238506E+02 -0.85152065509E+02 -0.74834661727E+02  0.14075599822E+03  0.78597256803E+02 0.  0.
          5    1    3    3  501    0  0.75353814381E+02  0.53300672553E+02 -0.11832194653E+02  0.93173225053E+02  0.47000000000E+01 0. -1.
        -13    1    4    4    0    0 -0.47676849318E+02 -0.25133760310E+02  0.71761132279E+01  0.54371724906E+02  0.00000000000E+00 0.  1.
         14    1    4    4    0    0  0.28690434139E+00  0.38917519561E+02 -0.44151411928E+01  0.39168215617E+02  0.00000000000E+00 0. -1.
         -5    1    5    5    0  503 -0.55957107910E+02  0.18067633705E+02 -0.94418994111E+02  0.11133136917E+03  0.47000000000E+01 0.  1.
         13    1    6    6    0    0 -0.58597843817E+01 -0.58310928565E+02 -0.52351871285E+01  0.58837986432E+02  0.00000000000E+00 0. -1.
        -14    1    6    6    0    0  0.33853022888E+02 -0.26841136944E+02 -0.69599474599E+02  0.81918011789E+02  0.00000000000E+00 0.  1.
</event>
<event>
12    1  0.9017558E-003  0.2320489E+03  0.7818608E-02  0.1125442E+00
         21   -1    0    0  503  502  0.00000000000E+00  0.00000000000E+00  0.62228233924E+02  0.62228233924E+02  0.00000000000E+00 0.  1.
         21   -1    0    0  501  503 -0.00000000000E+00 -0.00000000000E+00 -0.91583005892E+03  0.91583005892E+03  0.00000000000E+00 0.  1.
          6    2    1    2  501    0 -0.85774406455E+02 -0.12794450394E+03 -0.30517176558E+03  0.38255663262E+03  0.17173446295E+03 0.  0.
         24    2    3    3    0    0 -0.12471454036E+03 -0.93535550420E+02 -0.26147648706E+03  0.31450020401E+03  0.78979802925E+02 0.  0.
         -6    2    1    2    0  502  0.85774406455E+02  0.12794450394E+03 -0.54843005942E+03  0.59550166022E+03  0.17355014366E+03 0.  0.
        -24    2    5    5    0    0  0.39225063645E+02  0.14232437700E+02 -0.35153324119E+03  0.36336436819E+03  0.81956552561E+02 0.  0.
          5    1    3    3  501    0  0.38940133901E+02 -0.34408953517E+02 -0.43695278523E+02  0.68056428614E+02  0.47000000000E+01 0. -1.
        -13    1    4    4    0    0 -0.50752195666E+02 -0.54605891221E+01 -0.39665778108E+02  0.64645010259E+02  0.00000000000E+00 0.  1.
         14    1    4    4    0    0 -0.73962344690E+02 -0.88074961298E+02 -0.22181070895E+03  0.24985519375E+03  0.00000000000E+00 0. -1.
         -5    1    5    5    0  502  0.46549342810E+02  0.11371206624E+03 -0.19689681822E+03  0.23213729203E+03  0.47000000000E+01 0.  1.
         13    1    6    6    0    0  0.92408044657E+01  0.45952439024E+02 -0.14975410830E+03  0.15691816999E+03  0.00000000000E+00 0. -1.
        -14    1    6    6    0    0  0.29984259179E+02 -0.31720001324E+02 -0.20177913289E+03  0.20644619820E+03  0.00000000000E+00 0.  1.
</event>
<event>
12    1  0.9017558E-003  0.1953809E+03  0.7818608E-02  0.1155446E+00
         21   -1    0    0  501  502  0.00000000000E+00  0.00000000000E+00  0.19632209336E+02  0.19632209336E+02  0.00000000000E+00 0.  1.
         21   -1    0    0  502  503 -0.00000000000E+00 -0.00000000000E+00 -0.20541913973E+04  0.20541913973E+04  0.00000000000E+00 0. -1.
          6    2    1    2  501    0  0.16308415937E+02 -0.89707508925E+02 -0.68520325657E+03  0.71039589358E+03  0.16384572385E+03 0.  0.
         24    2    3    3    0    0 -0.33543874405E+01 -0.14949176099E+02 -0.13916161931E+03  0.15888977958E+03  0.75135051643E+02 0.  0.
         -6    2    1    2    0  503 -0.16308415937E+02  0.89707508925E+02 -0.13493559314E+04  0.13634277130E+04  0.17280132388E+03 0.  0.
        -24    2    5    5    0    0  0.33935771036E+02  0.46758666250E+02 -0.41448659748E+03  0.42621277351E+03  0.80747627727E+02 0.  0.
          5    1    3    3  501    0  0.19662803378E+02 -0.74758332826E+02 -0.54604163726E+03  0.55150611400E+03  0.47000000000E+01 0. -1.
        -11    1    4    4    0    0 -0.67111296790E+01 -0.38828888640E+02 -0.12468546212E+03  0.13076385708E+03  0.00000000000E+00 0.  1.
         12    1    4    4    0    0  0.33567422385E+01  0.23879712541E+02 -0.14476157190E+02  0.28125922500E+02  0.00000000000E+00 0. -1.
         -5    1    5    5    0  503 -0.50244186973E+02  0.42948842676E+02 -0.93486933390E+03  0.93721493953E+03  0.47000000000E+01 0.  1.
         11    1    6    6    0    0  0.20905227484E+02  0.28569798747E+02 -0.39487790116E+03  0.39646162332E+03  0.00000000000E+00 0. -1.
        -12    1    6    6    0    0  0.13030543552E+02  0.18188867503E+02 -0.19608696319E+02  0.29751150190E+02  0.00000000000E+00 0.  1.
</event>
<event>
12    1  0.9017558E-003  0.1958715E+03  0.7818608E-02  0.1154346E+00
         21   -1    0    0  503  502  0.00000000000E+00  0.00000000000E+00  0.28705197313E+03  0.28705197313E+03  0.00000000000E+00 0.  1.
         21   -1    0    0  501  503 -0.00000000000E+00 -0.00000000000E+00 -0.22386407958E+03  0.22386407958E+03  0.00000000000E+00 0.  1.
          6    2    1    2  501    0  0.15475997663E+02  0.81159861728E+02 -0.13328882793E+03  0.23692102319E+03  0.17759287689E+03 0.  0.
         24    2    3    3    0    0 -0.55190084121E+02  0.31876674458E+02 -0.10573132218E+03  0.14634490170E+03  0.78585303987E+02 0.  0.
         -6    2    1    2    0  502 -0.15475997663E+02 -0.81159861728E+02  0.19647672148E+03  0.27399502952E+03  0.17217358816E+03 0.  0.
        -24    2    5    5    0    0 -0.28505131549E+02 -0.99862890981E+02  0.75377202262E+02  0.15067939715E+03  0.78977329558E+02 0.  0.
          5    1    3    3  501    0  0.70666081784E+02  0.49283187271E+02 -0.27557505750E+02  0.90576121497E+02  0.47000000000E+01 0. -1.
        -13    1    4    4    0    0 -0.63732187369E+02 -0.43987937683E+01 -0.68491466206E+02  0.93660141130E+02  0.00000000000E+00 0.  1.
         14    1    4    4    0    0  0.85421032483E+01  0.36275468226E+02 -0.37239855975E+02  0.52684760567E+02  0.00000000000E+00 0. -1.
         -5    1    5    5    0  502  0.13029133886E+02  0.18703029253E+02  0.12109951921E+03  0.12331563237E+03  0.47000000000E+01 0.  1.
         11    1    6    6    0    0  0.12789179383E+02 -0.62158734572E+02  0.70029751780E+02  0.94506283004E+02  0.00000000000E+00 0. -1.
        -12    1    6    6    0    0 -0.41294310932E+02 -0.37704156409E+02  0.53474504821E+01  0.56173114143E+02  0.00000000000E+00 0.  1.
</event>
<event>
12    1  0.9017558E-003  0.2341696E+03  0.7818608E-02  0.1123764E+00
         21   -1    0    0  503  502  0.00000000000E+00  0.00000000000E+00  0.11513414181E+03  0.11513414181E+03  0.00000000000E+00 0. -1.
         21   -1    0    0  501  503 -0.00000000000E+00 -0.00000000000E+00 -0.47846548111E+03  0.47846548111E+03  0.00000000000E+00 0.  1.
          6    2    1    2  501    0 -0.12138023595E+03 -0.10456580294E+03 -0.16032688895E+03  0.28379587955E+03  0.17078706364E+03 0.  0.
         24    2    3    3    0    0 -0.14652901114E+02 -0.10259467500E+03 -0.10515560894E+03  0.16354377153E+03  0.70345492139E+02 0.  0.
         -6    2    1    2    0  502  0.12138023595E+03  0.10456580294E+03 -0.20300445034E+03  0.30980374337E+03  0.17058834580E+03 0.  0.
        -24    2    5    5    0    0  0.56134504738E+02  0.10255572812E+03 -0.61870811050E+02  0.15423433769E+03  0.79318810320E+02 0.  0.
          5    1    3    3  501    0 -0.10672733483E+03 -0.19711279377E+01 -0.55171280019E+02  0.12025210803E+03  0.47000000000E+01 0. -1.
        -11    1    4    4    0    0  0.19438741966E+02 -0.11681102206E+02 -0.34621399435E+01  0.22941212935E+02  0.00000000000E+00 0.  1.
         12    1    4    4    0    0 -0.34091643079E+02 -0.90913572798E+02 -0.10169346899E+03  0.14060255859E+03  0.00000000000E+00 0. -1.
         -5    1    5    5    0  502  0.65245731209E+02  0.20100748178E+01 -0.14113363929E+03  0.15556940567E+03  0.47000000000E+01 0.  1.
         13    1    6    6    0    0 -0.12746450248E+02  0.37092457685E+02 -0.41398397781E+02  0.57027622691E+02  0.00000000000E+00 0. -1.
        -14    1    6    6    0    0  0.68880954986E+02  0.65463270438E+02 -0.20472413269E+02  0.97206715001E+02  0.00000000000E+00 0.  1.
</event>
<event>
12    1  0.9017558E-003  0.1781255E+03  0.7818608E-02  0.1169702E+00
         21   -1    0    0  503  502  0.00000000000E+00  0.00000000000E+00  0.13400156509E+03  0.13400156509E+03  0.00000000000E+00 0.  1.
         21   -1    0    0  501  503 -0.00000000000E+00 -0.00000000000E+00 -0.25992693311E+03  0.25992693311E+03  0.00000000000E+00 0.  1.
          6    2    1    2  501    0 -0.42058805841E+02  0.22383061531E+02 -0.12218856125E+03  0.21576385612E+03  0.17133024401E+03 0.  0.
         24    2    3    3    0    0 -0.53765235451E+02  0.22838221920E+02 -0.54986584020E+01  0.98393199256E+02  0.78985451142E+02 0.  0.
         -6    2    1    2    0  502  0.42058805841E+02 -0.22383061531E+02 -0.37368067775E+01  0.17816464208E+03  0.17163546070E+03 0.  0.
        -24    2    5    5    0    0 -0.19592180233E+02 -0.25950780526E+02  0.46748815569E+02  0.98261821315E+02  0.80078943766E+02 0.  0.
          5    1    3    3  501    0  0.11706429610E+02 -0.45516038897E+00 -0.11668990285E+03  0.11737065686E+03  0.47000000000E+01 0. -1.
        -11    1    4    4    0    0 -0.63506472255E+02  0.42406428254E+02 -0.35086215239E+01  0.76444016120E+02  0.00000000000E+00 0.  1.
         12    1    4    4    0    0  0.97412368034E+01 -0.19568206334E+02 -0.19900368780E+01  0.21949183137E+02  0.00000000000E+00 0. -1.
         -5    1    5    5    0  502  0.61650986074E+02  0.35677189956E+01 -0.50485622346E+02  0.79902820767E+02  0.47000000000E+01 0.  1.
         11    1    6    6    0    0 -0.45169621267E+02 -0.63095437681E+01  0.47704787826E+02  0.65998877335E+02  0.00000000000E+00 0. -1.
        -12    1    6    6    0    0  0.25577441034E+02 -0.19641236758E+02 -0.95597225685E+00  0.32262943979E+02  0.00000000000E+00 0.  1.
</event>
<event>
12    1  0.9017558E-003  0.2192003E+03  0.7818608E-02  0.1135496E+00
         21   -1    0    0  501  502  0.00000000000E+00  0.00000000000E+00  0.49268647004E+03  0.49268647004E+03  0.00000000000E+00 0.  1.
         21   -1    0    0  502  503 -0.00000000000E+00 -0.00000000000E+00 -0.11253707298E+03  0.11253707298E+03  0.00000000000E+00 0. -1.
          6    2    1    2  501    0 -0.64809515390E+02 -0.11001705531E+03  0.30700108147E+03  0.37414035610E+03  0.17154391942E+03 0.  0.
         24    2    3    3    0    0 -0.68820783402E+02 -0.13832993445E+03  0.19494070729E+03  0.25839353386E+03  0.69956186201E+02 0.  0.
         -6    2    1    2    0  503  0.64809515390E+02  0.11001705531E+03  0.73148315577E+02  0.23108318692E+03  0.17817052917E+03 0.  0.
        -24    2    5    5    0    0  0.84883574051E+02  0.11723910615E+03  0.10988052096E+02  0.16519605460E+03  0.78859178373E+02 0.  0.
          5    1    3    3  501    0  0.40112680117E+01  0.28312879141E+02  0.11206037418E+03  0.11574682224E+03  0.47000000000E+01 0. -1.
        -11    1    4    4    0    0 -0.71658321894E+02 -0.10255680620E+03  0.18070222447E+03  0.21978650441E+03  0.00000000000E+00 0.  1.
         12    1    4    4    0    0  0.28375384917E+01 -0.35773128251E+02  0.14238482824E+02  0.38607029446E+02  0.00000000000E+00 0. -1.
         -5    1    5    5    0  503 -0.20074058661E+02 -0.72220508391E+01  0.62160263482E+02  0.65887132321E+02  0.47000000000E+01 0.  1.
         11    1    6    6    0    0  0.74293979800E+02  0.98756789835E+02  0.39377511765E+02  0.12970384499E+03  0.00000000000E+00 0. -1.
        -12    1    6    6    0    0  0.10589594251E+02  0.18482316311E+02 -0.28389459670E+02  0.35492209609E+02  0.00000000000E+00 0.  1.
</event>
<event>
12    1  0.9017558E-003  0.2067446E+03  0.7818608E-02  0.1144356E+00
         21   -1    0    0  501  502  0.00000000000E+00  0.00000000000E+00  0.11127275730E+03  0.11127275730E+03  0.00000000000E+00 0. -1.
         21   -1    0    0  502  503 -0.00000000000E+00 -0.00000000000E+00 -0.43817843405E+03  0.43817843405E+03  0.00000000000E+00 0.  1.
          6    2    1    2  501    0 -0.69628304611E+02  0.92984287252E+02 -0.65773625105E+02  0.21695508683E+03  0.17102386226E+03 0.  0.
         24    2    3    3    0    0  0.23633108071E+02  0.26005792435E+02 -0.51489541007E+02  0.10115381342E+03  0.79662388239E+02 0.  0.
         -6    2    1    2    0  503  0.69628304611E+02 -0.92984287252E+02 -0.26113205165E+03  0.33249610452E+03  0.16991036650E+03 0.  0.
        -24    2    5    5    0    0 -0.71117919320E+01 -0.12770199611E+02 -0.17204264738E+03  0.19007997402E+03  0.79486278217E+02 0.  0.
          5    1    3    3  501    0 -0.93261412682E+02  0.66978494817E+02 -0.14284084098E+02  0.11580127340E+03  0.47000000000E+01 0. -1.
        -11    1    4    4    0    0  0.28387286002E+02  0.14197165775E+02 -0.71049328013E+02  0.77816479834E+02  0.00000000000E+00 0.  1.
         12    1    4    4    0    0 -0.47541779312E+01  0.11808626660E+02  0.19559787006E+02  0.23337333591E+02  0.00000000000E+00 0. -1.
         -5    1    5    5    0  503  0.76740096543E+02 -0.80214087641E+02 -0.89089404271E+02  0.14241613050E+03  0.47000000000E+01 0.  1.
         11    1    6    6    0    0 -0.17573432948E+02  0.29124686480E+02 -0.48751494293E+02  0.59445614673E+02  0.00000000000E+00 0. -1.
        -12    1    6    6    0    0  0.10461641016E+02 -0.41894886091E+02 -0.12329115309E+03  0.13063435935E+03  0.00000000000E+00 0.  1.
</event>
<event>
12    1  0.9017558E-003  0.2046937E+03  0.7818608E-02  0.1146285E+00
         21   -1    0    0  501  502  0.00000000000E+00  0.00000000000E+00  0.22097457208E+02  0.22097457208E+02  0.00000000000E+00 0. -1.
         21   -1    0    0  502  503 -0.00000000000E+00 -0.00000000000E+00 -0.19191463726E+04  0.19191463726E+04  0.00000000000E+00 0. -1.
          6    2    1    2  501    0 -0.90068313650E+02  0.56047242044E+02 -0.80805192713E+03  0.83357508517E+03  0.17505973614E+03 0.  0.
         24    2    3    3    0    0 -0.95978971335E+02  0.80830456670E+02 -0.78480718260E+03  0.79876773322E+03  0.79762473110E+02 0.  0.
         -6    2    1    2    0  503  0.90068313650E+02 -0.56047242044E+02 -0.10889969883E+04  0.11076687447E+04  0.17251670335E+03 0.  0.
        -24    2    5    5    0    0 -0.11719377394E+02 -0.56313269460E+02 -0.61441791757E+03  0.62227386502E+03  0.80042848101E+02 0.  0.
          5    1    3    3  501    0  0.59106576849E+01 -0.24783214626E+02 -0.23244744535E+02  0.34807351953E+02  0.47000000000E+01 0. -1.
        -13    1    4    4    0    0  0.11534998131E+02 -0.32216182186E+01 -0.51977766329E+02  0.53339696272E+02  0.00000000000E+00 0.  1.
         14    1    4    4    0    0 -0.10751396947E+03  0.84052074888E+02 -0.73282941627E+03  0.74542803695E+03  0.00000000000E+00 0. -1.
         -5    1    5    5    0  503  0.10178769104E+03  0.26602741632E+00 -0.47457907072E+03  0.48539487964E+03  0.47000000000E+01 0.  1.
         13    1    6    6    0    0 -0.39368245542E+01 -0.72011345222E+02 -0.56968683835E+03  0.57423359899E+03  0.00000000000E+00 0. -1.
        -14    1    6    6    0    0 -0.77825528394E+01  0.15698075762E+02 -0.44731079219E+02  0.48040266022E+02  0.00000000000E+00 0.  1.
</event>
<event>
12    1  0.9017558E-003  0.2743411E+03  0.7818608E-02  0.1098907E+00
         21   -1    0    0  503  502  0.00000000000E+00  0.00000000000E+00  0.78850644075E+03  0.78850644075E+03  0.00000000000E+00 0. -1.
         21   -1    0    0  501  503 -0.00000000000E+00 -0.00000000000E+00 -0.10699135315E+03  0.10699135315E+03  0.00000000000E+00 0.  1.
          6    2    1    2  501    0  0.18928205576E+03 -0.97544942848E+02  0.19199607357E+03  0.33434548235E+03  0.17199330452E+03 0.  0.
         24    2    3    3    0    0  0.82947516219E+02 -0.11330238303E+03  0.86341914064E+02  0.18354686618E+03  0.80726733569E+02 0.  0.
         -6    2    1    2    0  502 -0.18928205576E+03  0.97544942848E+02  0.48951901403E+03  0.56115231154E+03  0.17297496683E+03 0.  0.
        -24    2    5    5    0    0 -0.15844334084E+03  0.12970271245E+03  0.33849796943E+03  0.40362582363E+03  0.80036518666E+02 0.  0.
          5    1    3    3  501    0  0.10633453954E+03  0.15757440182E+02  0.10565415951E+03  0.15079861618E+03  0.47000000000E+01 0. -1.
        -13    1    4    4    0    0  0.50953326941E+02 -0.96545632450E+02  0.24423888969E+02  0.11186521811E+03  0.00000000000E+00 0.  1.
         14    1    4    4    0    0  0.31994189278E+02 -0.16756750580E+02  0.61918025095E+02  0.71681648064E+02  0.00000000000E+00 0. -1.
         -5    1    5    5    0  502 -0.30838714912E+02 -0.32157769598E+02  0.15102104459E+03  0.15752648791E+03  0.47000000000E+01 0.  1.
         11    1    6    6    0    0 -0.14286090506E+03  0.96587431879E+02  0.31781781251E+03  0.36158889936E+03  0.00000000000E+00 0. -1.
        -12    1    6    6    0    0 -0.15582435783E+02  0.33115280568E+02  0.20680156922E+02  0.42036924273E+02  0.00000000000E+00 0.  1.
</event>
<event>
12    1  0.9017558E-003  0.1927349E+03  0.7818608E-02  0.1156319E+00
         21   -1    0    0  503  502  0.00000000000E+00  0.00000000000E+00  0.59827519410E+03  0.59827519410E+03  0.00000000000E+00 0. -1.
         21   -1    0    0  501  503 -0.00000000000E+00 -0.00000000000E+00 -0.13480396887E+03  0.13480396887E+03  0.00000000000E+00 0. -1.
          6    2    1    2  501    0 -0.49696909791E+02  0.68975445302E+02 -0.38646198649E+02  0.19524215631E+03  0.17146012957E+03 0.  0.
         24    2    3    3    0    0 -0.41160082014E+02 -0.19438345186E+02 -0.50313486423E+02  0.10553100103E+03  0.80829101488E+02 0.  0.
         -6    2    1    2    0  502  0.49696909791E+02 -0.68975445302E+02  0.50211742388E+03  0.53783700667E+03  0.17297208875E+03 0.  0.
        -24    2    5    5    0    0  0.75238172081E+02 -0.23818743888E+02  0.18393495145E+03  0.21541855261E+03  0.79655328404E+02 0.  0.
          5    1    3    3  501    0 -0.85368277768E+01  0.88413790488E+02  0.11667287774E+02  0.89711155276E+02  0.47000000000E+01 0. -1.
        -13    1    4    4    0    0  0.12534337659E+02 -0.92755147138E+00  0.14609086343E+02  0.19271621003E+02  0.00000000000E+00 0.  1.
         14    1    4    4    0    0 -0.53694419673E+02 -0.18510793714E+02 -0.64922572767E+02  0.86259380027E+02  0.00000000000E+00 0. -1.
         -5    1    5    5    0  502 -0.25541262290E+02 -0.45156701414E+02  0.31818247242E+03  0.32241845406E+03  0.47000000000E+01 0.  1.
         13    1    6    6    0    0 -0.13417129175E+02 -0.44244917461E+01  0.61002473155E+02  0.62617068069E+02  0.00000000000E+00 0. -1.
        -14    1    6    6    0    0  0.88655301256E+02 -0.19394252142E+02  0.12293247830E+03  0.15280148454E+03  0.00000000000E+00 0.  1.
</event>
<event>
12    1  0.9017558E-003  0.1832281E+03  0.7818608E-02  0.1165181E+00
         21   -1    0    0  503  502  0.00000000000E+00  0.00000000000E+00  0.19177688157E+03  0.19177688157E+03  0.00000000000E+00 0.  1.
         21   -1    0    0  501  503 -0.00000000000E+00 -0.00000000000E+00 -0.27619212419E+03  0.27619212419E+03  0.00000000000E+00 0. -1.
          6    2    1    2  501    0  0.50983098827E+02 -0.34605761154E+02 -0.18523723936E+03  0.26054818769E+03  0.17255633339E+03 0.  0.
         24    2    3    3    0    0 -0.75609119386E+01  0.32484784253E+02 -0.62455146428E+02  0.10880473701E+03  0.82615960221E+02 0.  0.
         -6    2    1    2    0  502 -0.50983098827E+02  0.34605761154E+02  0.10082199675E+03  0.20742081807E+03  0.17047429621E+03 0.  0.
        -24    2    5    5    0    0  0.17685133465E+02 -0.12569924457E+02  0.91365117517E+02  0.12344228508E+03  0.80122694034E+02 0.  0.
          5    1    3    3  501    0  0.58544010766E+02 -0.67090545407E+02 -0.12278209294E+03  0.15174345068E+03  0.47000000000E+01 0. -1.
        -11    1    4    4    0    0  0.13046193669E+02  0.69532343794E+01  0.17186146951E+02  0.22669677647E+02  0.00000000000E+00 0.  1.
         12    1    4    4    0    0 -0.20607105608E+02  0.25531549874E+02 -0.79641293379E+02  0.86135059363E+02  0.00000000000E+00 0. -1.
         -5    1    5    5    0  502 -0.68668232292E+02  0.47175685611E+02  0.94568792315E+01  0.83978532994E+02  0.47000000000E+01 0.  1.
         13    1    6    6    0    0 -0.12817251463E+02 -0.20467385175E+02 -0.26437685493E+01  0.24293729708E+02  0.00000000000E+00 0. -1.
        -14    1    6    6    0    0  0.30502384928E+02  0.78974607177E+01  0.94008886067E+02  0.99148555368E+02  0.00000000000E+00 0.  1.
</event>
<event>
12    1  0.9017558E-003  0.2313616E+03  0.7818608E-02  0.1125716E+00
         21   -1    0    0  501  502  0.00000000000E+00  0.00000000000E+00  0.14662576047E+03  0.14662576047E+03  0.00000000000E+00 0.  1.
         21   -1    0    0  502  503 -0.00000000000E+00 -0.00000000000E+00 -0.43391610782E+03  0.43391610782E+03  0.00000000000E+00 0. -1.
          6    2    1    2  501    0  0.14253264010E+03  0.59534142508E+02 -0.27739703848E+02  0.23284269056E+03  0.17200685963E+03 0.  0.
         24    2    3    3    0    0  0.13136733518E+03 -0.10949139793E+02  0.12537901829E+02  0.15076387089E+03  0.72078328028E+02 0.  0.
         -6    2    1    2    0  503 -0.14253264010E+03 -0.59534142508E+02 -0.25955064350E+03  0.34769917774E+03  0.17224492457E+03 0.  0.
        -24    2    5    5    0    0 -0.14876086371E+02 -0.61211924969E+02 -0.13523448561E+03  0.16944203825E+03  0.80337043295E+02 0.  0.
          5    1    3    3  501    0  0.11165304922E+02  0.70483282301E+02 -0.40277605676E+02  0.82078819661E+02  0.47000000000E+01 0. -1.
        -13    1    4    4    0    0  0.87033894023E+02  0.71675352894E+01 -0.23952812328E+02  0.90553903778E+02  0.00000000000E+00 0.  1.
         14    1    4    4    0    0  0.44333441154E+02 -0.18116675082E+02  0.36490714157E+02  0.60209967117E+02  0.00000000000E+00 0. -1.
         -5    1    5    5    0  503 -0.12765655373E+03  0.16777824603E+01 -0.12431615789E+03  0.17825713948E+03  0.47000000000E+01 0.  1.
         13    1    6    6    0    0 -0.19636138760E+02 -0.69828328922E+02 -0.14061637844E+03  0.15822306832E+03  0.00000000000E+00 0. -1.
        -14    1    6    6    0    0  0.47600523882E+01  0.86164039536E+01  0.53818928283E+01  0.11218969928E+02  0.00000000000E+00 0.  1.
</event>
<event>
12    1  0.9017558E-003  0.1987680E+03  0.7818608E-02  0.1151536E+00
         21   -1    0    0  501  502  0.00000000000E+00  0.00000000000E+00  0.47804909076E+02  0.47804909076E+02  0.00000000000E+00 0.  1.
         21   -1    0    0  502  503 -0.00000000000E+00 -0.00000000000E+00 -0.10039409204E+04  0.10039409204E+04  0.00000000000E+00 0. -1.
          6    2    1    2  501    0 -0.13765786620E+02  0.10064774518E+03 -0.24464870928E+03  0.31301522602E+03  0.16675153756E+03 0.  0.
         24    2    3    3    0    0 -0.52271491271E+02  0.11839235309E+03 -0.18649717143E+03  0.24089552167E+03  0.80625054042E+02 0.  0.
         -6    2    1    2    0  503  0.13765786620E+02 -0.10064774518E+03 -0.71148730208E+03  0.73873060349E+03  0.17084864068E+03 0.  0.
        -24    2    5    5    0    0  0.22393957028E+02 -0.36089934345E+02 -0.61836275324E+03  0.62499218491E+03  0.80241908857E+02 0.  0.
          5    1    3    3  501    0  0.38505704651E+02 -0.17744607920E+02 -0.58151537852E+02  0.72119704349E+02  0.47000000000E+01 0. -1.
        -13    1    4    4    0    0 -0.22166453728E+02  0.91704336500E+02 -0.69517352022E+02  0.11719086669E+03  0.00000000000E+00 0.  1.
         14    1    4    4    0    0 -0.30105037543E+02  0.26688016595E+02 -0.11697981941E+03  0.12370465498E+03  0.00000000000E+00 0. -1.
         -5    1    5    5    0  503 -0.86281704080E+01 -0.64557810830E+02 -0.93124548840E+02  0.11373841858E+03  0.47000000000E+01 0.  1.
         13    1    6    6    0    0  0.52112792026E+02 -0.29177904329E+02 -0.44064744055E+03  0.44467657916E+03  0.00000000000E+00 0. -1.
        -14    1    6    6    0    0 -0.29718834998E+02 -0.69120300162E+01 -0.17771531269E+03  0.18031560575E+03  0.00000000000E+00 0.  1.
</event>
<event>
12    1  0.9017558E-003  0.2137513E+03  0.7818608E-02  0.1138850E+00
         21   -1    0    0  501  502  0.00000000000E+00  0.00000000000E+00  0.57833721096E+02  0.57833721096E+02  0.00000000000E+00 0.  1.
         21   -1    0    0  502  503 -0.00000000000E+00 -0.00000000000E+00 -0.78862154384E+03  0.78862154384E+03  0.00000000000E+00 0.  1.
          6    2    1    2  501    0 -0.11535165189E+03 -0.52212117451E+02 -0.38961377232E+03  0.44385205358E+03  0.17080294226E+03 0.  0.
         24    2    3    3    0    0 -0.51345957295E+02 -0.95461192794E+02 -0.23790118816E+03  0.27354054589E+03  0.80487317378E+02 0.  0.
         -6    2    1    2    0  503  0.11535165189E+03  0.52212117451E+02 -0.34117405043E+03  0.40260321136E+03  0.17221354275E+03 0.  0.
        -24    2    5    5    0    0  0.12689778156E+03  0.54719649171E+02 -0.17658600040E+03  0.23752469356E+03  0.78345884017E+02 0.  0.
          5    1    3    3  501    0 -0.64005694596E+02  0.43249075343E+02 -0.15171258416E+03  0.17031150769E+03  0.47000000000E+01 0. -1.
        -13    1    4    4    0    0 -0.45521350272E+02 -0.66491603123E+01 -0.80385268536E+02  0.92618551388E+02  0.00000000000E+00 0.  1.
         14    1    4    4    0    0 -0.58246070228E+01 -0.88812032482E+02 -0.15751591962E+03  0.18092199450E+03  0.00000000000E+00 0. -1.
         -5    1    5    5    0  503 -0.11546129674E+02 -0.25075317197E+01 -0.16458805003E+03  0.16507851780E+03  0.47000000000E+01 0.  1.
         13    1    6    6    0    0  0.42230321254E+02  0.48076305891E+02 -0.36396655544E+02  0.73616898577E+02  0.00000000000E+00 0. -1.
        -14    1    6    6    0    0  0.84667460310E+02  0.66433432800E+01 -0.14018934485E+03  0.16390779498E+03  0.00000000000E+00 0.  1.
</event>
<event>
12    1  0.9017558E-003  0.1884443E+03  0.7818608E-02  0.1160554E+00
         21   -1    0    0  501  502  0.00000000000E+00  0.00000000000E+00  0.35473973358E+02  0.35473973358E+02  0.00000000000E+00 0. -1.
         21   -1    0    0  502  503 -0.00000000000E+00 -0.00000000000E+00 -0.13430948195E+04  0.13430948195E+04  0.00000000000E+00 0. -1.
          6    2    1    2  501    0  0.60068064897E+02  0.27227727805E+02 -0.30188679160E+03  0.35587480601E+03  0.17652682806E+03 0.  0.
         24    2    3    3    0    0 -0.37249622703E+02 -0.47404219510E+01 -0.14711553596E+03  0.17021671571E+03  0.76946367002E+02 0.  0.
         -6    2    1    2    0  503 -0.60068064897E+02 -0.27227727805E+02 -0.10057340545E+04  0.10226939868E+04  0.17335651329E+03 0.  0.
        -24    2    5    5    0    0 -0.54303440339E+02 -0.57963907517E+02 -0.96271996846E+03  0.96930629874E+03  0.80101715981E+02 0.  0.
          5    1    3    3  501    0  0.97317687601E+02  0.31968149756E+02 -0.15477125565E+03  0.18565809030E+03  0.47000000000E+01 0. -1.
        -11    1    4    4    0    0 -0.11754216927E+02 -0.57937214682E+01 -0.14390263428E+03  0.14449808642E+03  0.00000000000E+00 0.  1.
         12    1    4    4    0    0 -0.25495405777E+02  0.10532995172E+01 -0.32129016744E+01  0.25718629294E+02  0.00000000000E+00 0. -1.
         -5    1    5    5    0  503 -0.57646245581E+01  0.30736179711E+02 -0.43014086036E+02  0.53387688066E+02  0.47000000000E+01 0.  1.
         11    1    6    6    0    0  0.78051354486E+01  0.13939472304E+02 -0.21131074652E+03  0.21191380470E+03  0.00000000000E+00 0. -1.
        -12    1    6    6    0    0 -0.62108575787E+02 -0.71903379820E+02 -0.75140922194E+03  0.75739249404E+03  0.00000000000E+00 0.  1.
</event>
<event>
12    1  0.9017558E-003  0.1744255E+03  0.7818608E-02  0.1173367E+00
         21   -1    0    0  501  502  0.00000000000E+00  0.00000000000E+00  0.67410748440E+02  0.67410748440E+02  0.00000000000E+00 0.  1.
         21   -1    0    0  502  503 -0.00000000000E+00 -0.00000000000E+00 -0.50585280667E+03  0.50585280667E+03  0.00000000000E+00 0.  1.
          6    2    1    2  501    0 -0.27732855517E+02  0.15654212758E+02 -0.12448818697E+03  0.21411000681E+03  0.17126476774E+03 0.  0.
         24    2    3    3    0    0  0.21019704975E+02  0.27669787126E+02 -0.13688826565E+03  0.16217699098E+03  0.79721603188E+02 0.  0.
         -6    2    1    2    0  503  0.27732855517E+02 -0.15654212758E+02 -0.31395387126E+03  0.35915354830E+03  0.17149365098E+03 0.  0.
        -24    2    5    5    0    0  0.46668631846E+02  0.24367462663E+02 -0.96527237778E+02  0.13721497780E+03  0.82089634332E+02 0.  0.
          5    1    3    3  501    0 -0.48752560492E+02 -0.12015574368E+02  0.12400078675E+02  0.51933015828E+02  0.47000000000E+01 0. -1.
        -11    1    4    4    0    0  0.30930270474E+02 -0.18188160429E+02 -0.35575771565E+02  0.50528470527E+02  0.00000000000E+00 0.  1.
         12    1    4    4    0    0 -0.99105654985E+01  0.45857947555E+02 -0.10131249408E+03  0.11164852045E+03  0.00000000000E+00 0. -1.
         -5    1    5    5    0  503 -0.18935776330E+02 -0.40021675422E+02 -0.21742663348E+03  0.22193857050E+03  0.47000000000E+01 0.  1.
         11    1    6    6    0    0  0.57179524479E+02  0.19827449635E+02 -0.10619531035E+03  0.12222957792E+03  0.00000000000E+00 0. -1.
        -12    1    6    6    0    0 -0.10510892633E+02  0.45400130286E+01  0.96680725726E+01  0.14985399878E+02  0.00000000000E+00 0.  1.
</event>
<event>
12    1  0.9017558E-003  0.2230409E+03  0.7818608E-02  0.1132062E+00
         21   -1    0    0  503  502  0.00000000000E+00  0.00000000000E+00  0.51516738302E+02  0.51516738302E+02  0.00000000000E+00 0. -1.
         21   -1    0    0  501  503 -0.00000000000E+00 -0.00000000000E+00 -0.98539360997E+03  0.98539360997E+03  0.00000000000E+00 0. -1.
          6    2    1    2  501    0 -0.94552908495E+02  0.10692961536E+03 -0.55936007814E+03  0.60218847659E+03  0.17138573212E+03 0.  0.
         24    2    3    3    0    0 -0.35397364355E+02 -0.68824438733E+01 -0.30852719149E+03  0.32042298854E+03  0.78622657422E+02 0.  0.
         -6    2    1    2    0  502  0.94552908495E+02 -0.10692961536E+03 -0.37451679353E+03  0.43472187168E+03  0.16836294705E+03 0.  0.
        -24    2    5    5    0    0  0.11843765298E+03 -0.72148493072E+02 -0.20270971590E+03  0.25774738366E+03  0.78163944180E+02 0.  0.
          5    1    3    3  501    0 -0.59155544140E+02  0.11381205923E+03 -0.25083288665E+03  0.28176548805E+03  0.47000000000E+01 0. -1.
        -13    1    4    4    0    0 -0.53892275817E+02  0.57485351097E+01 -0.27371061973E+03  0.27902495660E+03  0.00000000000E+00 0.  1.
         14    1    4    4    0    0  0.18494911462E+02 -0.12630978983E+02 -0.34816571759E+02  0.41398031947E+02  0.00000000000E+00 0. -1.
         -5    1    5    5    0  502 -0.23884744482E+02 -0.34781122288E+02 -0.17180707763E+03  0.17697448802E+03  0.47000000000E+01 0.  1.
         11    1    6    6    0    0  0.66030653682E+02 -0.82583739786E+02 -0.13265736008E+03  0.16964108137E+03  0.00000000000E+00 0. -1.
        -12    1    6    6    0    0  0.52406999294E+02  0.10435246714E+02 -0.70052355812E+02  0.88106302293E+02  0.00000000000E+00 0.  1.
</event>
<event>
12    1  0.9017558E-003  0.2394652E+03  0.7818608E-02  0.1120220E+00
         21   -1    0    0  501  502  0.00000000000E+00  0.00000000000E+00  0.44598256285E+03  0.44598256285E+03  0.00000000000E+00 0.  1.
         21   -1    0    0  502  503 -0.00000000000E+00 -0.00000000000E+00 -0.14552328952E+03  0.14552328952E+03  0.00000000000E+00 0. -1.
          6    2    1    2  501    0  0.29048678656E+02  0.16339116798E+03  0.25194312763E+03  0.34759017378E+03  0.17263571428E+03 0.  0.
         24    2    3    3    0    0 -0.28626891321E+02  0.84233340315E+02  0.42066747526E+02  0.11593824096E+03  0.61296899948E+02 0.  0.
         -6    2    1    2    0  503 -0.29048678656E+02 -0.16339116798E+03  0.48516145704E+02  0.24391567859E+03  0.17204808154E+03 0.  0.
        -24    2    5    5    0    0 -0.10257248451E+02 -0.13423492209E+02  0.35252259433E+02  0.92121599969E+02  0.83416222025E+02 0.  0.
          5    1    3    3  501    0  0.57675569977E+02  0.79157827665E+02  0.20987638010E+03  0.23165193282E+03  0.47000000000E+01 0. -1.
        -13    1    4    4    0    0 -0.36132942838E+02  0.45722000472E+02  0.48945806739E+02  0.76103763919E+02  0.00000000000E+00 0.  1.
         14    1    4    4    0    0  0.75060515168E+01  0.38511339843E+02 -0.68790592129E+01  0.39834477046E+02  0.00000000000E+00 0. -1.
         -5    1    5    5    0  503 -0.18791430205E+02 -0.14996767577E+03  0.13263886271E+02  0.15179407862E+03  0.47000000000E+01 0.  1.
         13    1    6    6    0    0  0.23385852310E+02  0.54776377608E+01 -0.15334644101E+02  0.28496559677E+02  0.00000000000E+00 0. -1.
        -14    1    6    6    0    0 -0.33643100761E+02 -0.18901129970E+02  0.50586903534E+02  0.63625040292E+02  0.00000000000E+00 0.  1.
</event>
<event>
12    1  0.9017558E-003  0.1984249E+03  0.7818608E-02  0.1151485E+00
         21   -1    0    0  503  502  0.00000000000E+00  0.00000000000E+00  0.51490978771E+03  0.51490978771E+03  0.00000000000E+00 0. -1.
         21   -1    0    0  501  503 -0.00000000000E+00 -0.00000000000E+00 -0.77295091484E+02  0.77295091484E+02  0.00000000000E+00 0. -1.
          6    2    1    2  501    0 -0.90286271780E+02  0.30759849130E+02  0.25991518846E+03  0.32584133010E+03  0.17181061673E+03 0.  0.
         24    2    3    3    0    0  0.85682729083E+00  0.46462032204E+02  0.18363411427E+03  0.20586418503E+03  0.80617120774E+02 0.  0.
         -6    2    1    2    0  502  0.90286271780E+02 -0.30759849130E+02  0.17769950777E+03  0.26636354910E+03  0.17399610925E+03 0.  0.
        -24    2    5    5    0    0  0.25056917264E+02 -0.30057371456E+02  0.21422603849E+02  0.96953033293E+02  0.86079428596E+02 0.  0.
          5    1    3    3  501    0 -0.91143099071E+02 -0.15702183074E+02  0.76281074183E+02  0.11997714507E+03  0.47000000000E+01 0. -1.
        -11    1    4    4    0    0  0.11294501364E+02 -0.89299476265E+01  0.11997772198E+03  0.12083858448E+03  0.00000000000E+00 0.  1.
         12    1    4    4    0    0 -0.10437674073E+02  0.55391979831E+02  0.63656392289E+02  0.85025600550E+02  0.00000000000E+00 0. -1.
         -5    1    5    5    0  502  0.65229354516E+02 -0.70247767385E+00  0.15627690393E+03  0.16941051581E+03  0.47000000000E+01 0.  1.
         11    1    6    6    0    0  0.69058926182E+01  0.20832226087E+02 -0.19354975379E+02  0.29262400252E+02  0.00000000000E+00 0. -1.
        -12    1    6    6    0    0  0.18151024646E+02 -0.50889597543E+02  0.40777579228E+02  0.67690633041E+02  0.00000000000E+00 0.  1.
</event>
<event>
12    1  0.9017558E-003  0.2687123E+03  0.7818608E-02  0.1102199E+00
         21   -1    0    0  503  502  0.00000000000E+00  0.00000000000E+00  0.84805329516E+03  0.84805329516E+03  0.00000000000E+00 0. -1.
         21   -1    0    0  501  503 -0.00000000000E+00 -0.00000000000E+00 -0.85385057927E+02  0.85385057927E+02  0.00000000000E+00 0.  1.
          6    2    1    2  501    0  0.18343287305E+03  0.95571599960E+02  0.34189991321E+03  0.43485844255E+03  0.17153648232E+03 0.  0.
         24    2    3    3    0    0  0.14037633768E+03  0.12758656310E+03  0.30936376065E+03  0.37193377070E+03  0.81516538958E+02 0.  0.
         -6    2    1    2    0  502 -0.18343287305E+03 -0.95571599960E+02  0.42076832402E+03  0.49857991054E+03  0.16957120940E+03 0.  0.
        -24    2    5    5    0    0 -0.12581377503E+03  0.73510664980E+01  0.25989240497E+03  0.29903997203E+03  0.77444809677E+02 0.  0.
          5    1    3    3  501    0  0.43056535378E+02 -0.32014963138E+02  0.32536152563E+02  0.62924671847E+02  0.47000000000E+01 0. -1.
        -13    1    4    4    0    0  0.93584970619E+02  0.36324790853E+02  0.18728411764E+03  0.21249230075E+03  0.00000000000E+00 0.  1.
         14    1    4    4    0    0  0.46791367058E+02  0.91261772245E+02  0.12207964300E+03  0.15944146995E+03  0.00000000000E+00 0. -1.
         -5    1    5    5    0  502 -0.57619098024E+02 -0.10292266646E+03  0.16087591905E+03  0.19953993850E+03  0.47000000000E+01 0.  1.
         11    1    6    6    0    0 -0.10627581133E+03  0.16266752717E+02  0.25538886958E+03  0.27709678819E+03  0.00000000000E+00 0. -1.
        -12    1    6    6    0    0 -0.19537963699E+02 -0.89156862194E+01  0.45035353904E+01  0.21943183846E+02  0.00000000000E+00 0.  1.
</event>
<event>
12    1  0.9017558E-003  0.2919500E+03  0.7818608E-02  0.1090034E+00
         21   -1    0    0  501  502  0.00000000000E+00  0.00000000000E+00  0.53885628394E+03  0.53885628394E+03  0.00000000000E+00 0. -1.
         21   -1    0    0  502  503 -0.00000000000E+00 -0.00000000000E+00 -0.15927915670E+03  0.15927915670E+03  0.00000000000E+00 0.  1.
          6    2    1    2  501    0 -0.20964965786E+03  0.10764122493E+03  0.24671884295E+03  0.38223683040E+03  0.17232293725E+03 0.  0.
         24    2    3    3    0    0 -0.26768179858E+02  0.49631649938E+02  0.10743246633E+03  0.14510072919E+03  0.79577953356E+02 0.  0.
         -6    2    1    2    0  503  0.20964965786E+03 -0.10764122493E+03  0.13285828429E+03  0.31589861024E+03  0.16309811740E+03 0.  0.
        -24    2    5    5    0    0  0.39930898962E+02 -0.26250683908E+02  0.76300254232E+02  0.11930314220E+03  0.78281133392E+02 0.  0.
          5    1    3    3  501    0 -0.18288147800E+03  0.58009574993E+02  0.13928637662E+03  0.23713610121E+03  0.47000000000E+01 0. -1.
        -13    1    4    4    0    0  0.24374174853E+02  0.19336118346E+01  0.13300906000E+02  0.27834391585E+02  0.00000000000E+00 0.  1.
         14    1    4    4    0    0 -0.51142354711E+02  0.47698038103E+02  0.94131560333E+02  0.11726633760E+03  0.00000000000E+00 0. -1.
         -5    1    5    5    0  503  0.16971875889E+03 -0.81390541023E+02  0.56558030061E+02  0.19659546804E+03  0.47000000000E+01 0.  1.
         13    1    6    6    0    0 -0.35773378170E+01 -0.29019619286E+02 -0.23967021095E+01  0.29337345319E+02  0.00000000000E+00 0. -1.
        -14    1    6    6    0    0  0.43508236779E+02  0.27689353783E+01  0.78696956341E+02  0.89965796880E+02  0.00000000000E+00 0.  1.
</event>
<event>
12    1  0.9017558E-003  0.1922141E+03  0.7818608E-02  0.1157658E+00
         21   -1    0    0  503  502  0.00000000000E+00  0.00000000000E+00  0.33784523265E+03  0.33784523265E+03  0.00000000000E+00 0.  1.
         21   -1    0    0  501  503 -0.00000000000E+00 -0.00000000000E+00 -0.11175111042E+03  0.11175111042E+03  0.00000000000E+00 0. -1.
          6    2    1    2  501    0  0.81275110878E+02  0.41061720907E+02  0.16072821910E+03  0.24657178810E+03  0.16331680164E+03 0.  0.
         24    2    3    3    0    0  0.22362329295E+02  0.51004035434E+02  0.15888278665E+03  0.18661295995E+03  0.80493301118E+02 0.  0.
         -6    2    1    2    0  502 -0.81275110878E+02 -0.41061720907E+02  0.65365903125E+02  0.20302455497E+03  0.16927657859E+03 0.  0.
        -24    2    5    5    0    0  0.78848092715E+01  0.91992537481E+01  0.60855195198E+02  0.10046679846E+03  0.79015354989E+02 0.  0.
          5    1    3    3  501    0  0.58912781582E+02 -0.99423145267E+01  0.18454324488E+01  0.59958828148E+02  0.47000000000E+01 0. -1.
        -11    1    4    4    0    0 -0.14365797117E+02  0.55626154573E+01  0.10812339558E+03  0.10921532626E+03  0.00000000000E+00 0.  1.
         12    1    4    4    0    0  0.36728126412E+02  0.45441419977E+02  0.50759391070E+02  0.77397633691E+02  0.00000000000E+00 0. -1.
         -5    1    5    5    0  502 -0.89159920149E+02 -0.50260974655E+02  0.45107079277E+01  0.10255775651E+03  0.47000000000E+01 0.  1.
         11    1    6    6    0    0  0.37570603478E+01 -0.53039282179E+01 -0.18543111007E+02  0.19649277921E+02  0.00000000000E+00 0. -1.
        -12    1    6    6    0    0  0.41277489237E+01  0.14503181966E+02  0.79398306205E+02  0.80817520542E+02  0.00000000000E+00 0.  1.
</event>
<event>
12    1  0.9017558E-003  0.1922957E+03  0.7818608E-02  0.1158210E+00
         21   -1    0    0  503  502  0.00000000000E+00  0.00000000000E+00  0.39545416126E+03  0.39545416126E+03  0.00000000000E+00 0.  1.
         21   -1    0    0  501  503 -0.00000000000E+00 -0.00000000000E+00 -0.96091945290E+02  0.96091945290E+02  0.00000000000E+00 0.  1.
          6    2    1    2  501    0 -0.84030338503E+02 -0.20157499726E+02  0.89180274717E+02  0.21196881053E+03  0.17178542620E+03 0.  0.
         24    2    3    3    0    0 -0.10532585176E+02 -0.60550092511E+01 -0.15357030387E+02  0.83318361097E+02  0.80984643150E+02 0.  0.
         -6    2    1    2    0  502  0.84030338503E+02  0.20157499726E+02  0.21018194125E+03  0.27957729602E+03  0.16284837560E+03 0.  0.
        -24    2    5    5    0    0  0.42385679502E+02 -0.23248884463E+02  0.19633440424E+03  0.21767223893E+03  0.80603652874E+02 0.  0.
          5    1    3    3  501    0 -0.73497753327E+02 -0.14102490475E+02  0.10453730510E+03  0.12865044944E+03  0.47000000000E+01 0. -1.
        -11    1    4    4    0    0 -0.44961709426E+02 -0.72000068560E+01  0.16450845231E+00  0.45534849031E+02  0.00000000000E+00 0.  1.
         12    1    4    4    0    0  0.34429124250E+02  0.11449976048E+01 -0.15521538839E+02  0.37783512066E+02  0.00000000000E+00 0. -1.
         -5    1    5    5    0  502  0.41644659001E+02  0.43406384189E+02  0.13847537013E+02  0.61905057088E+02  0.47000000000E+01 0.  1.
         13    1    6    6    0    0 -0.76017619729E+01 -0.15318635331E+01  0.13656482298E+03  0.13678481007E+03  0.00000000000E+00 0. -1.
        -14    1    6    6    0    0  0.49987441475E+02 -0.21717020930E+02  0.59769581264E+02  0.80887428862E+02  0.00000000000E+00 0.  1.
</event>
<event>
12    1  0.9017558E-003  0.1821113E+03  0.7818608E-02  0.1166011E+00
         21   -1    0    0  503  502  0.00000000000E+00  0.00000000000E+00  0.14453314269E+03  0.14453314269E+03  0.00000000000E+00 0.  1.
         21   -1    0    0  501  503 -0.00000000000E+00 -0.00000000000E+00 -0.23123570552E+03  0.23123570552E+03  0.00000000000E+00 0.  1.
          6    2    1    2  501    0 -0.17629643482E+02  0.52947533398E+02 -0.64690320041E+02  0.19233206554E+03  0.17231523527E+03 0.  0.
         24    2    3    3    0    0 -0.22030763550E+02  0.63349387160E+02 -0.10643808741E+03  0.14882879556E+03  0.79513800934E+02 0.  0.
         -6    2    1    2    0  502  0.17629643482E+02 -0.52947533398E+02 -0.22012242781E+02  0.18343678266E+03  0.17335013349E+03 0.  0.
        -24    2    5    5    0    0  0.93452824245E+00  0.33905360017E+02 -0.35425857798E+02  0.93859067605E+02  0.80025535862E+02 0.  0.
          5    1    3    3  501    0  0.44011200688E+01 -0.10401853761E+02  0.41747767368E+02  0.43503269989E+02  0.47000000000E+01 0. -1.
        -13    1    4    4    0    0  0.12385374066E+02  0.68135207644E+02 -0.72398031140E+02  0.10018622123E+03  0.00000000000E+00 0.  1.
         14    1    4    4    0    0 -0.34416137616E+02 -0.47858204847E+01 -0.34040056270E+02  0.48642574325E+02  0.00000000000E+00 0. -1.
         -5    1    5    5    0  502  0.16695115239E+02 -0.86852893415E+02  0.13413615017E+02  0.89577715059E+02  0.47000000000E+01 0.  1.
         13    1    6    6    0    0  0.32867598822E+02  0.40153079030E+02 -0.10674142119E+02  0.52976278823E+02  0.00000000000E+00 0. -1.
        -14    1    6    6    0    0 -0.31933070580E+02 -0.62477190136E+01 -0.24751715679E+02  0.40882788782E+02  0.00000000000E+00 0.  1.
</event>
<event>
12    1  0.9017558E-003  0.2991673E+03  0.7818608E-02  0.1085752E+00
         21   -1    0    0  501  502  0.00000000000E+00  0.00000000000E+00  0.15718073592E+03  0.15718073592E+03  0.00000000000E+00 0. -1.
         21   -1    0    0  502  503 -0.00000000000E+00 -0.00000000000E+00 -0.79417830188E+03  0.79417830188E+03  0.00000000000E+00 0. -1.
          6    2    1    2  501    0  0.22473907161E+03 -0.96987996385E+02 -0.64927108658E+02  0.30613164850E+03  0.17200795047E+03 0.  0.
         24    2    3    3    0    0  0.15904547337E+03 -0.11736071179E+01 -0.19810156970E+02  0.18141727335E+03  0.84987909712E+02 0.  0.
         -6    2    1    2    0  503 -0.22473907161E+03  0.96987996385E+02 -0.57207045730E+03  0.64522738930E+03  0.17070282374E+03 0.  0.
        -24    2    5    5    0    0 -0.92620956416E+02  0.90822481172E+02 -0.39916859810E+03  0.42748820391E+03  0.81137106894E+02 0.  0.
          5    1    3    3  501    0  0.65693598240E+02 -0.95814389267E+02 -0.45116951688E+02  0.12471437515E+03  0.47000000000E+01 0. -1.
        -11    1    4    4    0    0 -0.21851807106E+01 -0.11493064633E+02 -0.15988454053E+02  0.19811517165E+02  0.00000000000E+00 0.  1.
         12    1    4    4    0    0  0.16123065408E+03  0.10319457515E+02 -0.38217029174E+01  0.16160575618E+03  0.00000000000E+00 0. -1.
         -5    1    5    5    0  503 -0.13211811519E+03  0.61655152126E+01 -0.17290185920E+03  0.21773918539E+03  0.47000000000E+01 0.  1.
         13    1    6    6    0    0 -0.37713374390E+02 -0.44843325845E+01 -0.15671751204E+03  0.16125379508E+03  0.00000000000E+00 0. -1.
        -14    1    6    6    0    0 -0.54907582025E+02  0.95306813757E+02 -0.24245108606E+03  0.26623440883E+03  0.00000000000E+00 0.  1.
</event>
<event>
12    1  0.9017558E-003  0.1803847E+03  0.7818608E-02  0.1167901E+00
         21   -1    0    0  503  502  0.00000000000E+00  0.00000000000E+00  0.23002472076E+04  0.23002472076E+04  0.00000000000E+00 0.  1.
         21   -1    0    0  501  503 -0.00000000000E+00 -0.00000000000E+00 -0.16344697781E+02  0.16344697781E+02  0.00000000000E+00 0.  1.
          6    2    1    2  501    0 -0.42972506908E+02 -0.20503685913E+02  0.70800276783E+03  0.73062067205E+03  0.17398738373E+03 0.  0.
         24    2    3    3    0    0 -0.34427113971E+02 -0.42833857125E+02  0.69732831795E+03  0.70401815024E+03  0.79717045580E+02 0.  0.
         -6    2    1    2    0  502  0.42972506908E+02  0.20503685913E+02  0.15758997420E+04  0.15859712333E+04  0.17198173926E+03 0.  0.
        -24    2    5    5    0    0  0.57091087151E+02 -0.42816693863E+01  0.48605262088E+03  0.49574075974E+03  0.78955846367E+02 0.  0.
          5    1    3    3  501    0 -0.85453929370E+01  0.22330171212E+02  0.10674449875E+02  0.26602521816E+02  0.47000000000E+01 0. -1.
        -13    1    4    4    0    0 -0.48392671251E+02 -0.46634560847E+02  0.35032412321E+03  0.35671224285E+03  0.00000000000E+00 0.  1.
         14    1    4    4    0    0  0.13965557280E+02  0.38007037219E+01  0.34700419474E+03  0.34730590739E+03  0.00000000000E+00 0. -1.
         -5    1    5    5    0  502 -0.14118580243E+02  0.24785355299E+02  0.10898471211E+04  0.10902304736E+04  0.47000000000E+01 0.  1.
         11    1    6    6    0    0  0.54767027940E+02  0.20358535684E+02  0.43606162927E+03  0.43995868198E+03  0.00000000000E+00 0. -1.
        -12    1    6    6    0    0  0.23240592111E+01 -0.24640205070E+02  0.49990991606E+02  0.55782077757E+02  0.00000000000E+00 0.  1.
</event>
<event>
12    1  0.9017558E-003  0.2139312E+03  0.7818608E-02  0.1138590E+00
         21   -1    0    0  501  502  0.00000000000E+00  0.00000000000E+00  0.22919167741E+04  0.22919167741E+04  0.00000000000E+00 0. -1.
         21   -1    0    0  502  503 -0.00000000000E+00 -0.00000000000E+00 -0.20075726576E+02  0.20075726576E+02  0.00000000000E+00 0. -1.
          6    2    1    2  501    0 -0.44264488473E+02  0.11950402064E+03  0.12362485811E+04  0.12545340784E+04  0.17118599156E+03 0.  0.
         24    2    3    3    0    0 -0.77481487716E+02  0.78947026496E+02  0.60129871707E+03  0.61740641564E+03  0.85991400741E+02 0.  0.
         -6    2    1    2    0  503  0.44264488473E+02 -0.11950402064E+03  0.10355924664E+04  0.10574584223E+04  0.17183131973E+03 0.  0.
        -24    2    5    5    0    0 -0.29405147363E+02 -0.85390872003E+02  0.42102627831E+03  0.43753535308E+03  0.77574444570E+02 0.  0.
          5    1    3    3  501    0  0.33216999243E+02  0.40556994148E+02  0.63494986401E+03  0.63712766274E+03  0.47000000000E+01 0. -1.
        -11    1    4    4    0    0 -0.46637374023E+01 -0.16490802522E+02  0.41846779828E+02  0.45220017651E+02  0.00000000000E+00 0.  1.
         12    1    4    4    0    0 -0.72817750314E+02  0.95437829018E+02  0.55945193724E+03  0.57218639799E+03  0.00000000000E+00 0. -1.
         -5    1    5    5    0  503  0.73669635836E+02 -0.34113148641E+02  0.61456618811E+03  0.61992306920E+03  0.47000000000E+01 0.  1.
         13    1    6    6    0    0 -0.99081536828E+01 -0.32166424588E+01  0.26897693052E+01  0.10758864114E+02  0.00000000000E+00 0. -1.
        -14    1    6    6    0    0 -0.19496993680E+02 -0.82174229544E+02  0.41833650901E+03  0.42677648896E+03  0.00000000000E+00 0.  1.
</event>
<event>
12    1  0.9017558E-003  0.2004440E+03  0.7818608E-02  0.1149609E+00
         21   -1    0    0  501  502  0.00000000000E+00  0.00000000000E+00  0.63763426325E+02  0.63763426325E+02  0.00000000000E+00 0. -1.
         21   -1    0    0  502  503 -0.00000000000E+00 -0.00000000000E+00 -0.62952976063E+03  0.62952976063E+03  0.00000000000E+00 0. -1.
          6    2    1    2  501    0 -0.52499260875E+02  0.87935414089E+02 -0.25792483243E+03  0.32594568353E+03  0.17095777252E+03 0.  0.
         24    2    3    3    0    0 -0.88166974943E+02  0.33224399884E+02 -0.21421345723E+03  0.24721668491E+03  0.79695720218E+02 0.  0.
         -6    2    1    2    0  503  0.52499260875E+02 -0.87935414089E+02 -0.30784150187E+03  0.36734750342E+03  0.17230492898E+03 0.  0.
        -24    2    5    5    0    0  0.81987901054E+02 -0.80994976951E+02 -0.14815766049E+03  0.20474747647E+03  0.81784072694E+02 0.  0.
          5    1    3    3  501    0  0.35667714068E+02  0.54711014205E+02 -0.43711375197E+02  0.78728998621E+02  0.47000000000E+01 0. -1.
        -11    1    4    4    0    0 -0.29922280520E+02  0.26040657014E+01 -0.84705200361E+01  0.31206950177E+02  0.00000000000E+00 0.  1.
         12    1    4    4    0    0 -0.58244694424E+02  0.30620334182E+02 -0.20574293720E+03  0.21600973474E+03  0.00000000000E+00 0. -1.
         -5    1    5    5    0  503 -0.29488640179E+02 -0.69404371380E+01 -0.15968384138E+03  0.16260002695E+03  0.47000000000E+01 0.  1.
         11    1    6    6    0    0  0.21523192804E+02 -0.50097233398E+02 -0.17099174218E+02  0.57143349407E+02  0.00000000000E+00 0. -1.
        -12    1    6    6    0    0  0.60464708250E+02 -0.30897743554E+02 -0.13105848627E+03  0.14760412706E+03  0.00000000000E+00 0.  1.
</event>
<event>
12    1  0.9017558E-003  0.1945701E+03  0.7818608E-02  0.1156502E+00
         21   -1    0    0  501  502  0.00000000000E+00  0.00000000000E+00  0.45435177472E+03  0.45435177472E+03  0.00000000000E+00 0. -1.
         21   -1    0    0  502  503 -0.00000000000E+00 -0.00000000000E+00 -0.81155172717E+02  0.81155172717E+02  0.00000000000E+00 0. -1.
          6    2    1    2  501    0  0.26428412525E+02 -0.62903652331E+02  0.22186578014E+03  0.28901450753E+03  0.17219068123E+03 0.  0.
         24    2    3    3    0    0 -0.43157820347E+02 -0.28417773032E+02  0.70338719223E+02  0.11867936768E+03  0.80418216908E+02 0.  0.
         -6    2    1    2    0  503 -0.26428412525E+02  0.62903652331E+02  0.15133082186E+03  0.24649243990E+03  0.18221463942E+03 0.  0.
        -24    2    5    5    0    0  0.45241251015E+02  0.52965665298E+02  0.38191423138E+02  0.11211268770E+03  0.79110918645E+02 0.  0.
          5    1    3    3  501    0  0.69586232872E+02 -0.34485879298E+02  0.15152706092E+03  0.17033513985E+03  0.47000000000E+01 0. -1.
        -11    1    4    4    0    0  0.22390557133E+02 -0.14636942260E+02  0.10095379495E+02  0.28591848744E+02  0.00000000000E+00 0.  1.
         12    1    4    4    0    0 -0.65548377481E+02 -0.13780830772E+02  0.60243339728E+02  0.90087518939E+02  0.00000000000E+00 0. -1.
         -5    1    5    5    0  503 -0.71669663540E+02  0.99379870324E+01  0.11313939872E+03  0.13437975220E+03  0.47000000000E+01 0.  1.
         13    1    6    6    0    0  0.41191456060E+02 -0.71206616621E+01  0.19965059550E+01  0.41850040752E+02  0.00000000000E+00 0. -1.
        -14    1    6    6    0    0  0.40497949542E+01  0.60086326960E+02  0.36194917183E+02  0.70262646952E+02  0.00000000000E+00 0.  1.
</event>
<event>
12    1  0.9017558E-003  0.2340816E+03  0.7818608E-02  0.1123846E+00
         21   -1    0    0  501  502  0.00000000000E+00  0.00000000000E+00  0.26233846399E+03  0.26233846399E+03  0.00000000000E+00 0.  1.
         21   -1    0    0  502  503 -0.00000000000E+00 -0.00000000000E+00 -0.25062613111E+03  0.25062613111E+03  0.00000000000E+00 0.  1.
          6    2    1    2  501    0 -0.11284391381E+03 -0.11131138914E+03  0.11084727495E+03  0.25875616633E+03  0.17188269550E+03 0.  0.
         24    2    3    3    0    0 -0.13070178916E+03 -0.69582038953E+02  0.12219556705E+03  0.21173365987E+03  0.89301558120E+02 0.  0.
         -6    2    1    2    0  503  0.11284391381E+03  0.11131138914E+03 -0.99134942072E+02  0.25420842877E+03  0.17225044058E+03 0.  0.
        -24    2    5    5    0    0  0.74047999978E+02  0.36701181115E+02  0.79087863216E+01  0.11800176278E+03  0.83855733982E+02 0.  0.
          5    1    3    3  501    0  0.17857875351E+02 -0.41729350192E+02 -0.11348292104E+02  0.47022506454E+02  0.47000000000E+01 0. -1.
        -11    1    4    4    0    0 -0.39996383800E+02 -0.67833662191E+02  0.35974245795E+02  0.86575185843E+02  0.00000000000E+00 0.  1.
         12    1    4    4    0    0 -0.90705405359E+02 -0.17483767620E+01  0.86221321256E+02  0.12515847403E+03  0.00000000000E+00 0. -1.
         -5    1    5    5    0  503  0.38795913829E+02  0.74610208029E+02 -0.10704372839E+03  0.13620666599E+03  0.47000000000E+01 0.  1.
         13    1    6    6    0    0  0.79161662247E+02  0.84172329458E+00  0.16284793732E+02  0.80823707999E+02  0.00000000000E+00 0. -1.
        -14    1    6    6    0    0 -0.51136622692E+01  0.35859457821E+02 -0.83760074103E+01  0.37178054779E+02  0.00000000000E+00 0.  1.
</event>
<event>
12    1  0.9017558E-003  0.1954031E+03  0.7818608E-02  0.1156238E+00
         21   -1    0    0  501  502  0.00000000000E+00  0.00000000000E+00  0.88504589861E+02  0.88504589861E+02  0.00000000000E+00 0. -1.
         21   -1    0    0  502  503 -0.00000000000E+00 -0.00000000000E+00 -0.55914337961E+03  0.55914337961E+03  0.00000000000E+00 0. -1.
          6    2    1    2  501    0 -0.63932758508E+02 -0.22386581496E+02 -0.61089202293E+02  0.19387131454E+03  0.17107202964E+03 0.  0.
         24    2    3    3    0    0  0.28779691924E+02  0.69914622243E+01 -0.20753521214E+02  0.88478121754E+02  0.80749725541E+02 0.  0.
         -6    2    1    2    0  503  0.63932758508E+02  0.22386581496E+02 -0.40954958746E+03  0.45377665493E+03  0.18328620061E+03 0.  0.
        -24    2    5    5    0    0 -0.39286582354E+02 -0.55686145380E+01 -0.17254721882E+03  0.19372293345E+03  0.78623070428E+02 0.  0.
          5    1    3    3  501    0 -0.92712450432E+02 -0.29378043720E+02 -0.40335681079E+02  0.10539319279E+03  0.47000000000E+01 0. -1.
        -11    1    4    4    0    0  0.26569742456E+02  0.41298598594E+02 -0.22583368178E+02  0.54051216251E+02  0.00000000000E+00 0.  1.
         12    1    4    4    0    0  0.22099494677E+01 -0.34307136370E+02  0.18298469636E+01  0.34426905502E+02  0.00000000000E+00 0. -1.
         -5    1    5    5    0  503  0.10321934086E+03  0.27955196034E+02 -0.23700236864E+03  0.26005372148E+03  0.47000000000E+01 0.  1.
         13    1    6    6    0    0 -0.22236806403E+02  0.11826740398E+02 -0.16680746533E+03  0.16869818563E+03  0.00000000000E+00 0. -1.
        -14    1    6    6    0    0 -0.17049775952E+02 -0.17395354936E+02 -0.57397534908E+01  0.25024747820E+02  0.00000000000E+00 0.  1.
</event>
<event>
12    1  0.9017558E-003  0.2140382E+03  0.7818608E-02  0.1138644E+00
         21   -1    0    0  501  502  0.00000000000E+00  0.00000000000E+00  0.26606149844E+03  0.26606149844E+03  0.00000000000E+00 0. -1.
         21   -1    0    0  502  503 -0.00000000000E+00 -0.00000000000E+00 -0.25537421724E+03  0.25537421724E+03  0.00000000000E+00 0. -1.
          6    2    1    2  501    0  0.24129041949E+01 -0.12655115349E+03 -0.14432222780E+03  0.25814970488E+03  0.17260170374E+03 0.  0.
         24    2    3    3    0    0  0.49416923848E+01 -0.11786880560E+03 -0.33582533676E+02  0.14694202624E+03  0.80911660771E+02 0.  0.
         -6    2    1    2    0  503 -0.24129041949E+01  0.12655115349E+03  0.15500950900E+03  0.26328601081E+03  0.17108640814E+03 0.  0.
        -24    2    5    5    0    0 -0.19820616901E+02  0.42907306454E+02  0.51182061797E+01  0.90691647432E+02  0.77232668463E+02 0.  0.
          5    1    3    3  501    0 -0.25287881899E+01 -0.86823478920E+01 -0.11073969412E+03  0.11120767864E+03  0.47000000000E+01 0. -1.
        -13    1    4    4    0    0  0.42128157582E+02 -0.61343527659E+02 -0.90202621391E+01  0.74961157782E+02  0.00000000000E+00 0.  1.
         14    1    4    4    0    0 -0.37186465197E+02 -0.56525277942E+02 -0.24562271537E+02  0.71980868454E+02  0.00000000000E+00 0. -1.
         -5    1    5    5    0  503  0.17407712707E+02  0.83643847039E+02  0.14989130282E+03  0.17259436338E+03  0.47000000000E+01 0.  1.
         11    1    6    6    0    0 -0.35286979116E+02  0.17832538599E+02  0.31958005474E+02  0.50837824914E+02  0.00000000000E+00 0. -1.
        -12    1    6    6    0    0  0.15466362215E+02  0.25074767855E+02 -0.26839799295E+02  0.39853822518E+02  0.00000000000E+00 0.  1.
</event>
<event>
12    1  0.9017558E-003  0.1879030E+03  0.7818608E-02  0.1161041E+00
         21   -1    0    0  503  502  0.00000000000E+00  0.00000000000E+00  0.19859389909E+03  0.19859389909E+03  0.00000000000E+00 0. -1.
         21   -1    0    0  501  503 -0.00000000000E+00 -0.00000000000E+00 -0.18550934266E+03  0.18550934266E+03  0.00000000000E+00 0.  1.
          6    2    1    2  501    0 -0.11550855679E+02  0.67678918756E+02 -0.39146024533E+02  0.18907616938E+03  0.17176591129E+03 0.  0.
         24    2    3    3    0    0 -0.10679220482E+02  0.10393238764E+03 -0.63149617636E+02  0.14533447033E+03  0.78855862851E+02 0.  0.
         -6    2    1    2    0  502  0.11550855679E+02 -0.67678918756E+02  0.52230580961E+02  0.19502707236E+03  0.17491045439E+03 0.  0.
        -24    2    5    5    0    0 -0.38653526119E+02 -0.13734409254E+02  0.79431619928E+02  0.11633478190E+03  0.74442394890E+02 0.  0.
          5    1    3    3  501    0 -0.87163519740E+00 -0.36253468888E+02  0.24003593103E+02  0.43741699055E+02  0.47000000000E+01 0. -1.
        -13    1    4    4    0    0 -0.26973437575E+02  0.15107353966E+01 -0.16120751551E+02  0.31459931447E+02  0.00000000000E+00 0.  1.
         14    1    4    4    0    0  0.16294217093E+02  0.10242165225E+03 -0.47028866086E+02  0.11387453888E+03  0.00000000000E+00 0. -1.
         -5    1    5    5    0  502  0.50204381798E+02 -0.53944509502E+02 -0.27201038967E+02  0.78692290461E+02  0.47000000000E+01 0.  1.
         13    1    6    6    0    0  0.17271351492E+02  0.14233971075E+02  0.18656645698E+02  0.29137191759E+02  0.00000000000E+00 0. -1.
        -14    1    6    6    0    0 -0.55924877611E+02 -0.27968380330E+02  0.60774974231E+02  0.87197590143E+02  0.00000000000E+00 0.  1.
</event>
<event>
12    1  0.9017558E-003  0.1781006E+03  0.7818608E-02  0.1170480E+00
         21   -1    0    0  503  502  0.00000000000E+00  0.00000000000E+00  0.36132082557E+03  0.36132082557E+03  0.00000000000E+00 0.  1.
         21   -1    0    0  501  503 -0.00000000000E+00 -0.00000000000E+00 -0.12002344771E+03  0.12002344771E+03  0.00000000000E+00 0.  1.
          6    2    1    2  501    0  0.43003514460E+02 -0.13364809568E+02 -0.63785928591E+01  0.17821480486E+03  0.17231340585E+03 0.  0.
         24    2    3    3    0    0  0.63253780267E+02 -0.65762635551E+02 -0.37466340208E+01  0.12178234399E+03  0.80567593290E+02 0.  0.
         -6    2    1    2    0  502 -0.43003514460E+02  0.13364809568E+02  0.24767597072E+03  0.30312946842E+03  0.16886730816E+03 0.  0.
        -24    2    5    5    0    0 -0.30486659382E+02 -0.56243970128E+02  0.12015177873E+03  0.15723031348E+03  0.78689903851E+02 0.  0.
          5    1    3    3  501    0 -0.20250265807E+02  0.52397825983E+02 -0.26319588383E+01  0.56432460874E+02  0.47000000000E+01 0. -1.
        -11    1    4    4    0    0 -0.19565063758E+02 -0.13764507048E+02 -0.16329433933E-01  0.23921823525E+02  0.00000000000E+00 0.  1.
         12    1    4    4    0    0  0.82818844024E+02 -0.51998128503E+02 -0.37303045869E+01  0.97860520465E+02  0.00000000000E+00 0. -1.
         -5    1    5    5    0  502 -0.12516855078E+02  0.69608779696E+02  0.12752419199E+03  0.14589915495E+03  0.47000000000E+01 0.  1.
         13    1    6    6    0    0  0.63619109435E+00 -0.53656054722E+02  0.11314385720E+03  0.12522343778E+03  0.00000000000E+00 0. -1.
        -14    1    6    6    0    0 -0.31122850476E+02 -0.25879154063E+01  0.70079215349E+01  0.32006875701E+02  0.00000000000E+00 0.  1.
</event>
<event>
12    1  0.9017558E-003  0.1844792E+03  0.7818608E-02  0.1163567E+00
         21   -1    0    0  503  502  0.00000000000E+00  0.00000000000E+00  0.43987621212E+03  0.43987621212E+03  0.00000000000E+00 0. -1.
         21   -1    0    0  501  503 -0.00000000000E+00 -0.00000000000E+00 -0.79799128728E+02  0.79799128728E+02  0.00000000000E+00 0.  1.
          6    2    1    2  501    0 -0.58602982021E+02 -0.31538595139E+02  0.13424808467E+03  0.22815592672E+03  0.17205692713E+03 0.  0.
         24    2    3    3    0    0 -0.45736173774E+02 -0.29749401319E+01  0.15842705777E+01  0.91762324552E+02  0.79480604135E+02 0.  0.
         -6    2    1    2    0  502  0.58602982021E+02  0.31538595139E+02  0.22582899872E+03  0.29151941413E+03  0.17191811908E+03 0.  0.
        -24    2    5    5    0    0  0.43682369808E+02  0.52111779208E+02  0.53417919642E+02  0.11718195183E+03  0.79084440518E+02 0.  0.
          5    1    3    3  501    0 -0.12866808247E+02 -0.28563655007E+02  0.13266381409E+03  0.13639360216E+03  0.47000000000E+01 0. -1.
        -13    1    4    4    0    0  0.44105807882E+00 -0.35166859383E+02 -0.29258164725E+01  0.35291116916E+02  0.00000000000E+00 0.  1.
         14    1    4    4    0    0 -0.46177231853E+02  0.32191919252E+02  0.45100870502E+01  0.56471207636E+02  0.00000000000E+00 0. -1.
         -5    1    5    5    0  502  0.14920612213E+02 -0.20573184070E+02  0.17241107908E+03  0.17433746230E+03  0.47000000000E+01 0.  1.
         13    1    6    6    0    0 -0.21024356936E+02  0.97351723047E+00  0.16863379024E+02  0.26969332073E+02  0.00000000000E+00 0. -1.
        -14    1    6    6    0    0  0.64706726744E+02  0.51138261978E+02  0.36554540618E+02  0.90212619759E+02  0.00000000000E+00 0.  1.
</event>
<event>
12    1  0.9017558E-003  0.2552723E+03  0.7818608E-02  0.1110050E+00
         21   -1    0    0  501  502  0.00000000000E+00  0.00000000000E+00  0.11738885501E+03  0.11738885501E+03  0.00000000000E+00 0. -1.
         21   -1    0    0  502  503 -0.00000000000E+00 -0.00000000000E+00 -0.57619575561E+03  0.57619575561E+03  0.00000000000E+00 0.  1.
          6    2    1    2  501    0 -0.15889648027E+03  0.10048192024E+03 -0.16225073825E+03  0.30229248738E+03  0.17236803104E+03 0.  0.
         24    2    3    3    0    0 -0.13763161374E+03  0.13761349958E+03 -0.12097743256E+03  0.24265588372E+03  0.79789738387E+02 0.  0.
         -6    2    1    2    0  503  0.15889648027E+03 -0.10048192024E+03 -0.29655616236E+03  0.39129212325E+03  0.17268254268E+03 0.  0.
        -24    2    5    5    0    0  0.68482929907E+02 -0.12023811237E+03 -0.21707870661E+03  0.26921152205E+03  0.78769050952E+02 0.  0.
          5    1    3    3  501    0 -0.21264866529E+02 -0.37131579337E+02 -0.41273305689E+02  0.59636603651E+02  0.47000000000E+01 0. -1.
        -13    1    4    4    0    0 -0.12666992305E+03  0.76893882277E+02 -0.92651696847E+02  0.17476348436E+03  0.00000000000E+00 0.  1.
         14    1    4    4    0    0 -0.10961690688E+02  0.60719617302E+02 -0.28325735710E+02  0.67892399365E+02  0.00000000000E+00 0. -1.
         -5    1    5    5    0  503  0.90413550358E+02  0.19756192129E+02 -0.79477455745E+02  0.12208060119E+03  0.47000000000E+01 0.  1.
         11    1    6    6    0    0  0.36157222928E+02 -0.12888275752E+02 -0.22083425603E+02  0.44284648673E+02  0.00000000000E+00 0. -1.
        -12    1    6    6    0    0  0.32325706979E+02 -0.10734983662E+03 -0.19499528101E+03  0.22492687338E+03  0.00000000000E+00 0.  1.
</event>
<event>
12    1  0.9017558E-003  0.2033581E+03  0.7818608E-02  0.1147355E+00
         21   -1    0    0  501  502  0.00000000000E+00  0.00000000000E+00  0.44824102832E+03  0.44824102832E+03  0.00000000000E+00 0. -1.
         21   -1    0    0  502  503 -0.00000000000E+00 -0.00000000000E+00 -0.61236248074E+03  0.61236248074E+03  0.00000000000E+00 0. -1.
          6    2    1    2  501    0  0.39010559606E+02 -0.99656559086E+02  0.40715140149E+03  0.45421487771E+03  0.17054511976E+03 0.  0.
         24    2    3    3    0    0  0.29089086330E+02  0.15136526361E+02  0.18272145831E+03  0.20189211320E+03  0.79359968940E+02 0.  0.
         -6    2    1    2    0  503 -0.39010559606E+02  0.99656559086E+02 -0.57127285391E+03  0.60638863135E+03  0.17291976489E+03 0.  0.
        -24    2    5    5    0    0  0.29514223152E+02  0.52228509003E+02 -0.34068523664E+03  0.36115852507E+03  0.10377930068E+03 0.  0.
          5    1    3    3  501    0  0.99214732754E+01 -0.11479308545E+03  0.22442994318E+03  0.25232276452E+03  0.47000000000E+01 0. -1.
        -13    1    4    4    0    0 -0.75417583308E+01 -0.27601872007E+02  0.47954967791E+02  0.55842818633E+02  0.00000000000E+00 0.  1.
         14    1    4    4    0    0  0.36630844661E+02  0.42738398368E+02  0.13476649052E+03  0.14604929456E+03  0.00000000000E+00 0. -1.
         -5    1    5    5    0  503 -0.68524782757E+02  0.47428050083E+02 -0.23058761727E+03  0.24523010628E+03  0.47000000000E+01 0.  1.
         11    1    6    6    0    0  0.41392491466E+01  0.12451569442E+02 -0.29562648798E+03  0.29591754825E+03  0.00000000000E+00 0. -1.
        -12    1    6    6    0    0  0.25374974005E+02  0.39776939561E+02 -0.45058748658E+02  0.65240976826E+02  0.00000000000E+00 0.  1.
</event>
<event>
12    1  0.9017558E-003  0.1788903E+03  0.7818608E-02  0.1173867E+00
         21   -1    0    0  503  502  0.00000000000E+00  0.00000000000E+00  0.14449755902E+04  0.14449755902E+04  0.00000000000E+00 0.  1.
         21   -1    0    0  501  503 -0.00000000000E+00 -0.00000000000E+00 -0.30188600418E+02  0.30188600418E+02  0.00000000000E+00 0.  1.
          6    2    1    2  501    0 -0.36794614271E+02 -0.28327742152E+02  0.24938358128E+03  0.29611082071E+03  0.15275189988E+03 0.  0.
         24    2    3    3    0    0 -0.48151435384E+02 -0.67864684710E+02  0.15321937812E+03  0.19141224774E+03  0.78982875319E+02 0.  0.
         -6    2    1    2    0  502  0.36794614271E+02  0.28327742152E+02  0.11654034085E+04  0.11790533699E+04  0.17275832808E+03 0.  0.
        -24    2    5    5    0    0  0.91161130074E+02  0.18497229786E+02  0.85202616971E+03  0.86080858864E+03  0.79939559974E+02 0.  0.
          5    1    3    3  501    0  0.11356821112E+02  0.39536942558E+02  0.96164203158E+02  0.10469857297E+03  0.47000000000E+01 0. -1.
        -13    1    4    4    0    0 -0.21721726188E+02 -0.26537867014E+02  0.42291772705E+01  0.34553982616E+02  0.00000000000E+00 0.  1.
         14    1    4    4    0    0 -0.26429709195E+02 -0.41326817697E+02  0.14899020085E+03  0.15685826512E+03  0.00000000000E+00 0. -1.
         -5    1    5    5    0  502 -0.54366515802E+02  0.98305123659E+01  0.31337723883E+03  0.31824478131E+03  0.47000000000E+01 0.  1.
         11    1    6    6    0    0 -0.55701868454E+01  0.14385464956E+02  0.37507917585E+02  0.40556287614E+02  0.00000000000E+00 0. -1.
        -12    1    6    6    0    0  0.96731316919E+02  0.41117648301E+01  0.81451825213E+03  0.82025230102E+03  0.00000000000E+00 0.  1.
</event>
<event>
12    1  0.9017558E-003  0.2003954E+03  0.7818608E-02  0.1149581E+00
         21   -1    0    0  501  502  0.00000000000E+00  0.00000000000E+00  0.11698298764E+04  0.11698298764E+04  0.00000000000E+00 0. -1.
         21   -1    0    0  502  503 -0.00000000000E+00 -0.00000000000E+00 -0.34481001367E+02  0.34481001367E+02  0.00000000000E+00 0. -1.
          6    2    1    2  501    0 -0.80410714930E+02  0.63282545353E+02  0.51086772665E+03  0.54846408915E+03  0.17133726778E+03 0.  0.
         24    2    3    3    0    0 -0.76712505111E+02 -0.71529076728E+01  0.41470684384E+03  0.42911654966E+03  0.78887732488E+02 0.  0.
         -6    2    1    2    0  503  0.80410714930E+02 -0.63282545353E+02  0.62448114842E+03  0.65584678865E+03  0.17230131118E+03 0.  0.
        -24    2    5    5    0    0  0.11212216740E+03 -0.55215373714E+02  0.58590111847E+03  0.60504123593E+03  0.84703356716E+02 0.  0.
          5    1    3    3  501    0 -0.36982098184E+01  0.70435453026E+02  0.96160882807E+02  0.11934753948E+03  0.47000000000E+01 0. -1.
        -13    1    4    4    0    0 -0.76055410870E+02  0.37736827324E+01  0.41031621632E+03  0.41732249350E+03  0.00000000000E+00 0.  1.
         14    1    4    4    0    0 -0.65709424181E+00 -0.10926590405E+02  0.43906275161E+01  0.11794056160E+02  0.00000000000E+00 0. -1.
         -5    1    5    5    0  503 -0.31711452474E+02 -0.80671716394E+01  0.38580029950E+02  0.50805552721E+02  0.47000000000E+01 0.  1.
         13    1    6    6    0    0  0.10307379027E+03 -0.66329164175E+02  0.57231584606E+03  0.58529410719E+03  0.00000000000E+00 0. -1.
        -14    1    6    6    0    0  0.90483771357E+01  0.11113790461E+02  0.13585272412E+02  0.19747128746E+02  0.00000000000E+00 0.  1.
</event>
<event>
12    1  0.9017558E-003  0.2137667E+03  0.7818608E-02  0.1138805E+00
         21   -1    0    0  501  502  0.00000000000E+00  0.00000000000E+00  0.15673527397E+03  0.15673527397E+03  0.00000000000E+00 0. -1.
         21   -1    0    0  502  503 -0.00000000000E+00 -0.00000000000E+00 -0.54806393329E+03  0.54806393329E+03  0.00000000000E+00 0. -1.
          6    2    1    2  501    0 -0.40721993864E+02  0.12036945092E+03  0.46277588006E+02  0.21777208604E+03  0.17069265013E+03 0.  0.
         24    2    3    3    0    0 -0.52219956586E+02  0.38811307407E+02 -0.38833439125E+02  0.99239766152E+02  0.64087859561E+02 0.  0.
         -6    2    1    2    0  503  0.40721993864E+02 -0.12036945092E+03 -0.43760624732E+03  0.48702712122E+03  0.17189852707E+03 0.  0.
        -24    2    5    5    0    0  0.75286449627E+01 -0.13594443653E+03 -0.41371007552E+03  0.44301012888E+03  0.81020845333E+02 0.  0.
          5    1    3    3  501    0  0.11497962722E+02  0.81558143512E+02  0.85111027131E+02  0.11853231989E+03  0.47000000000E+01 0. -1.
        -11    1    4    4    0    0 -0.71844598741E+01  0.40865881053E+02 -0.34477424668E+02  0.53947469910E+02  0.00000000000E+00 0.  1.
         12    1    4    4    0    0 -0.45035496712E+02 -0.20545736464E+01 -0.43560144570E+01  0.45292296242E+02  0.00000000000E+00 0. -1.
         -5    1    5    5    0  503  0.33193348901E+02  0.15574985615E+02 -0.23896171800E+02  0.44016992342E+02  0.47000000000E+01 0.  1.
         11    1    6    6    0    0  0.27240206085E+02 -0.11831290401E+03 -0.38626791894E+03  0.40489860124E+03  0.00000000000E+00 0. -1.
        -12    1    6    6    0    0 -0.19711561122E+02 -0.17631532523E+02 -0.27442156585E+02  0.38111527640E+02  0.00000000000E+00 0.  1.
</event>
<event>
12    1  0.9017558E-003  0.2338197E+03  0.7818608E-02  0.1124099E+00
         21   -1    0    0  503  502  0.00000000000E+00  0.00000000000E+00  0.35817048929E+03  0.35817048929E+03  0.00000000000E+00 0. -1.
         21   -1    0    0  501  503 -0.00000000000E+00 -0.00000000000E+00 -0.15833070033E+03  0.15833070033E+03  0.00000000000E+00 0.  1.
          6    2    1    2  501    0  0.15517130894E+03  0.29321115604E+02  0.15091677176E+03  0.27829394628E+03  0.17243487349E+03 0.  0.
         24    2    3    3    0    0  0.78120758139E+02  0.23226462471E+02  0.16352082032E+03  0.19984087613E+03  0.80962927831E+02 0.  0.
         -6    2    1    2    0  502 -0.15517130894E+03 -0.29321115604E+02  0.48923017199E+02  0.23820724335E+03  0.17149742340E+03 0.  0.
        -24    2    5    5    0    0 -0.12991875101E+03 -0.34076030931E+02  0.96749895780E+02  0.18371136078E+03  0.79682269035E+02 0.  0.
          5    1    3    3  501    0  0.77050550801E+02  0.60946531334E+01 -0.12604048556E+02  0.78453070147E+02  0.47000000000E+01 0. -1.
        -11    1    4    4    0    0 -0.98146116974E+01 -0.75808126382E+01  0.91989975732E+00  0.12435495108E+02  0.00000000000E+00 0.  1.
         12    1    4    4    0    0  0.87935369836E+02  0.30807275109E+02  0.16260092056E+03  0.18740538102E+03  0.00000000000E+00 0. -1.
         -5    1    5    5    0  502 -0.25252557931E+02  0.47549153272E+01 -0.47826878581E+02  0.54495882566E+02  0.47000000000E+01 0.  1.
         13    1    6    6    0    0 -0.60302039329E+02  0.14720842294E+02  0.11147973075E+02  0.63065969022E+02  0.00000000000E+00 0. -1.
        -14    1    6    6    0    0 -0.69616711680E+02 -0.48796873225E+02  0.85601922704E+02  0.12064539176E+03  0.00000000000E+00 0.  1.
</event>
<event>
12    1  0.9017558E-003  0.2930239E+03  0.7818608E-02  0.1088859E+00
         21   -1    0    0  503  502  0.00000000000E+00  0.00000000000E+00  0.26598232456E+04  0.26598232456E+04  0.00000000000E+00 0. -1.
         21   -1    0    0  501  503 -0.00000000000E+00 -0.00000000000E+00 -0.59804311410E+02  0.59804311410E+02  0.00000000000E+00 0.  1.
          6    2    1    2  501    0 -0.12695633734E+03  0.20128286077E+03  0.37712885284E+03  0.47758683222E+03  0.17096873703E+03 0.  0.
         24    2    3    3    0    0 -0.37117066931E+02  0.10386824872E+03  0.10089231670E+03  0.17117303514E+03  0.83394595983E+02 0.  0.
         -6    2    1    2    0  502  0.12695633734E+03 -0.20128286077E+03  0.22228900813E+04  0.22420407248E+04  0.16992232398E+03 0.  0.
        -24    2    5    5    0    0  0.13792272798E+03 -0.18921036498E+03  0.16099533565E+04  0.16288690315E+04  0.80257524800E+02 0.  0.
          5    1    3    3  501    0 -0.89839270411E+02  0.97414612050E+02  0.27623653613E+03  0.30641379708E+03  0.47000000000E+01 0. -1.
        -11    1    4    4    0    0 -0.63289251858E+02  0.61061219426E+02  0.68185603091E+02  0.11128017967E+03  0.00000000000E+00 0.  1.
         12    1    4    4    0    0  0.26172184927E+02  0.42807029296E+02  0.32706713612E+02  0.59892855470E+02  0.00000000000E+00 0. -1.
         -5    1    5    5    0  502 -0.10966390642E+02 -0.12072495792E+02  0.61293672479E+03  0.61317169331E+03  0.47000000000E+01 0.  1.
         11    1    6    6    0    0  0.60442547048E+02 -0.14243587975E+03  0.90535098350E+03  0.91847791735E+03  0.00000000000E+00 0. -1.
        -12    1    6    6    0    0  0.77480180934E+02 -0.46774485231E+02  0.70460237305E+03  0.71039111411E+03  0.00000000000E+00 0.  1.
</event>
<event>
12    1  0.9017558E-003  0.2800787E+03  0.7818608E-02  0.1095677E+00
         21   -1    0    0  501  502  0.00000000000E+00  0.00000000000E+00  0.11731203067E+04  0.11731203067E+04  0.00000000000E+00 0.  1.
         21   -1    0    0  502  503 -0.00000000000E+00 -0.00000000000E+00 -0.73544081749E+02  0.73544081749E+02  0.00000000000E+00 0. -1.
          6    2    1    2  501    0 -0.21747714818E+03 -0.40661638641E+02  0.36102683365E+03  0.45679144555E+03  0.17137202595E+03 0.  0.
         24    2    3    3    0    0 -0.60389126973E+02 -0.64865431055E+02  0.13730523784E+03  0.18231756263E+03  0.80824467231E+02 0.  0.
         -6    2    1    2    0  503  0.21747714818E+03  0.40661638641E+02  0.73854939130E+03  0.78987294290E+03  0.17173928990E+03 0.  0.
        -24    2    5    5    0    0  0.49941985440E+02  0.23826899532E+02  0.40266373130E+03  0.41411676426E+03  0.79326482850E+02 0.  0.
          5    1    3    3  501    0 -0.15708802120E+03  0.24203792415E+02  0.22372159580E+03  0.27447388291E+03  0.47000000000E+01 0. -1.
        -11    1    4    4    0    0  0.81998297324E+01 -0.29665040376E+02  0.80431232190E+01  0.31811061901E+02  0.00000000000E+00 0.  1.
         12    1    4    4    0    0 -0.68588956705E+02 -0.35200390679E+02  0.12926211462E+03  0.15050650073E+03  0.00000000000E+00 0. -1.
         -5    1    5    5    0  503  0.16753516274E+03  0.16834739108E+02  0.33588566000E+03  0.37575617864E+03  0.47000000000E+01 0.  1.
         13    1    6    6    0    0 -0.54887342332E+01  0.37673818015E+02  0.12649930288E+03  0.13210418765E+03  0.00000000000E+00 0. -1.
        -14    1    6    6    0    0  0.55430719673E+02 -0.13846918483E+02  0.27616442842E+03  0.28201257660E+03  0.00000000000E+00 0.  1.
</event>
<event>
12    1  0.9017558E-003  0.1869498E+03  0.7818608E-02  0.1161400E+00
         21   -1    0    0  501  502  0.00000000000E+00  0.00000000000E+00  0.70749853348E+03  0.70749853348E+03  0.00000000000E+00 0.  1.
         21   -1    0    0  502  503 -0.00000000000E+00 -0.00000000000E+00 -0.51204597329E+02  0.51204597329E+02  0.00000000000E+00 0.  1.
          6    2    1    2  501    0  0.54641460981E+01 -0.72044427406E+02  0.40228255186E+03  0.44331129127E+03  0.17167816698E+03 0.  0.
         24    2    3    3    0    0  0.74593511134E+01 -0.81532512753E+02  0.41275551130E+03  0.42828539742E+03  0.79737550637E+02 0.  0.
         -6    2    1    2    0  503 -0.54641460981E+01  0.72044427406E+02  0.25401138429E+03  0.31539183954E+03  0.17242381706E+03 0.  0.
        -24    2    5    5    0    0  0.16480322372E+02  0.17270243077E+02  0.23992426476E+03  0.25454524636E+03  0.81607397352E+02 0.  0.
          5    1    3    3  501    0 -0.19952050153E+01  0.94880853469E+01 -0.10472959434E+02  0.15025893847E+02  0.47000000000E+01 0. -1.
        -11    1    4    4    0    0 -0.27412088252E+02 -0.46895377504E+02  0.12398640702E+03  0.13536331903E+03  0.00000000000E+00 0.  1.
         12    1    4    4    0    0  0.34871439365E+02 -0.34637135249E+02  0.28876910428E+03  0.29292207839E+03  0.00000000000E+00 0. -1.
         -5    1    5    5    0  503 -0.21944468470E+02  0.54774184329E+02  0.14087119528E+02  0.60846593183E+02  0.47000000000E+01 0.  1.
         13    1    6    6    0    0  0.43077993922E+02  0.11244780270E+02  0.73738509209E+02  0.86136672701E+02  0.00000000000E+00 0. -1.
        -14    1    6    6    0    0 -0.26597671550E+02  0.60254628074E+01  0.16618575555E+03  0.16840857366E+03  0.00000000000E+00 0.  1.
</event>
<event>
12    1  0.9017558E-003  0.1960005E+03  0.7818608E-02  0.1153483E+00
         21   -1    0    0  503  502  0.00000000000E+00  0.00000000000E+00  0.24611080255E+04  0.24611080255E+04  0.00000000000E+00 0. -1.
         21   -1    0    0  501  503 -0.00000000000E+00 -0.00000000000E+00 -0.18000297549E+02  0.18000297549E+02  0.00000000000E+00 0.  1.
          6    2    1    2  501    0  0.91223030120E+02  0.16540229209E+02  0.76273357655E+03  0.78751424944E+03  0.17268747457E+03 0.  0.
         24    2    3    3    0    0  0.10503348822E+03  0.15722713353E+01  0.75281699417E+03  0.76437992166E+03  0.80676714385E+02 0.  0.
         -6    2    1    2    0  502 -0.91223030120E+02 -0.16540229209E+02  0.16803741514E+04  0.16915940736E+04  0.17099123005E+03 0.  0.
        -24    2    5    5    0    0  0.31651323293E+01 -0.49200493250E+02  0.76032085029E+03  0.76612339069E+03  0.80165751868E+02 0.  0.
          5    1    3    3  501    0 -0.13810458098E+02  0.14967957874E+02  0.99165823794E+01  0.23134327781E+02  0.47000000000E+01 0. -1.
        -13    1    4    4    0    0 -0.79031101336E+01  0.14880404462E+02  0.61228375356E+02  0.63504326904E+02  0.00000000000E+00 0.  1.
         14    1    4    4    0    0  0.11293659835E+03 -0.13308133127E+02  0.69158861881E+03  0.70087559476E+03  0.00000000000E+00 0. -1.
         -5    1    5    5    0  502 -0.94388162450E+02  0.32660264041E+02  0.92005330108E+03  0.92547068289E+03  0.47000000000E+01 0.  1.
         13    1    6    6    0    0  0.14934318122E+02 -0.33234423684E+01  0.56263605369E+03  0.56284403527E+03  0.00000000000E+00 0. -1.
        -14    1    6    6    0    0 -0.11769185793E+02 -0.45877050882E+02  0.19768479660E+03  0.20327935542E+03  0.00000000000E+00 0.  1.
</event>
<event>
12    1  0.9017558E-003  0.1902685E+03  0.7818608E-02  0.1158658E+00
         21   -1    0    0  503  502  0.00000000000E+00  0.00000000000E+00  0.15778076254E+03  0.15778076254E+03  0.00000000000E+00 0. -1.
         21   -1    0    0  501  503 -0.00000000000E+00 -0.00000000000E+00 -0.23128110681E+03  0.23128110681E+03  0.00000000000E+00 0. -1.
          6    2    1    2  501    0 -0.81488703771E+02 -0.15776551152E+02 -0.10822812971E+02  0.19057610889E+03  0.17120984666E+03 0.  0.
         24    2    3    3    0    0 -0.30457541403E+02 -0.73408072184E+02  0.22078871967E+01  0.11236191008E+03  0.79397211419E+02 0.  0.
         -6    2    1    2    0  502  0.81488703771E+02  0.15776551152E+02 -0.62677531299E+02  0.19848576046E+03  0.16905270116E+03 0.  0.
        -24    2    5    5    0    0  0.10386257264E+03  0.55549568148E+02 -0.47857426077E+02  0.15027571578E+03  0.80120340777E+02 0.  0.
          5    1    3    3  501    0 -0.51031162368E+02  0.57631521032E+02 -0.13030700168E+02  0.78214198813E+02  0.47000000000E+01 0. -1.
        -13    1    4    4    0    0 -0.49759407475E+02 -0.23304852560E+02  0.15417007778E+02  0.57068370521E+02  0.00000000000E+00 0.  1.
         14    1    4    4    0    0  0.19301866072E+02 -0.50103219624E+02 -0.13209120581E+02  0.55293539560E+02  0.00000000000E+00 0. -1.
         -5    1    5    5    0  502 -0.22373868871E+02 -0.39773016996E+02 -0.14820105223E+02  0.48210044680E+02  0.47000000000E+01 0.  1.
         13    1    6    6    0    0  0.19991615626E+01 -0.11709247462E+02  0.96858776055E+01  0.15327078915E+02  0.00000000000E+00 0. -1.
        -14    1    6    6    0    0  0.10186341108E+03  0.67258815610E+02 -0.57543303682E+02  0.13494863687E+03  0.00000000000E+00 0.  1.
</event>
<event>
12    1  0.9017558E-003  0.2313871E+03  0.7818608E-02  0.1125807E+00
         21   -1    0    0  501  502  0.00000000000E+00  0.00000000000E+00  0.33524932250E+03  0.33524932250E+03  0.00000000000E+00 0.  1.
         21   -1    0    0  502  503 -0.00000000000E+00 -0.00000000000E+00 -0.26912797262E+03  0.26912797262E+03  0.00000000000E+00 0. -1.
          6    2    1    2  501    0  0.15024336838E+03 -0.35244318716E+02  0.22627031280E+03  0.32363285570E+03  0.17240863982E+03 0.  0.
         24    2    3    3    0    0  0.24712802772E+02 -0.34333834383E+02  0.41998908290E+02  0.10061538462E+03  0.81055613748E+02 0.  0.
         -6    2    1    2    0  503 -0.15024336838E+03  0.35244318716E+02 -0.16014896292E+03  0.28074443942E+03  0.17133160303E+03 0.  0.
        -24    2    5    5    0    0 -0.46051764562E+02  0.63967390884E+02 -0.12511434571E+03  0.16703243660E+03  0.77676529662E+02 0.  0.
          5    1    3    3  501    0  0.12553056561E+03 -0.91048433313E+00  0.18427140451E+03  0.22301747108E+03  0.47000000000E+01 0. -1.
        -13    1    4    4    0    0  0.35538268163E+02  0.72304414682E+01  0.44721481034E+02  0.57578282830E+02  0.00000000000E+00 0.  1.
         14    1    4    4    0    0 -0.10825465391E+02 -0.41564275851E+02 -0.27225727441E+01  0.43037101788E+02  0.00000000000E+00 0. -1.
         -5    1    5    5    0  503 -0.10419160382E+03 -0.28723072168E+02 -0.35034617214E+02  0.11371200282E+03  0.47000000000E+01 0.  1.
         11    1    6    6    0    0 -0.45483687228E+02  0.32051625644E+02 -0.23286550918E+02  0.60318620375E+02  0.00000000000E+00 0. -1.
        -12    1    6    6    0    0 -0.56807733496E+00  0.31915765240E+02 -0.10182779479E+03  0.10671381623E+03  0.00000000000E+00 0.  1.
</event>
<event>
12    1  0.9017558E-003  0.2734798E+03  0.7818608E-02  0.1099863E+00
         21   -1    0    0  501  502  0.00000000000E+00  0.00000000000E+00  0.55867940173E+02  0.55867940173E+02  0.00000000000E+00 0.  1.
         21   -1    0    0  502  503 -0.00000000000E+00 -0.00000000000E+00 -0.13471165637E+04  0.13471165637E+04  0.00000000000E+00 0.  1.
          6    2    1    2  501    0 -0.17956697310E+03  0.10410144932E+03 -0.54977184369E+03  0.61403607550E+03  0.17807249177E+03 0.  0.
         24    2    3    3    0    0 -0.24959720524E+02 -0.24622024448E+01 -0.21051432513E+03  0.22625138224E+03  0.79021242666E+02 0.  0.
         -6    2    1    2    0  503  0.17956697310E+03 -0.10410144932E+03 -0.74147677987E+03  0.78894842840E+03  0.17196045481E+03 0.  0.
        -24    2    5    5    0    0  0.39318915723E+02  0.83033555308E+01 -0.26884970799E+03  0.28327778775E+03  0.79694521122E+02 0.  0.
          5    1    3    3  501    0 -0.15460725257E+03  0.10656365177E+03 -0.33925751856E+03  0.38778469326E+03  0.47000000000E+01 0. -1.
        -11    1    4    4    0    0 -0.47695280918E+02 -0.16364170839E+02 -0.17324890362E+03  0.18043782451E+03  0.00000000000E+00 0.  1.
         12    1    4    4    0    0  0.22735560394E+02  0.13901968394E+02 -0.37265421509E+02  0.45813557730E+02  0.00000000000E+00 0. -1.
         -5    1    5    5    0  503  0.14024805737E+03 -0.11240480485E+03 -0.47262707187E+03  0.50567064065E+03  0.47000000000E+01 0.  1.
         13    1    6    6    0    0  0.54717432507E+02  0.25236477461E+02 -0.23362281222E+03  0.24126851350E+03  0.00000000000E+00 0. -1.
        -14    1    6    6    0    0 -0.15398516784E+02 -0.16933121930E+02 -0.35226895774E+02  0.42009274253E+02  0.00000000000E+00 0.  1.
</event>
<event>
12    1  0.9017558E-003  0.1875627E+03  0.7818608E-02  0.1163119E+00
         21   -1    0    0  501  502  0.00000000000E+00  0.00000000000E+00  0.12620135170E+04  0.12620135170E+04  0.00000000000E+00 0.  1.
         21   -1    0    0  502  503 -0.00000000000E+00 -0.00000000000E+00 -0.49940845695E+02  0.49940845695E+02  0.00000000000E+00 0.  1.
          6    2    1    2  501    0  0.10911000696E+02 -0.38134232930E+02  0.10476176689E+04  0.10625045300E+04  0.17274208053E+03 0.  0.
         24    2    3    3    0    0 -0.89983161957E+01 -0.33846533575E+02  0.10339412936E+04  0.10375265696E+04  0.78741516363E+02 0.  0.
         -6    2    1    2    0  503 -0.10911000696E+02  0.38134232930E+02  0.16445500243E+03  0.24944983274E+03  0.18332076143E+03 0.  0.
        -24    2    5    5    0    0 -0.16011179906E+02  0.19670347946E+01  0.18900039076E+03  0.20519326105E+03  0.78248958873E+02 0.  0.
          5    1    3    3  501    0  0.19909316892E+02 -0.42876993549E+01  0.13676375265E+02  0.24977960390E+02  0.47000000000E+01 0. -1.
        -11    1    4    4    0    0  0.14535279478E+02 -0.46474186038E+02  0.38948637198E+03  0.39251848144E+03  0.00000000000E+00 0.  1.
         12    1    4    4    0    0 -0.23533595674E+02  0.12627652462E+02  0.64445492165E+03  0.64500808814E+03  0.00000000000E+00 0. -1.
         -5    1    5    5    0  503  0.51001792104E+01  0.36167198135E+02 -0.24545388332E+02  0.44256571685E+02  0.47000000000E+01 0.  1.
         11    1    6    6    0    0 -0.37690930976E+02  0.26403561327E+02  0.12757807966E+03  0.13562418936E+03  0.00000000000E+00 0. -1.
        -12    1    6    6    0    0  0.21679751070E+02 -0.24436526533E+02  0.61422311099E+02  0.69569071693E+02  0.00000000000E+00 0.  1.
</event>
<event>
12    1  0.9017558E-003  0.1772941E+03  0.7818608E-02  0.1170507E+00
         21   -1    0    0  503  502  0.00000000000E+00  0.00000000000E+00  0.19345421149E+03  0.19345421149E+03  0.00000000000E+00 0. -1.
         21   -1    0    0  501  503 -0.00000000000E+00 -0.00000000000E+00 -0.18856750411E+03  0.18856750411E+03  0.00000000000E+00 0. -1.
          6    2    1    2  501    0  0.97074591895E+01  0.42136597556E+02 -0.68893347978E+02  0.19020907920E+03  0.17194031754E+03 0.  0.
         24    2    3    3    0    0  0.28715363972E+02 -0.99334553417E+01  0.68456167091E+00  0.10112616072E+03  0.96450951755E+02 0.  0.
         -6    2    1    2    0  502 -0.97074591895E+01 -0.42136597556E+02  0.73780055351E+02  0.19181263641E+03  0.17169409804E+03 0.  0.
        -24    2    5    5    0    0 -0.15939764154E+02 -0.79967803642E+02 -0.10448698465E+02  0.99148647993E+02  0.55428813795E+02 0.  0.
          5    1    3    3  501    0 -0.19007904782E+02  0.52070052897E+02 -0.69577909649E+02  0.89082918475E+02  0.47000000000E+01 0. -1.
        -11    1    4    4    0    0 -0.27381337521E+02 -0.30127270067E+02 -0.59259452376E+01  0.41140088394E+02  0.00000000000E+00 0.  1.
         12    1    4    4    0    0  0.56096701493E+02  0.20193814725E+02  0.66105069086E+01  0.59986072326E+02  0.00000000000E+00 0. -1.
         -5    1    5    5    0  502  0.62323049647E+01  0.37831206086E+02  0.84228753816E+02  0.92663988413E+02  0.47000000000E+01 0.  1.
         13    1    6    6    0    0  0.60175065200E+01 -0.23748883634E+02  0.19927901427E+02  0.31580707938E+02  0.00000000000E+00 0. -1.
        -14    1    6    6    0    0 -0.21957270674E+02 -0.56218920008E+02 -0.30376599893E+02  0.67567940055E+02  0.00000000000E+00 0.  1.
</event>
<event>
12    1  0.9017558E-003  0.1969442E+03  0.7818608E-02  0.1152381E+00
         21   -1    0    0  503  502  0.00000000000E+00  0.00000000000E+00  0.40598237746E+03  0.40598237746E+03  0.00000000000E+00 0.  1.
         21   -1    0    0  501  503 -0.00000000000E+00 -0.00000000000E+00 -0.97155104989E+02  0.97155104989E+02  0.00000000000E+00 0. -1.
          6    2    1    2  501    0  0.39319524210E+02  0.86269682797E+02  0.12119399427E+03  0.23124666374E+03  0.17262257121E+03 0.  0.
         24    2    3    3    0    0  0.65525458763E+02  0.11661224174E+03  0.82991113457E+02  0.17566814279E+03  0.77972885084E+02 0.  0.
         -6    2    1    2    0  502 -0.39319524210E+02 -0.86269682797E+02  0.18763327820E+03  0.27189081870E+03  0.17242356873E+03 0.  0.
        -24    2    5    5    0    0 -0.55589817626E+02 -0.88086664744E+02  0.20743867674E+03  0.24576865029E+03  0.80758507469E+02 0.  0.
          5    1    3    3  501    0 -0.26205934553E+02 -0.30342558943E+02  0.38202880813E+02  0.55578520954E+02  0.47000000000E+01 0. -1.
        -11    1    4    4    0    0 -0.54136448084E+01  0.58559687062E+02  0.53149679875E+02  0.79268108150E+02  0.00000000000E+00 0.  1.
         12    1    4    4    0    0  0.70939103571E+02  0.58052554678E+02  0.29841433582E+02  0.96400034639E+02  0.00000000000E+00 0. -1.
         -5    1    5    5    0  502  0.16270293416E+02  0.18169819468E+01 -0.19805398541E+02  0.26122168413E+02  0.47000000000E+01 0.  1.
         11    1    6    6    0    0 -0.31492317274E+02 -0.68768600061E+02  0.64113469011E+02  0.99153534028E+02  0.00000000000E+00 0. -1.
        -12    1    6    6    0    0 -0.24097500352E+02 -0.19318064683E+02  0.14332520773E+03  0.14661511626E+03  0.00000000000E+00 0.  1.
</event>
<event>
12    1  0.9017558E-003  0.2603771E+03  0.7818608E-02  0.1107432E+00
         21   -1    0    0  501  502  0.00000000000E+00  0.00000000000E+00  0.40171278210E+02  0.40171278210E+02  0.00000000000E+00 0. -1.
         21   -1    0    0  502  503 -0.00000000000E+00 -0.00000000000E+00 -0.17870158334E+04  0.17870158334E+04  0.00000000000E+00 0.  1.
          6    2    1    2  501    0 -0.19181854939E+03 -0.42440756230E+02 -0.64068308493E+03  0.69157144043E+03  0.17088203015E+03 0.  0.
         24    2    3    3    0    0 -0.73464057709E+02 -0.79926799978E+02 -0.35236429737E+03  0.37762430724E+03  0.81573636859E+02 0.  0.
         -6    2    1    2    0  503  0.19181854939E+03  0.42440756230E+02 -0.11061614703E+04  0.11356156712E+04  0.16563266784E+03 0.  0.
        -24    2    5    5    0    0  0.19343125509E+03 -0.33278837856E+01 -0.95012770223E+03  0.97293194122E+03  0.80169735175E+02 0.  0.
          5    1    3    3  501    0 -0.11835449168E+03  0.37486043749E+02 -0.28831878756E+03  0.31394713319E+03  0.47000000000E+01 0. -1.
        -13    1    4    4    0    0 -0.87185958888E+02 -0.65470189422E+02 -0.33058615632E+03  0.34810191594E+03  0.00000000000E+00 0.  1.
         14    1    4    4    0    0  0.13721901180E+02 -0.14456610556E+02 -0.21778141052E+02  0.29522391306E+02  0.00000000000E+00 0. -1.
         -5    1    5    5    0  503 -0.16127056934E+01  0.45768640015E+02 -0.15603376802E+03  0.16268372996E+03  0.47000000000E+01 0.  1.
         13    1    6    6    0    0 -0.32046652874E+01 -0.12139651155E+02 -0.53536828425E+02  0.54989389955E+02  0.00000000000E+00 0. -1.
        -14    1    6    6    0    0  0.19663592037E+03  0.88117673690E+01 -0.89659087381E+03  0.91794255126E+03  0.00000000000E+00 0.  1.
</event>
<event>
12    1  0.9017558E-003  0.2193045E+03  0.7818608E-02  0.1134901E+00
         21   -1    0    0  503  502  0.00000000000E+00  0.00000000000E+00  0.71984605318E+03  0.71984605318E+03  0.00000000000E+00 0. -1.
         21   -1    0    0  501  503 -0.00000000000E+00 -0.00000000000E+00 -0.66873959742E+02  0.66873959742E+02  0.00000000000E+00 0.  1.
          6    2    1    2  501    0  0.13019595747E+03  0.66993717759E+01  0.27979690875E+03  0.35387572773E+03  0.17304869720E+03 0.  0.
         24    2    3    3    0    0  0.61629091320E+02  0.41601236336E+02  0.24737601151E+03  0.27025300437E+03  0.79454311019E+02 0.  0.
         -6    2    1    2    0  502 -0.13019595747E+03 -0.66993717759E+01  0.37317518468E+03  0.43284428519E+03  0.17634791702E+03 0.  0.
        -24    2    5    5    0    0 -0.14794837541E+02 -0.31199265127E+02  0.55376395476E+02  0.93822422070E+02  0.67407865600E+02 0.  0.
          5    1    3    3  501    0  0.68566866148E+02 -0.34901864560E+02  0.32420897241E+02  0.83622723353E+02  0.47000000000E+01 0. -1.
        -13    1    4    4    0    0  0.12750601808E+02 -0.21353676265E+02  0.31507398978E+02  0.40140671729E+02  0.00000000000E+00 0.  1.
         14    1    4    4    0    0  0.48878489512E+02  0.62954912601E+02  0.21586861253E+03  0.23011233264E+03  0.00000000000E+00 0. -1.
         -5    1    5    5    0  502 -0.11540111993E+03  0.24499893351E+02  0.31779878921E+03  0.33902186312E+03  0.47000000000E+01 0.  1.
         13    1    6    6    0    0  0.16523563349E+02 -0.14026746055E+02  0.53877212547E+02  0.58073503274E+02  0.00000000000E+00 0. -1.
        -14    1    6    6    0    0 -0.31318400890E+02 -0.17172519072E+02  0.14991829288E+01  0.35748918796E+02  0.00000000000E+00 0.  1.
</event>
<event>
12    1  0.9017558E-003  0.2642052E+03  0.7818608E-02  0.1104705E+00
         21   -1    0    0  503  502  0.00000000000E+00  0.00000000000E+00  0.11906403532E+04  0.11906403532E+04  0.00000000000E+00 0. -1.
         21   -1    0    0  501  503 -0.00000000000E+00 -0.00000000000E+00 -0.59425669737E+02  0.59425669737E+02  0.00000000000E+00 0.  1.
          6    2    1    2  501    0  0.85694651134E+02  0.18059409196E+03  0.64171030744E+03  0.69381163859E+03  0.17211819161E+03 0.  0.
         24    2    3    3    0    0  0.70550993544E+02  0.59061685316E+02  0.18930745362E+03  0.22510075929E+03  0.79795453969E+02 0.  0.
         -6    2    1    2    0  502 -0.85694651134E+02 -0.18059409196E+03  0.48950437601E+03  0.55625438434E+03  0.17276170488E+03 0.  0.
        -24    2    5    5    0    0 -0.41983816833E+02 -0.53128044390E+02  0.33370632345E+03  0.35021226849E+03  0.81874860092E+02 0.  0.
          5    1    3    3  501    0  0.15143657590E+02  0.12153240665E+03  0.45240285382E+03  0.46871087930E+03  0.47000000000E+01 0. -1.
        -11    1    4    4    0    0  0.58820237682E+02  0.27642817024E+02  0.17834363980E+03  0.18981675255E+03  0.00000000000E+00 0.  1.
         12    1    4    4    0    0  0.11730755862E+02  0.31418868291E+02  0.10963813824E+02  0.35284006736E+02  0.00000000000E+00 0. -1.
         -5    1    5    5    0  502 -0.43710834301E+02 -0.12746604757E+03  0.15579805256E+03  0.20604211585E+03  0.47000000000E+01 0.  1.
         11    1    6    6    0    0 -0.18738451013E+01  0.20436690011E+02  0.96050689236E+02  0.98218656562E+02  0.00000000000E+00 0. -1.
        -12    1    6    6    0    0 -0.40109971732E+02 -0.73564734401E+02  0.23765563421E+03  0.25199361193E+03  0.00000000000E+00 0.  1.
</event>
<event>
12    1  0.9017558E-003  0.2102116E+03  0.7818608E-02  0.1141440E+00
         21   -1    0    0  503  502  0.00000000000E+00  0.00000000000E+00  0.14133198090E+03  0.14133198090E+03  0.00000000000E+00 0.  1.
         21   -1    0    0  501  503 -0.00000000000E+00 -0.00000000000E+00 -0.35054976702E+03  0.35054976702E+03  0.00000000000E+00 0. -1.
          6    2    1    2  501    0  0.79902281808E+02 -0.92188396497E+02 -0.18575014921E+03  0.28036425922E+03  0.17093251544E+03 0.  0.
         24    2    3    3    0    0  0.93092401967E+02 -0.56395029922E+02 -0.19962451949E+03  0.23950189865E+03  0.75263643106E+02 0.  0.
         -6    2    1    2    0  502 -0.79902281808E+02  0.92188396497E+02 -0.23467636910E+02  0.21151748870E+03  0.17118949429E+03 0.  0.
        -24    2    5    5    0    0 -0.12453437019E+03  0.68649800339E+02 -0.56474470730E+01  0.15779842329E+03  0.68167765770E+02 0.  0.
          5    1    3    3  501    0 -0.13190120159E+02 -0.35793366575E+02  0.13874370284E+02  0.40862360570E+02  0.47000000000E+01 0. -1.
        -11    1    4    4    0    0 -0.13178646837E+02 -0.90288201758E+01 -0.23360537469E+02  0.28300371677E+02  0.00000000000E+00 0.  1.
         12    1    4    4    0    0  0.10627104880E+03 -0.47366209746E+02 -0.17626398202E+03  0.21120152698E+03  0.00000000000E+00 0. -1.
         -5    1    5    5    0  502  0.44632088381E+02  0.23538596158E+02 -0.17820189837E+02  0.53719065407E+02  0.47000000000E+01 0.  1.
         13    1    6    6    0    0 -0.20937874853E-02 -0.29349205281E+01 -0.13623852051E+02  0.13936395071E+02  0.00000000000E+00 0. -1.
        -14    1    6    6    0    0 -0.12453227640E+03  0.71584720867E+02  0.79764049776E+01  0.14386202822E+03  0.00000000000E+00 0.  1.
</event>
<event>
12    1  0.9017558E-003  0.1875704E+03  0.7818608E-02  0.1160965E+00
         21   -1    0    0  501  502  0.00000000000E+00  0.00000000000E+00  0.22081963810E+04  0.22081963810E+04  0.00000000000E+00 0.  1.
         21   -1    0    0  502  503 -0.00000000000E+00 -0.00000000000E+00 -0.16333114572E+02  0.16333114572E+02  0.00000000000E+00 0.  1.
          6    2    1    2  501    0 -0.22189151156E+02  0.64197817729E+02  0.89601778836E+03  0.91517921846E+03  0.17346874822E+03 0.  0.
         24    2    3    3    0    0 -0.53286726300E+02  0.57657664634E+02  0.32675489954E+03  0.34501068253E+03  0.78100737453E+02 0.  0.
         -6    2    1    2    0  503  0.22189151156E+02 -0.64197817729E+02  0.12958454781E+04  0.13093502771E+04  0.17483971780E+03 0.  0.
        -24    2    5    5    0    0  0.36090820722E+02  0.20557733184E+01  0.34899343536E+03  0.36006966764E+03  0.80913373963E+02 0.  0.
          5    1    3    3  501    0  0.31097575144E+02  0.65401530944E+01  0.56926288881E+03  0.57016853593E+03  0.47000000000E+01 0. -1.
        -13    1    4    4    0    0  0.15789828284E+02  0.12452474675E+02  0.24558202596E+02  0.31740953317E+02  0.00000000000E+00 0.  1.
         14    1    4    4    0    0 -0.69076554584E+02  0.45205189960E+02  0.30219669695E+03  0.31326972921E+03  0.00000000000E+00 0. -1.
         -5    1    5    5    0  503 -0.13901669566E+02 -0.66253591047E+02  0.94685204271E+03  0.94928060948E+03  0.47000000000E+01 0.  1.
         13    1    6    6    0    0  0.14744898075E+02 -0.53783574707E+01  0.67574570209E+01  0.17088065242E+02  0.00000000000E+00 0. -1.
        -14    1    6    6    0    0  0.21345922647E+02  0.74341307891E+01  0.34223597833E+03  0.34298160239E+03  0.00000000000E+00 0.  1.
</event>
<event>
12    1  0.9017558E-003  0.2170938E+03  0.7818608E-02  0.1136237E+00
         21   -1    0    0  501  502  0.00000000000E+00  0.00000000000E+00  0.76668293699E+02  0.76668293699E+02  0.00000000000E+00 0.  1.
         21   -1    0    0  502  503 -0.00000000000E+00 -0.00000000000E+00 -0.63459962589E+03  0.63459962589E+03  0.00000000000E+00 0. -1.
          6    2    1    2  501    0 -0.52912333203E+02  0.12067536086E+03 -0.34629948623E+03  0.40872125139E+03  0.17253251709E+03 0.  0.
         24    2    3    3    0    0 -0.49214376326E+02  0.48793700612E+02 -0.30515989755E+03  0.32568388799E+03  0.90247170390E+02 0.  0.
         -6    2    1    2    0  503  0.52912333203E+02 -0.12067536086E+03 -0.21163184596E+03  0.30254666820E+03  0.17141817432E+03 0.  0.
        -24    2    5    5    0    0 -0.35746192917E+01 -0.26085679006E+01 -0.45760286391E+02  0.91203327455E+02  0.78768398477E+02 0.  0.
          5    1    3    3  501    0 -0.36979568776E+01  0.71881660245E+02 -0.41139588673E+02  0.83037363402E+02  0.47000000000E+01 0. -1.
        -11    1    4    4    0    0  0.26319230522E+02  0.11039890211E+02 -0.94963742337E+02  0.99159938634E+02  0.00000000000E+00 0.  1.
         12    1    4    4    0    0 -0.75533606848E+02  0.37753810401E+02 -0.21019615522E+03  0.22652394936E+03  0.00000000000E+00 0. -1.
         -5    1    5    5    0  503  0.56486952495E+02 -0.11806679296E+03 -0.16587155957E+03  0.21134334074E+03  0.47000000000E+01 0.  1.
         11    1    6    6    0    0 -0.16433155283E+02  0.19242361753E+02 -0.57829623339E+02  0.63123548807E+02  0.00000000000E+00 0. -1.
        -12    1    6    6    0    0  0.12858535992E+02 -0.21850929653E+02  0.12069336948E+02  0.28079778648E+02  0.00000000000E+00 0.  1.
</event>
<event>
12    1  0.9017558E-003  0.1751938E+03  0.7818608E-02  0.1173199E+00
         21   -1    0    0  501  502  0.00000000000E+00  0.00000000000E+00  0.14616564539E+04  0.14616564539E+04  0.00000000000E+00 0.  1.
         21   -1    0    0  502  503 -0.00000000000E+00 -0.00000000000E+00 -0.23713656133E+02  0.23713656133E+02  0.00000000000E+00 0.  1.
          6    2    1    2  501    0  0.31933305085E+02  0.14922216058E+02  0.98905760345E+03  0.10044539836E+04  0.17161134520E+03 0.  0.
         24    2    3    3    0    0  0.79335181999E+02 -0.35732716475E+01  0.49381939387E+03  0.50658653619E+03  0.80408242834E+02 0.  0.
         -6    2    1    2    0  503 -0.31933305085E+02 -0.14922216058E+02  0.44888519431E+03  0.48091612639E+03  0.16893784195E+03 0.  0.
        -24    2    5    5    0    0  0.33772382367E+02 -0.46888399442E+02  0.29546013383E+03  0.31091491043E+03  0.77667850695E+02 0.  0.
          5    1    3    3  501    0 -0.47401876914E+02  0.18495487705E+02  0.49523820958E+03  0.49786744744E+03  0.47000000000E+01 0. -1.
        -13    1    4    4    0    0 -0.16630224898E+02  0.23396026673E+00  0.87954545010E+02  0.89513245420E+02  0.00000000000E+00 0.  1.
         14    1    4    4    0    0  0.95965406897E+02 -0.38072319142E+01  0.40586484886E+03  0.41707329077E+03  0.00000000000E+00 0. -1.
         -5    1    5    5    0  503 -0.65705687452E+02  0.31966183384E+02  0.15342506048E+03  0.17000121596E+03  0.47000000000E+01 0.  1.
         11    1    6    6    0    0  0.32528421150E+02 -0.21777737149E+01  0.22573226141E+03  0.22807431842E+03  0.00000000000E+00 0. -1.
        -12    1    6    6    0    0  0.12439612175E+01 -0.44710625727E+02  0.69727872416E+02  0.82840592007E+02  0.00000000000E+00 0.  1.
</event>
<event>
12    1  0.9017558E-003  0.2228506E+03  0.7818608E-02  0.1132158E+00
         21   -1    0    0  503  502  0.00000000000E+00  0.00000000000E+00  0.52305337153E+02  0.52305337153E+02  0.00000000000E+00 0.  1.
         21   -1    0    0  501  503 -0.00000000000E+00 -0.00000000000E+00 -0.95750453357E+03  0.95750453357E+03  0.00000000000E+00 0.  1.
          6    2    1    2  501    0 -0.39125857394E+02 -0.13525840561E+03 -0.51750658870E+03  0.56263212454E+03  0.17004754985E+03 0.  0.
         24    2    3    3    0    0 -0.86196075856E+02 -0.73899480808E+02 -0.29421798487E+03  0.32628404708E+03  0.83702807604E+02 0.  0.
         -6    2    1    2    0  502  0.39125857394E+02  0.13525840561E+03 -0.38769260771E+03  0.44717774618E+03  0.17273305879E+03 0.  0.
        -24    2    5    5    0    0 -0.34248365127E+02  0.11069398258E+03 -0.23838550396E+03  0.27894609446E+03  0.86931966637E+02 0.  0.
          5    1    3    3  501    0  0.47070218462E+02 -0.61358924798E+02 -0.22328860383E+03  0.23634807746E+03  0.47000000000E+01 0. -1.
        -13    1    4    4    0    0 -0.90477575721E+02 -0.69439518837E+02 -0.18803265411E+03  0.21991888845E+03  0.00000000000E+00 0.  1.
         14    1    4    4    0    0  0.42814998652E+01 -0.44599619718E+01 -0.10618533077E+03  0.10636515864E+03  0.00000000000E+00 0. -1.
         -5    1    5    5    0  502  0.73374222522E+02  0.24564423026E+02 -0.14930710375E+03  0.16823165172E+03  0.47000000000E+01 0.  1.
         13    1    6    6    0    0  0.58529131107E+01 -0.13140124853E+02 -0.18679750525E+02  0.23576525459E+02  0.00000000000E+00 0. -1.
        -14    1    6    6    0    0 -0.40101278238E+02  0.12383410743E+03 -0.21970575343E+03  0.25536956900E+03  0.00000000000E+00 0.  1.
</event>
<event>
12    1  0.9017558E-003  0.3664808E+03  0.7818608E-02  0.1056152E+00
         21   -1    0    0  501  502  0.00000000000E+00  0.00000000000E+00  0.68689735810E+03  0.68689735810E+03  0.00000000000E+00 0. -1.
         21   -1    0    0  502  503 -0.00000000000E+00 -0.00000000000E+00 -0.19605614436E+03  0.19605614436E+03  0.00000000000E+00 0. -1.
          6    2    1    2  501    0  0.10743557106E+03  0.30419641844E+03  0.21190005404E+03  0.42239261805E+03  0.17156930950E+03 0.  0.
         24    2    3    3    0    0 -0.82276879504E+01  0.16736600562E+03  0.12375116822E+03  0.22266062905E+03  0.78640507437E+02 0.  0.
         -6    2    1    2    0  503 -0.10743557106E+03 -0.30419641844E+03  0.27894115970E+03  0.46056088441E+03  0.17386861348E+03 0.  0.
        -24    2    5    5    0    0 -0.14237070410E+03 -0.26887071523E+03  0.22375284101E+03  0.38615517664E+03  0.80558101387E+02 0.  0.
          5    1    3    3  501    0  0.11566325901E+03  0.13683041282E+03  0.88148885824E+02  0.19973198900E+03  0.47000000000E+01 0. -1.
        -11    1    4    4    0    0 -0.18357610777E+02  0.16259473483E+03  0.89245248533E+02  0.18638337923E+03  0.00000000000E+00 0.  1.
         12    1    4    4    0    0  0.10129922826E+02  0.47712707889E+01  0.34505919688E+02  0.36277249826E+02  0.00000000000E+00 0. -1.
         -5    1    5    5    0  503  0.34935133041E+02 -0.35325703214E+02  0.55188318691E+02  0.74405707766E+02  0.47000000000E+01 0.  1.
         11    1    6    6    0    0 -0.42679403835E+02 -0.12253111262E+03  0.13798347425E+03  0.18940655807E+03  0.00000000000E+00 0. -1.
        -12    1    6    6    0    0 -0.99691300265E+02 -0.14633960260E+03  0.85769366754E+02  0.19674861858E+03  0.00000000000E+00 0.  1.
</event>
<event>
12    1  0.9017558E-003  0.2459627E+03  0.7818608E-02  0.1115976E+00
         21   -1    0    0  501  502  0.00000000000E+00  0.00000000000E+00  0.18853498623E+03  0.18853498623E+03  0.00000000000E+00 0. -1.
         21   -1    0    0  502  503 -0.00000000000E+00 -0.00000000000E+00 -0.34262824642E+03  0.34262824642E+03  0.00000000000E+00 0.  1.
          6    2    1    2  501    0 -0.13295207712E+03  0.11505471593E+03 -0.14500692847E+03  0.28503274914E+03  0.17118065401E+03 0.  0.
         24    2    3    3    0    0 -0.14828243517E+03  0.97372520373E+02 -0.69542574407E+02  0.20588327882E+03  0.77991451703E+02 0.  0.
         -6    2    1    2    0  503  0.13295207712E+03 -0.11505471593E+03 -0.90863317190E+01  0.24613048351E+03  0.17199945064E+03 0.  0.
        -24    2    5    5    0    0  0.91233675293E+02 -0.36223692131E+02 -0.63199428787E+02  0.14170312771E+03  0.80311077851E+02 0.  0.
          5    1    3    3  501    0  0.15330358042E+02  0.17682195562E+02 -0.75464354067E+02  0.79149470322E+02  0.47000000000E+01 0. -1.
        -11    1    4    4    0    0 -0.12840051353E+03  0.10570913008E+03 -0.76723174248E+02  0.18315992335E+03  0.00000000000E+00 0.  1.
         12    1    4    4    0    0 -0.19881921638E+02 -0.83366097060E+01  0.71805998416E+01  0.22723355463E+02  0.00000000000E+00 0. -1.
         -5    1    5    5    0  503  0.41718401830E+02 -0.78831023803E+02  0.54113097068E+02  0.10442735580E+03  0.47000000000E+01 0.  1.
         11    1    6    6    0    0  0.90478070333E+02 -0.79012691134E+00 -0.37599344347E+02  0.97982734230E+02  0.00000000000E+00 0. -1.
        -12    1    6    6    0    0  0.75560495984E+00 -0.35433565220E+02 -0.25600084440E+02  0.43720393483E+02  0.00000000000E+00 0.  1.
</event>
<event>
12    1  0.9017558E-003  0.2177591E+03  0.7818608E-02  0.1136177E+00
         21   -1    0    0  501  502  0.00000000000E+00  0.00000000000E+00  0.98040074930E+02  0.98040074930E+02  0.00000000000E+00 0.  1.
         21   -1    0    0  502  503 -0.00000000000E+00 -0.00000000000E+00 -0.59767045184E+03  0.59767045184E+03  0.00000000000E+00 0. -1.
          6    2    1    2  501    0  0.12686582251E+03  0.19977089571E+02 -0.40788344901E+03  0.46237208086E+03  0.17585508851E+03 0.  0.
         24    2    3    3    0    0  0.36801361034E+02  0.44606576251E+02 -0.10124653251E+03  0.14179992456E+03  0.80698645844E+02 0.  0.
         -6    2    1    2    0  503 -0.12686582251E+03 -0.19977089571E+02 -0.91746927902E+02  0.23333844591E+03  0.17185840257E+03 0.  0.
        -24    2    5    5    0    0 -0.17540683811E+02  0.33776782069E+01  0.99199066842E+01  0.82157539764E+02  0.79576205569E+02 0.  0.
          5    1    3    3  501    0  0.90064461474E+02 -0.24629486680E+02 -0.30663691650E+03  0.32057215630E+03  0.47000000000E+01 0. -1.
        -13    1    4    4    0    0 -0.19695769357E+02  0.37369505821E+02 -0.40342109044E+02  0.58411377813E+02  0.00000000000E+00 0.  1.
         14    1    4    4    0    0  0.56497130391E+02  0.72370704306E+01 -0.60904423470E+02  0.83388546750E+02  0.00000000000E+00 0. -1.
         -5    1    5    5    0  503 -0.10932513870E+03 -0.23354767778E+02 -0.10166683459E+03  0.15118090615E+03  0.47000000000E+01 0.  1.
         11    1    6    6    0    0 -0.78758484792E+01 -0.36812960783E+02 -0.54859276333E+01  0.38043639059E+02  0.00000000000E+00 0. -1.
        -12    1    6    6    0    0 -0.96648353319E+01  0.40190638990E+02  0.15405834318E+02  0.44113900705E+02  0.00000000000E+00 0.  1.
</event>
<event>
12    1  0.9017558E-003  0.1989552E+03  0.7818608E-02  0.1150683E+00
         21   -1    0    0  501  502  0.00000000000E+00  0.00000000000E+00  0.45241023674E+02  0.45241023674E+02  0.00000000000E+00 0.  1.
         21   -1    0    0  502  503 -0.00000000000E+00 -0.00000000000E+00 -0.90369774329E+03  0.90369774329E+03  0.00000000000E+00 0.  1.
          6    2    1    2  501    0 -0.82828467987E+02 -0.52799107745E+02 -0.34251419746E+03  0.39596513205E+03  0.17269658205E+03 0.  0.
         24    2    3    3    0    0 -0.28572203861E+02  0.72063278087E+01 -0.28295444354E+03  0.29539749919E+03  0.79549754333E+02 0.  0.
         -6    2    1    2    0  503  0.82828467987E+02  0.52799107745E+02 -0.51594252216E+03  0.55297363491E+03  0.17301691781E+03 0.  0.
        -24    2    5    5    0    0  0.19258385448E+02  0.74314009502E+01 -0.10081617921E+03  0.13053860461E+03  0.80313847955E+02 0.  0.
          5    1    3    3  501    0 -0.54256264126E+02 -0.60005435553E+02 -0.59559753919E+02  0.10056763286E+03  0.47000000000E+01 0. -1.
        -11    1    4    4    0    0 -0.44640362575E+02 -0.22686365805E+02 -0.14801473871E+03  0.15625554723E+03  0.00000000000E+00 0.  1.
         12    1    4    4    0    0  0.16068158714E+02  0.29892693614E+02 -0.13493970483E+03  0.13914195196E+03  0.00000000000E+00 0. -1.
         -5    1    5    5    0  503  0.63570082539E+02  0.45367706794E+02 -0.41512634296E+03  0.42243503031E+03  0.47000000000E+01 0.  1.
         11    1    6    6    0    0  0.15212093408E+02  0.17037806525E+02 -0.11254954527E+03  0.11484378424E+03  0.00000000000E+00 0. -1.
        -12    1    6    6    0    0  0.40462920401E+01 -0.96064055749E+01  0.11733366064E+02  0.15694820373E+02  0.00000000000E+00 0.  1.
</event>
<event>
12    1  0.9017558E-003  0.1954991E+03  0.7818608E-02  0.1154072E+00
         21   -1    0    0  501  502  0.00000000000E+00  0.00000000000E+00  0.29888013031E+03  0.29888013031E+03  0.00000000000E+00 0.  1.
         21   -1    0    0  502  503 -0.00000000000E+00 -0.00000000000E+00 -0.16048435000E+03  0.16048435000E+03  0.00000000000E+00 0.  1.
          6    2    1    2  501    0  0.18389481727E+02  0.86529156163E+02  0.17527735231E+03  0.26256815653E+03  0.17433995149E+03 0.  0.
         24    2    3    3    0    0  0.44279207580E+02  0.36792880007E+02  0.18469788241E+03  0.20551720160E+03  0.69351626838E+02 0.  0.
         -6    2    1    2    0  503 -0.18389481727E+02 -0.86529156163E+02 -0.36881571993E+02  0.19679632378E+03  0.17188099022E+03 0.  0.
        -24    2    5    5    0    0 -0.61504574342E-01 -0.74640740787E+02  0.37798046111E+02  0.11884515621E+03  0.84405182871E+02 0.  0.
          5    1    3    3  501    0 -0.25889725853E+02  0.49736276156E+02 -0.94205301005E+01  0.57050954926E+02  0.47000000000E+01 0. -1.
        -11    1    4    4    0    0  0.19438219939E+01  0.25941899853E+02  0.14468962966E+02  0.29767625052E+02  0.00000000000E+00 0.  1.
         12    1    4    4    0    0  0.42335385586E+02  0.10850980154E+02  0.17022891944E+03  0.17574957655E+03  0.00000000000E+00 0. -1.
         -5    1    5    5    0  503 -0.18327977152E+02 -0.11888415376E+02 -0.74679618104E+02  0.77951167579E+02  0.47000000000E+01 0.  1.
         13    1    6    6    0    0 -0.24861996633E+02 -0.19201758926E+02 -0.18141012601E+02  0.36275649692E+02  0.00000000000E+00 0. -1.
        -14    1    6    6    0    0  0.24800492058E+02 -0.55438981861E+02  0.55939058712E+02  0.82569506513E+02  0.00000000000E+00 0.  1.
</event>
<event>
12    1  0.9017558E-003  0.1964099E+03  0.7818608E-02  0.1153542E+00
         21   -1    0    0  503  502  0.00000000000E+00  0.00000000000E+00  0.29456036711E+02  0.29456036711E+02  0.00000000000E+00 0.  1.
         21   -1    0    0  501  503 -0.00000000000E+00 -0.00000000000E+00 -0.17751236842E+04  0.17751236842E+04  0.00000000000E+00 0. -1.
          6    2    1    2  501    0 -0.58691510648E+02 -0.72009871889E+02 -0.13403916069E+04  0.13542181982E+04  0.16919560634E+03 0.  0.
         24    2    3    3    0    0 -0.90175189677E+02 -0.64987007275E+02 -0.12619127998E+04  0.12692384603E+04  0.78660529627E+02 0.  0.
         -6    2    1    2    0  502  0.58691510648E+02  0.72009871889E+02 -0.40527604054E+03  0.45036152274E+03  0.17305119779E+03 0.  0.
        -24    2    5    5    0    0  0.20760073144E+02 -0.17458762750E+00 -0.32534623356E+03  0.33608005359E+03  0.81661616530E+02 0.  0.
          5    1    3    3  501    0  0.31483679029E+02 -0.70228646138E+01 -0.78478807146E+02  0.84979737842E+02  0.47000000000E+01 0. -1.
        -13    1    4    4    0    0 -0.98553444168E+02 -0.38110717829E+02 -0.88734172794E+03  0.89361096139E+03  0.00000000000E+00 0.  1.
         14    1    4    4    0    0  0.83782544904E+01 -0.26876289447E+02 -0.37457107186E+03  0.37562749893E+03  0.00000000000E+00 0. -1.
         -5    1    5    5    0  502  0.37931437504E+02  0.72184459517E+02 -0.79929806986E+02  0.11428146915E+03  0.47000000000E+01 0.  1.
         11    1    6    6    0    0  0.40068285323E+02  0.24624502877E+02 -0.13051215771E+03  0.13872727540E+03  0.00000000000E+00 0. -1.
        -12    1    6    6    0    0 -0.19308212178E+02 -0.24799090505E+02 -0.19483407585E+03  0.19735277819E+03  0.00000000000E+00 0.  1.
</event>
<event>
12    1  0.9017558E-003  0.2940136E+03  0.7818608E-02  0.1088574E+00
         21   -1    0    0  503  502  0.00000000000E+00  0.00000000000E+00  0.35346500038E+03  0.35346500038E+03  0.00000000000E+00 0. -1.
         21   -1    0    0  501  503 -0.00000000000E+00 -0.00000000000E+00 -0.25404014243E+03  0.25404014243E+03  0.00000000000E+00 0. -1.
          6    2    1    2  501    0  0.20934933003E+03 -0.10687509677E+03  0.11394247553E+03  0.31313335631E+03  0.17268521307E+03 0.  0.
         24    2    3    3    0    0  0.21793129483E+03 -0.90763593444E+02  0.60546390347E+02  0.25650772102E+03  0.79989164266E+02 0.  0.
         -6    2    1    2    0  502 -0.20934933003E+03  0.10687509677E+03 -0.14517617583E+02  0.29437178649E+03  0.17661981534E+03 0.  0.
        -24    2    5    5    0    0 -0.57412172578E+02  0.51141193290E+02  0.49084407749E+02  0.12042215172E+03  0.78617023153E+02 0.  0.
          5    1    3    3  501    0 -0.85819648021E+01 -0.16111503330E+02  0.53396085180E+02  0.56625635290E+02  0.47000000000E+01 0.  1.
        -13    1    4    4    0    0 -0.21459142550E+01 -0.90624796285E+01  0.14573894580E+02  0.17295429693E+02  0.00000000000E+00 0.  1.
         14    1    4    4    0    0  0.22007720908E+03 -0.81701113815E+02  0.45972495767E+02  0.23921229133E+03  0.00000000000E+00 0. -1.
         -5    1    5    5    0  502 -0.15193715745E+03  0.55733903484E+02 -0.63602025332E+02  0.17394963477E+03  0.47000000000E+01 0.  1.
         13    1    6    6    0    0 -0.60417202480E+02  0.19437501285E+01  0.30874620356E+02  0.67876790600E+02  0.00000000000E+00 0. -1.
        -14    1    6    6    0    0  0.30050299013E+01  0.49197443161E+02  0.18209787393E+02  0.52545361120E+02  0.00000000000E+00 0.  1.
</event>
<event>
12    1  0.9017558E-003  0.1924793E+03  0.7818608E-02  0.1156385E+00
         21   -1    0    0  503  502  0.00000000000E+00  0.00000000000E+00  0.72417780143E+02  0.72417780143E+02  0.00000000000E+00 0. -1.
         21   -1    0    0  501  503 -0.00000000000E+00 -0.00000000000E+00 -0.54720541364E+03  0.54720541364E+03  0.00000000000E+00 0. -1.
          6    2    1    2  501    0  0.39631108022E+02  0.75764698642E+02 -0.15687488871E+03  0.24831028675E+03  0.17244521889E+03 0.  0.
         24    2    3    3    0    0  0.58870746576E+02  0.34692599873E+02 -0.25058630559E+02  0.10883019175E+03  0.80911892718E+02 0.  0.
         -6    2    1    2    0  502 -0.39631108022E+02 -0.75764698642E+02 -0.31791274479E+03  0.37131290703E+03  0.17173772836E+03 0.  0.
        -24    2    5    5    0    0 -0.29768751389E+01  0.22395688922E+02 -0.10243182226E+03  0.13166084163E+03  0.79573050336E+02 0.  0.
          5    1    3    3  501    0 -0.19239638555E+02  0.41072098769E+02 -0.13181625815E+03  0.13948009500E+03  0.47000000000E+01 0. -1.
        -11    1    4    4    0    0  0.31068006886E+02  0.64065284860E+01 -0.51979564226E+02  0.60894496929E+02  0.00000000000E+00 0.  1.
         12    1    4    4    0    0  0.27802739691E+02  0.28286071387E+02  0.26920933667E+02  0.47935694825E+02  0.00000000000E+00 0. -1.
         -5    1    5    5    0  502 -0.36654232883E+02 -0.98160387564E+02 -0.21548092253E+03  0.23965206539E+03  0.47000000000E+01 0.  1.
         13    1    6    6    0    0  0.12050664587E+02  0.30589450256E+02 -0.10859964957E+03  0.11346725021E+03  0.00000000000E+00 0. -1.
        -14    1    6    6    0    0 -0.15027539726E+02 -0.81937613344E+01  0.61678273101E+01  0.18193591420E+02  0.00000000000E+00 0.  1.
</event>
<event>
12    1  0.9017558E-003  0.2079226E+03  0.7818608E-02  0.1143262E+00
         21   -1    0    0  503  502  0.00000000000E+00  0.00000000000E+00  0.37088332850E+02  0.37088332850E+02  0.00000000000E+00 0. -1.
         21   -1    0    0  501  503 -0.00000000000E+00 -0.00000000000E+00 -0.16734365739E+04  0.16734365739E+04  0.00000000000E+00 0.  1.
          6    2    1    2  501    0 -0.10188911514E+03 -0.56664438671E+02 -0.12900906526E+04  0.13067385708E+04  0.17216140767E+03 0.  0.
         24    2    3    3    0    0 -0.11127086841E+02 -0.17025602632E+02 -0.89435652695E+03  0.89877218586E+03  0.86626563814E+02 0.  0.
         -6    2    1    2    0  502  0.10188911514E+03  0.56664438671E+02 -0.34625758852E+03  0.40378633594E+03  0.17192101993E+03 0.  0.
        -24    2    5    5    0    0  0.11735495644E+03 -0.41804661823E+01 -0.20656642714E+03  0.25056425770E+03  0.79517899349E+02 0.  0.
          5    1    3    3  501    0 -0.90762028298E+02 -0.39638836038E+02 -0.39573412562E+03  0.40796638499E+03  0.47000000000E+01 0. -1.
        -13    1    4    4    0    0  0.46886983587E+01  0.32813308740E+02 -0.23213547985E+03  0.23449003844E+03  0.00000000000E+00 0.  1.
         14    1    4    4    0    0 -0.15815785200E+02 -0.49838911372E+02 -0.66222104710E+03  0.66428214741E+03  0.00000000000E+00 0. -1.
         -5    1    5    5    0  502 -0.15465841301E+02  0.60844904853E+02 -0.13969116138E+03  0.15322207824E+03  0.47000000000E+01 0.  1.
         13    1    6    6    0    0  0.31449830327E+02 -0.23049200981E+02 -0.12378705691E+03  0.12978286848E+03  0.00000000000E+00 0. -1.
        -14    1    6    6    0    0  0.85905126114E+02  0.18868734798E+02 -0.82779370234E+02  0.12078138922E+03  0.00000000000E+00 0.  1.
</event>
<event>
12    1  0.9017558E-003  0.1879284E+03  0.7818608E-02  0.1161017E+00
         21   -1    0    0  503  502  0.00000000000E+00  0.00000000000E+00  0.11037422909E+04  0.11037422909E+04  0.00000000000E+00 0.  1.
         21   -1    0    0  501  503 -0.00000000000E+00 -0.00000000000E+00 -0.32455654630E+02  0.32455654630E+02  0.00000000000E+00 0. -1.
          6    2    1    2  501    0 -0.17061385291E+02  0.67387212142E+02  0.43417832285E+03  0.47195094990E+03  0.17144898906E+03 0.  0.
         24    2    3    3    0    0 -0.20461491580E+01  0.10769878989E+03  0.37868331051E+03  0.40157860440E+03  0.79127174733E+02 0.  0.
         -6    2    1    2    0  502  0.17061385291E+02 -0.67387212142E+02  0.63710831341E+03  0.66424699562E+03  0.17459937269E+03 0.  0.
        -24    2    5    5    0    0 -0.30795992938E+02 -0.59253136357E+02  0.57881102800E+03  0.58823939517E+03  0.80895318451E+02 0.  0.
          5    1    3    3  501    0 -0.15015236133E+02 -0.40311577750E+02  0.55495012341E+02  0.70372345503E+02  0.47000000000E+01 0. -1.
        -11    1    4    4    0    0 -0.33911489997E+02  0.18999835302E+02  0.12757200810E+03  0.13336266399E+03  0.00000000000E+00 0.  1.
         12    1    4    4    0    0  0.31865340839E+02  0.88698954590E+02  0.25111130240E+03  0.26821594040E+03  0.00000000000E+00 0. -1.
         -5    1    5    5    0  502  0.47857378229E+02 -0.81340757852E+01  0.58297285415E+02  0.76007600453E+02  0.47000000000E+01 0.  1.
         13    1    6    6    0    0 -0.88583880834E+01 -0.48112002677E+02  0.13236722209E+03  0.14111809708E+03  0.00000000000E+00 0. -1.
        -14    1    6    6    0    0 -0.21937604855E+02 -0.11141133680E+02  0.44644380591E+03  0.44712129809E+03  0.00000000000E+00 0.  1.
</event>
<event>
12    1  0.9017558E-003  0.1919349E+03  0.7818608E-02  0.1156792E+00
         21   -1    0    0  503  502  0.00000000000E+00  0.00000000000E+00  0.25615641283E+03  0.25615641283E+03  0.00000000000E+00 0. -1.
         21   -1    0    0  501  503 -0.00000000000E+00 -0.00000000000E+00 -0.14543885148E+03  0.14543885148E+03  0.00000000000E+00 0.  1.
          6    2    1    2  501    0  0.53422719130E+02 -0.64436178897E+02  0.77999198107E+02  0.20717841150E+03  0.17272235297E+03 0.  0.
         24    2    3    3    0    0  0.33343546179E+02 -0.13706733063E+01 -0.20568800092E+02  0.88358499657E+02  0.79186350512E+02 0.  0.
         -6    2    1    2    0  502 -0.53422719130E+02  0.64436178897E+02  0.32718363250E+02  0.19441685281E+03  0.17239899446E+03 0.  0.
        -24    2    5    5    0    0 -0.26247148926E+02  0.12766342104E+02 -0.45502128646E+02  0.96698794077E+02  0.80176809285E+02 0.  0.
          5    1    3    3  501    0  0.20079172951E+02 -0.63065505591E+02  0.98567998198E+02  0.11881991184E+03  0.47000000000E+01 0. -1.
        -11    1    4    4    0    0 -0.13697672232E+02 -0.22522019238E+02 -0.25334704221E+02  0.36561110665E+02  0.00000000000E+00 0.  1.
         12    1    4    4    0    0  0.47041218411E+02  0.21151345931E+02  0.47659041292E+01  0.51797388992E+02  0.00000000000E+00 0. -1.
         -5    1    5    5    0  502 -0.27175570204E+02  0.51669836793E+02  0.78220491895E+02  0.97718058732E+02  0.47000000000E+01 0.  1.
         11    1    6    6    0    0 -0.75355190282E+01 -0.22092795437E+02  0.12507235716E+02  0.26482194065E+02  0.00000000000E+00 0. -1.
        -12    1    6    6    0    0 -0.18711629898E+02  0.34859137541E+02 -0.58009364362E+02  0.70216600012E+02  0.00000000000E+00 0.  1.
</event>
<event>
12    1  0.9017558E-003  0.1880903E+03  0.7818608E-02  0.1161518E+00
         21   -1    0    0  503  502  0.00000000000E+00  0.00000000000E+00  0.21777360114E+03  0.21777360114E+03  0.00000000000E+00 0.  1.
         21   -1    0    0  501  503 -0.00000000000E+00 -0.00000000000E+00 -0.19413510636E+03  0.19413510636E+03  0.00000000000E+00 0. -1.
          6    2    1    2  501    0 -0.64769474416E+02  0.30175598116E+02 -0.77407197818E+02  0.20339574120E+03  0.17398937246E+03 0.  0.
         24    2    3    3    0    0 -0.60659651301E+02  0.17829867346E+02 -0.12143435984E+03  0.15724610729E+03  0.77346861871E+02 0.  0.
         -6    2    1    2    0  502  0.64769474416E+02 -0.30175598116E+02  0.10104569260E+03  0.20851296630E+03  0.16781470015E+03 0.  0.
        -24    2    5    5    0    0  0.68760495150E+02 -0.18859520373E+02  0.22493771844E+01  0.10887971984E+03  0.82255981499E+02 0.  0.
          5    1    3    3  501    0 -0.41098231146E+01  0.12345730770E+02  0.44027162026E+02  0.46149633914E+02  0.47000000000E+01 0. -1.
        -11    1    4    4    0    0 -0.17978058762E+02  0.23386575150E+02 -0.10829927080E+03  0.11224470834E+03  0.00000000000E+00 0.  1.
         12    1    4    4    0    0 -0.42681592539E+02 -0.55567078041E+01 -0.13135089043E+02  0.45001398950E+02  0.00000000000E+00 0. -1.
         -5    1    5    5    0  502 -0.39910207343E+01 -0.11316077743E+02  0.98796315415E+02  0.99633246467E+02  0.47000000000E+01 0.  1.
         11    1    6    6    0    0 -0.32091798998E+01 -0.87601575380E+01  0.29747820725E+02  0.31176466022E+02  0.00000000000E+00 0. -1.
        -12    1    6    6    0    0  0.71969675050E+02 -0.10099362835E+02 -0.27498443541E+02  0.77703253816E+02  0.00000000000E+00 0.  1.
</event>
<event>
12    1  0.9017558E-003  0.1745537E+03  0.7818608E-02  0.1173873E+00
         21   -1    0    0  503  502  0.00000000000E+00  0.00000000000E+00  0.32589808751E+03  0.32589808751E+03  0.00000000000E+00 0. -1.
         21   -1    0    0  501  503 -0.00000000000E+00 -0.00000000000E+00 -0.12230979390E+03  0.12230979390E+03  0.00000000000E+00 0. -1.
          6    2    1    2  501    0 -0.31882343075E+01 -0.55716506562E+01 -0.90910094645E+01  0.17479025545E+03  0.17443560077E+03 0.  0.
         24    2    3    3    0    0  0.43821761369E+02  0.20644116921E+02 -0.51132840245E+02  0.10632996259E+03  0.79655302769E+02 0.  0.
         -6    2    1    2    0  502  0.31882343075E+01  0.55716506562E+01  0.21267930308E+03  0.27341762597E+03  0.17170761224E+03 0.  0.
        -24    2    5    5    0    0  0.60421145389E+02  0.34747306026E+02  0.14617706889E+03  0.18083543476E+03  0.80471292444E+02 0.  0.
          5    1    3    3  501    0 -0.47009995676E+02 -0.26215767577E+02  0.42041830780E+02  0.68460292860E+02  0.47000000000E+01 0. -1.
        -11    1    4    4    0    0  0.25704339158E+02  0.51136105256E+02 -0.26013062036E+02  0.62867270569E+02  0.00000000000E+00 0.  1.
         12    1    4    4    0    0  0.18117422211E+02 -0.30491988335E+02 -0.25119778209E+02  0.43462692018E+02  0.00000000000E+00 0. -1.
         -5    1    5    5    0  502 -0.57232911082E+02 -0.29175655370E+02  0.66502234189E+02  0.92582191210E+02  0.47000000000E+01 0.  1.
         11    1    6    6    0    0  0.30735278204E+02  0.48338052890E+02  0.40297989163E+02  0.70036794716E+02  0.00000000000E+00 0. -1.
        -12    1    6    6    0    0  0.29685867185E+02 -0.13590746864E+02  0.10587907973E+03  0.11079864004E+03  0.00000000000E+00 0.  1.
</event>
<event>
12    1  0.9017558E-003  0.2046504E+03  0.7818608E-02  0.1146588E+00
         21   -1    0    0  501  502  0.00000000000E+00  0.00000000000E+00  0.44165935966E+03  0.44165935966E+03  0.00000000000E+00 0.  1.
         21   -1    0    0  502  503 -0.00000000000E+00 -0.00000000000E+00 -0.12606406737E+03  0.12606406737E+03  0.00000000000E+00 0.  1.
          6    2    1    2  501    0  0.10323984730E+03 -0.34510303734E+02  0.30365046271E+03  0.36617674037E+03  0.17329851282E+03 0.  0.
         24    2    3    3    0    0  0.69174629761E+02 -0.67641228380E+02  0.11583489460E+03  0.17238593863E+03  0.83299002697E+02 0.  0.
         -6    2    1    2    0  503 -0.10323984730E+03  0.34510303734E+02  0.11944829576E+02  0.20154668667E+03  0.16920094804E+03 0.  0.
        -24    2    5    5    0    0 -0.65999167850E+02  0.88312419277E+02  0.84520330183E+01  0.13585174416E+03  0.78925825775E+02 0.  0.
          5    1    3    3  501    0  0.34065217542E+02  0.33130924646E+02  0.18781556811E+03  0.19379080174E+03  0.47000000000E+01 0. -1.
        -11    1    4    4    0    0  0.21408768860E+02 -0.47102472414E+02  0.10806730483E+03  0.11981452610E+03  0.00000000000E+00 0.  1.
         12    1    4    4    0    0  0.47765860900E+02 -0.20538755966E+02  0.77675897698E+01  0.52571412526E+02  0.00000000000E+00 0. -1.
         -5    1    5    5    0  503 -0.37240679453E+02 -0.53802115543E+02  0.34927965577E+01  0.65694942505E+02  0.47000000000E+01 0.  1.
         13    1    6    6    0    0 -0.15881773218E+02  0.24608041551E+02 -0.33570438359E+02  0.44550653880E+02  0.00000000000E+00 0. -1.
        -14    1    6    6    0    0 -0.50117394631E+02  0.63704377725E+02  0.42022471377E+02  0.91301090282E+02  0.00000000000E+00 0.  1.
</event>
<event>
12    1  0.9017558E-003  0.3065634E+03  0.7818608E-02  0.1082015E+00
         21   -1    0    0  503  502  0.00000000000E+00  0.00000000000E+00  0.33087158774E+03  0.33087158774E+03  0.00000000000E+00 0.  1.
         21   -1    0    0  501  503 -0.00000000000E+00 -0.00000000000E+00 -0.29656781566E+03  0.29656781566E+03  0.00000000000E+00 0. -1.
          6    2    1    2  501    0 -0.20290387797E+03  0.15316594907E+03 -0.47519504627E+02  0.31022447233E+03  0.17132229355E+03 0.  0.
         24    2    3    3    0    0 -0.24930597257E+02  0.68222839957E+02 -0.63130100881E+01  0.10870552626E+03  0.80629689150E+02 0.  0.
         -6    2    1    2    0  502  0.20290387797E+03 -0.15316594907E+03  0.81823276706E+02  0.31721493108E+03  0.17117380711E+03 0.  0.
        -24    2    5    5    0    0  0.98346171215E+02 -0.15394557725E+03  0.77113816585E+02  0.21244284092E+03  0.76250965898E+02 0.  0.
          5    1    3    3  501    0 -0.17797328071E+03  0.84943109108E+02 -0.41206494539E+02  0.20151894607E+03  0.47000000000E+01 0. -1.
        -13    1    4    4    0    0 -0.51875364376E+01 -0.10399998216E+02  0.20294526069E+02  0.23386711730E+02  0.00000000000E+00 0.  1.
         14    1    4    4    0    0 -0.19743060819E+02  0.78622838174E+02 -0.26607536157E+02  0.85318814533E+02  0.00000000000E+00 0. -1.
         -5    1    5    5    0  502  0.10455770675E+03  0.77962818973E+00  0.47094601212E+01  0.10477209016E+03  0.47000000000E+01 0.  1.
         11    1    6    6    0    0  0.32528737510E+02 -0.22711909625E+01  0.13314856143E+02  0.35221619306E+02  0.00000000000E+00 0. -1.
        -12    1    6    6    0    0  0.65817433705E+02 -0.15167438629E+03  0.63798960441E+02  0.17722122161E+03  0.00000000000E+00 0.  1.
</event>
<event>
12    1  0.9017558E-003  0.2667637E+03  0.7818608E-02  0.1103221E+00
         21   -1    0    0  503  502  0.00000000000E+00  0.00000000000E+00  0.78142654423E+02  0.78142654423E+02  0.00000000000E+00 0. -1.
         21   -1    0    0  501  503 -0.00000000000E+00 -0.00000000000E+00 -0.97290068325E+03  0.97290068325E+03  0.00000000000E+00 0. -1.
          6    2    1    2  501    0 -0.68869570155E+02  0.19186104836E+03 -0.58255497322E+03  0.64072864205E+03  0.17207328773E+03 0.  0.
         24    2    3    3    0    0 -0.37520911893E+02  0.19653668902E+02 -0.18474110740E+03  0.20608386553E+03  0.80914753535E+02 0.  0.
         -6    2    1    2    0  502  0.68869570155E+02 -0.19186104836E+03 -0.31220305561E+03  0.41031469562E+03  0.17127090221E+03 0.  0.
        -24    2    5    5    0    0 -0.16212023456E+02 -0.38541474215E+02 -0.11758432996E+03  0.14831410830E+03  0.80141906199E+02 0.  0.
          5    1    3    3  501    0 -0.31348658262E+02  0.17220737945E+03 -0.39781386583E+03  0.43464477652E+03  0.47000000000E+01 0. -1.
        -11    1    4    4    0    0 -0.45584664680E+01 -0.80895401709E+01 -0.15119613401E+03  0.15148099292E+03  0.00000000000E+00 0.  1.
         12    1    4    4    0    0 -0.32962445425E+02  0.27743209073E+02 -0.33544973393E+02  0.54602872617E+02  0.00000000000E+00 0. -1.
         -5    1    5    5    0  502  0.85081593611E+02 -0.15331957414E+03 -0.19461872565E+03  0.26200058733E+03  0.47000000000E+01 0.  1.
         13    1    6    6    0    0  0.27810698323E+02 -0.32394050235E+02 -0.77391880410E+02  0.88387287464E+02  0.00000000000E+00 0. -1.
        -14    1    6    6    0    0 -0.44022721780E+02 -0.61474239795E+01 -0.40192449547E+02  0.59926820832E+02  0.00000000000E+00 0.  1.
</event>
<event>
12    1  0.9017558E-003  0.2278070E+03  0.7818608E-02  0.1128376E+00
         21   -1    0    0  501  502  0.00000000000E+00  0.00000000000E+00  0.94291423675E+02  0.94291423675E+02  0.00000000000E+00 0. -1.
         21   -1    0    0  502  503 -0.00000000000E+00 -0.00000000000E+00 -0.55911325237E+03  0.55911325237E+03  0.00000000000E+00 0. -1.
          6    2    1    2  501    0  0.27669941685E+02 -0.14606112498E+03 -0.18563362169E+03  0.29306861654E+03  0.17125972847E+03 0.  0.
         24    2    3    3    0    0 -0.46623396878E+02 -0.92370596964E+02 -0.13475392552E+03  0.18812574429E+03  0.80787417970E+02 0.  0.
         -6    2    1    2    0  503 -0.27669941685E+02  0.14606112498E+03 -0.27918820701E+03  0.36033605951E+03  0.17261675164E+03 0.  0.
        -24    2    5    5    0    0  0.11457223975E+01  0.27354062165E+02 -0.42328633474E+02  0.93791022353E+02  0.79091625761E+02 0.  0.
          5    1    3    3  501    0  0.74293338563E+02 -0.53690528011E+02 -0.50879696163E+02  0.10494287224E+03  0.47000000000E+01 0. -1.
        -11    1    4    4    0    0 -0.22471781355E+01 -0.21390073209E+02 -0.91318452411E+02  0.93817081559E+02  0.00000000000E+00 0.  1.
         12    1    4    4    0    0 -0.44376218743E+02 -0.70980523755E+02 -0.43435473114E+02  0.94308662736E+02  0.00000000000E+00 0. -1.
         -5    1    5    5    0  503 -0.28815664082E+02  0.11870706281E+03 -0.23685957353E+03  0.26654503715E+03  0.47000000000E+01 0.  1.
         13    1    6    6    0    0  0.94942151286E+01  0.48424298904E+02 -0.49623094533E+02  0.69982171703E+02  0.00000000000E+00 0. -1.
        -14    1    6    6    0    0 -0.83484927311E+01 -0.21070236739E+02  0.72944610597E+01  0.23808850650E+02  0.00000000000E+00 0.  1.
</event>
<event>
12    1  0.9017558E-003  0.2570779E+03  0.7818608E-02  0.1109256E+00
         21   -1    0    0  501  502  0.00000000000E+00  0.00000000000E+00  0.10453969722E+03  0.10453969722E+03  0.00000000000E+00 0.  1.
         21   -1    0    0  502  503 -0.00000000000E+00 -0.00000000000E+00 -0.63154203508E+03  0.63154203508E+03  0.00000000000E+00 0.  1.
          6    2    1    2  501    0  0.12019007325E+03 -0.14451037105E+03 -0.23002175723E+03  0.34328851786E+03  0.17207003412E+03 0.  0.
         24    2    3    3    0    0  0.15668083767E+03 -0.89631537997E+02 -0.18483328372E+03  0.26324259139E+03  0.50503679606E+02 0.  0.
         -6    2    1    2    0  503 -0.12019007325E+03  0.14451037105E+03 -0.29698058064E+03  0.39279321445E+03  0.17538569779E+03 0.  0.
        -24    2    5    5    0    0 -0.29985130919E+02  0.51654917331E+02 -0.22105971476E+03  0.24264284054E+03  0.80254669741E+02 0.  0.
          5    1    3    3  501    0 -0.36490764418E+02 -0.54878833057E+02 -0.45188473509E+02  0.80045926465E+02  0.47000000000E+01 0. -1.
        -11    1    4    4    0    0  0.48975549108E+02 -0.40787533519E+02 -0.36193196582E+02  0.73295121118E+02  0.00000000000E+00 0.  1.
         12    1    4    4    0    0  0.10770528856E+03 -0.48844004478E+02 -0.14864008714E+03  0.18994747027E+03  0.00000000000E+00 0. -1.
         -5    1    5    5    0  503 -0.90204942336E+02  0.92855453723E+02 -0.75920865872E+02  0.15015037390E+03  0.47000000000E+01 0.  1.
         11    1    6    6    0    0  0.36492503038E+01 -0.19705887354E+02 -0.60804901583E+02  0.64022457628E+02  0.00000000000E+00 0. -1.
        -12    1    6    6    0    0 -0.33634381222E+02  0.71360804685E+02 -0.16025481318E+03  0.17862038292E+03  0.00000000000E+00 0.  1.
</event>
<event>
12    1  0.9017558E-003  0.1931027E+03  0.7818608E-02  0.1155809E+00
         21   -1    0    0  501  502  0.00000000000E+00  0.00000000000E+00  0.93141341919E+03  0.93141341919E+03  0.00000000000E+00 0. -1.
         21   -1    0    0  502  503 -0.00000000000E+00 -0.00000000000E+00 -0.56288551281E+02  0.56288551281E+02  0.00000000000E+00 0. -1.
          6    2    1    2  501    0  0.82001754025E+02  0.31024070236E+02  0.70340837377E+03  0.72929296457E+03  0.17145876264E+03 0.  0.
         24    2    3    3    0    0  0.75880364750E+02 -0.38112277837E+02  0.34605072295E+03  0.36522719218E+03  0.80183686446E+02 0.  0.
         -6    2    1    2    0  503 -0.82001754025E+02 -0.31024070236E+02  0.17171649413E+03  0.25840900590E+03  0.17205196707E+03 0.  0.
        -24    2    5    5    0    0 -0.11878686477E+03 -0.54072293890E+02  0.12942996670E+03  0.19762574020E+03  0.72592593999E+02 0.  0.
          5    1    3    3  501    0  0.61213892749E+01  0.69136348073E+02  0.35735765082E+03  0.36406577240E+03  0.47000000000E+01 0. -1.
        -11    1    4    4    0    0  0.20126863549E+02  0.25262791260E+02  0.89809447946E+02  0.95441270942E+02  0.00000000000E+00 0.  1.
         12    1    4    4    0    0  0.55753501201E+02 -0.63375069097E+02  0.25624127501E+03  0.26978592123E+03  0.00000000000E+00 0. -1.
         -5    1    5    5    0  503  0.36785110741E+02  0.23048223654E+02  0.42286527434E+02  0.60783265693E+02  0.47000000000E+01 0.  1.
         13    1    6    6    0    0 -0.95783946938E+02 -0.16944623612E+02  0.56142065045E+02  0.11231035673E+03  0.00000000000E+00 0. -1.
        -14    1    6    6    0    0 -0.23002917827E+02 -0.37127670278E+02  0.73287901656E+02  0.85315383477E+02  0.00000000000E+00 0.  1.
</event>
<event>
12    1  0.9017558E-003  0.2509911E+03  0.7818608E-02  0.1113463E+00
         21   -1    0    0  503  502  0.00000000000E+00  0.00000000000E+00  0.15807782704E+03  0.15807782704E+03  0.00000000000E+00 0. -1.
         21   -1    0    0  501  503 -0.00000000000E+00 -0.00000000000E+00 -0.47935651387E+03  0.47935651387E+03  0.00000000000E+00 0. -1.
          6    2    1    2  501    0  0.16252618478E+02  0.18282181169E+03 -0.29637734653E+03  0.38521096905E+03  0.16389019709E+03 0.  0.
         24    2    3    3    0    0  0.30553454285E+02  0.87246950026E+02 -0.74736968868E+02  0.14337297555E+03  0.80153925331E+02 0.  0.
         -6    2    1    2    0  502 -0.16252618478E+02 -0.18282181169E+03 -0.24901340299E+02  0.25222337186E+03  0.17119751787E+03 0.  0.
        -24    2    5    5    0    0  0.36022149606E+02 -0.27111851381E+02 -0.11093531958E+02  0.87326468642E+02  0.73960786412E+02 0.  0.
          5    1    3    3  501    0 -0.14300835807E+02  0.95574861667E+02 -0.22164037766E+03  0.24183799350E+03  0.47000000000E+01 0. -1.
        -13    1    4    4    0    0 -0.17617340830E+02  0.59848505894E+02 -0.20086951698E+02  0.65541589729E+02  0.00000000000E+00 0.  1.
         14    1    4    4    0    0  0.48170795115E+02  0.27398444132E+02 -0.54650017169E+02  0.77831385825E+02  0.00000000000E+00 0. -1.
         -5    1    5    5    0  502 -0.52274768084E+02 -0.15570996031E+03 -0.13807808340E+02  0.16489690322E+03  0.47000000000E+01 0.  1.
         13    1    6    6    0    0  0.45724417362E+02 -0.41918890807E+02  0.64963100187E+01  0.62370808824E+02  0.00000000000E+00 0. -1.
        -14    1    6    6    0    0 -0.97022677561E+01  0.14807039426E+02 -0.17589841977E+02  0.24955659818E+02  0.00000000000E+00 0.  1.
</event>
<event>
12    1  0.9017558E-003  0.2779140E+03  0.7818608E-02  0.1097040E+00
         21   -1    0    0  501  502  0.00000000000E+00  0.00000000000E+00  0.99491874352E+03  0.99491874352E+03  0.00000000000E+00 0. -1.
         21   -1    0    0  502  503 -0.00000000000E+00 -0.00000000000E+00 -0.97678916782E+02  0.97678916782E+02  0.00000000000E+00 0.  1.
          6    2    1    2  501    0  0.20568828898E+03  0.72121935284E+02  0.69771517585E+03  0.75047742112E+03  0.17000190360E+03 0.  0.
         24    2    3    3    0    0  0.17711374249E+03  0.35617571018E+02  0.33637609052E+03  0.38614639320E+03  0.57639166943E+02 0.  0.
         -6    2    1    2    0  503 -0.20568828898E+03 -0.72121935284E+02  0.19952465089E+03  0.34212023919E+03  0.17241498188E+03 0.  0.
        -24    2    5    5    0    0 -0.11223976639E+03 -0.73123285055E+01  0.17948185333E+03  0.22654898307E+03  0.80370832719E+02 0.  0.
          5    1    3    3  501    0  0.28574546490E+02  0.36504364266E+02  0.36133908532E+03  0.36433102791E+03  0.47000000000E+01 0. -1.
        -11    1    4    4    0    0  0.29965091851E+02 -0.15642698637E+02  0.61309194074E+02  0.70010128041E+02  0.00000000000E+00 0.  1.
         12    1    4    4    0    0  0.14714865064E+03  0.51260269656E+02  0.27506689645E+03  0.31613626516E+03  0.00000000000E+00 0. -1.
         -5    1    5    5    0  503 -0.93448522592E+02 -0.64809606779E+02  0.20042797569E+02  0.11557125611E+03  0.47000000000E+01 0.  1.
         13    1    6    6    0    0 -0.71535084624E+02 -0.41027280604E+02  0.85927771138E+02  0.11909696864E+03  0.00000000000E+00 0. -1.
        -14    1    6    6    0    0 -0.40704681762E+02  0.33714952099E+02  0.93554082188E+02  0.10745201444E+03  0.00000000000E+00 0.  1.
</event>
<event>
12    1  0.9017558E-003  0.1896049E+03  0.7818608E-02  0.1159345E+00
         21   -1    0    0  503  502  0.00000000000E+00  0.00000000000E+00  0.94357446703E+03  0.94357446703E+03  0.00000000000E+00 0. -1.
         21   -1    0    0  501  503 -0.00000000000E+00 -0.00000000000E+00 -0.37664047124E+02  0.37664047124E+02  0.00000000000E+00 0. -1.
          6    2    1    2  501    0 -0.13854731295E+02 -0.78276838577E+02  0.43682264893E+03  0.47528065849E+03  0.16958319694E+03 0.  0.
         24    2    3    3    0    0  0.65378841352E+01 -0.47769245598E+02  0.42682489839E+03  0.43695811931E+03  0.80176426658E+02 0.  0.
         -6    2    1    2    0  502  0.13854731295E+02  0.78276838577E+02  0.46908777098E+03  0.50595785567E+03  0.17213598632E+03 0.  0.
        -24    2    5    5    0    0  0.70165664812E+02  0.70366431939E+02  0.37197477576E+03  0.39332340441E+03  0.80395344383E+02 0.  0.
          5    1    3    3  501    0 -0.20392615430E+02 -0.30507592980E+02  0.99977505357E+01  0.38322539181E+02  0.47000000000E+01 0. -1.
        -13    1    4    4    0    0 -0.32667715536E+01 -0.69783686752E+01 -0.36438856077E+00  0.77137672231E+01  0.00000000000E+00 0.  1.
         14    1    4    4    0    0  0.98046556887E+01 -0.40790876923E+02  0.42718928695E+03  0.42924435209E+03  0.00000000000E+00 0. -1.
         -5    1    5    5    0  502 -0.56310933517E+02  0.79104066378E+01  0.97112995229E+02  0.11263445125E+03  0.47000000000E+01 0.  1.
         13    1    6    6    0    0  0.28656741099E+02  0.23882393575E+02  0.36786914785E+02  0.52391360286E+02  0.00000000000E+00 0. -1.
        -14    1    6    6    0    0  0.41508923713E+02  0.46484038365E+02  0.33518786097E+03  0.34093204413E+03  0.00000000000E+00 0.  1.
</event>
<event>
12    1  0.9017558E-003  0.2264366E+03  0.7818608E-02  0.1129258E+00
         21   -1    0    0  503  502  0.00000000000E+00  0.00000000000E+00  0.25223352113E+04  0.25223352113E+04  0.00000000000E+00 0.  1.
         21   -1    0    0  501  503 -0.00000000000E+00 -0.00000000000E+00 -0.21858519831E+02  0.21858519831E+02  0.00000000000E+00 0.  1.
          6    2    1    2  501    0  0.29914668704E+02  0.14414295178E+03  0.91020233424E+03  0.93794552868E+03  0.17205071223E+03 0.  0.
         24    2    3    3    0    0 -0.18520308987E+02  0.12936686707E+03  0.46403652936E+03  0.48889063762E+03  0.81273407928E+02 0.  0.
         -6    2    1    2    0  502 -0.29914668704E+02 -0.14414295178E+03  0.15902743573E+04  0.16062482025E+04  0.17143126505E+03 0.  0.
        -24    2    5    5    0    0 -0.12060864449E+02 -0.43997066173E+02  0.35917675636E+03  0.37094607357E+03  0.80695978241E+02 0.  0.
          5    1    3    3  501    0  0.48434977691E+02  0.14776084710E+02  0.44616580488E+03  0.44905489106E+03  0.47000000000E+01 0. -1.
        -13    1    4    4    0    0 -0.14762568718E+00  0.86653598569E+01 -0.39850953116E+00  0.86757745845E+01  0.00000000000E+00 0.  1.
         14    1    4    4    0    0 -0.18372683300E+02  0.12070150722E+03  0.46443503889E+03  0.48021486304E+03  0.00000000000E+00 0. -1.
         -5    1    5    5    0  502 -0.17853804254E+02 -0.10014588561E+03  0.12310976009E+04  0.12353021289E+04  0.47000000000E+01 0.  1.
         13    1    6    6    0    0  0.16668842314E+02 -0.10841620746E+02  0.27768150471E+03  0.27839254499E+03  0.00000000000E+00 0. -1.
        -14    1    6    6    0    0 -0.28729706763E+02 -0.33155445427E+02  0.81495251648E+02  0.92553528584E+02  0.00000000000E+00 0.  1.
</event>
<event>
12    1  0.9017558E-003  0.1773675E+03  0.7818608E-02  0.1170663E+00
         21   -1    0    0  501  502  0.00000000000E+00  0.00000000000E+00  0.28227158074E+02  0.28227158074E+02  0.00000000000E+00 0. -1.
         21   -1    0    0  502  503 -0.00000000000E+00 -0.00000000000E+00 -0.13619406124E+04  0.13619406124E+04  0.00000000000E+00 0. -1.
          6    2    1    2  501    0  0.29671178617E+02 -0.26579816949E+02 -0.36446234117E+03  0.40482165725E+03  0.17164180883E+03 0.  0.
         24    2    3    3    0    0 -0.21963633825E+02  0.17739705572E+02 -0.97051898310E+02  0.12884917876E+03  0.79912086302E+02 0.  0.
         -6    2    1    2    0  503 -0.29671178617E+02  0.26579816949E+02 -0.96925111313E+03  0.98534611320E+03  0.17283627219E+03 0.  0.
        -24    2    5    5    0    0 -0.35607608836E+02 -0.24507290617E+02 -0.25846791290E+03  0.27268912594E+03  0.75400187701E+02 0.  0.
          5    1    3    3  501    0  0.51634812442E+02 -0.44319522521E+02 -0.26741044286E+03  0.27597247849E+03  0.47000000000E+01 0. -1.
        -11    1    4    4    0    0 -0.27262553130E+02  0.29964649350E+02 -0.10554228082E+03  0.11304998918E+03  0.00000000000E+00 0.  1.
         12    1    4    4    0    0  0.52989193044E+01 -0.12224943777E+02  0.84903825091E+01  0.15799189577E+02  0.00000000000E+00 0. -1.
         -5    1    5    5    0  503  0.59364302188E+01  0.51087107566E+02 -0.71078320023E+03  0.71265698726E+03  0.47000000000E+01 0.  1.
         13    1    6    6    0    0  0.52408539865E+01 -0.26375222593E+02 -0.19722376695E+03  0.19904856987E+03  0.00000000000E+00 0. -1.
        -14    1    6    6    0    0 -0.40848462822E+02  0.18679319761E+01 -0.61244145951E+02  0.73640556068E+02  0.00000000000E+00 0.  1.
</event>
<event>
12    1  0.9017558E-003  0.2543830E+03  0.7818608E-02  0.1110606E+00
         21   -1    0    0  503  502  0.00000000000E+00  0.00000000000E+00  0.13271839642E+04  0.13271839642E+04  0.00000000000E+00 0.  1.
         21   -1    0    0  501  503 -0.00000000000E+00 -0.00000000000E+00 -0.95728128197E+02  0.95728128197E+02  0.00000000000E+00 0. -1.
          6    2    1    2  501    0  0.16280580619E+03 -0.94439270823E+02  0.11145039724E+04  0.11431665640E+04  0.17113206016E+03 0.  0.
         24    2    3    3    0    0  0.16808974178E+03 -0.11736502807E+03  0.10718849987E+04  0.10942587196E+04  0.80224583792E+02 0.  0.
         -6    2    1    2    0  502 -0.16280580619E+03  0.94439270823E+02  0.11695186358E+03  0.27974552843E+03  0.17074927783E+03 0.  0.
        -24    2    5    5    0    0 -0.18130156101E+03  0.60185063330E+02  0.12213986431E+03  0.24019241188E+03  0.79257494277E+02 0.  0.
          5    1    3    3  501    0 -0.52839355897E+01  0.22925757244E+02  0.42618973725E+02  0.48907844380E+02  0.47000000000E+01 0. -1.
        -11    1    4    4    0    0  0.16170315412E+03 -0.12812485534E+03  0.97647293820E+03  0.99802970279E+03  0.00000000000E+00 0.  1.
         12    1    4    4    0    0  0.63865876618E+01  0.10759827277E+02  0.95412060494E+02  0.96229016791E+02  0.00000000000E+00 0. -1.
         -5    1    5    5    0  502  0.18495754818E+02  0.34254207493E+02 -0.51880007317E+01  0.39553116550E+02  0.47000000000E+01 0.  1.
         13    1    6    6    0    0 -0.11439440762E+03  0.76842424744E+02  0.84182256846E+02  0.16148526590E+03  0.00000000000E+00 0. -1.
        -14    1    6    6    0    0 -0.66907153394E+02 -0.16657361413E+02  0.37957607463E+02  0.78707145984E+02  0.00000000000E+00 0.  1.
</event>
<event>
12    1  0.9017558E-003  0.1957288E+03  0.7818608E-02  0.1153615E+00
         21   -1    0    0  501  502  0.00000000000E+00  0.00000000000E+00  0.14951886666E+03  0.14951886666E+03  0.00000000000E+00 0. -1.
         21   -1    0    0  502  503 -0.00000000000E+00 -0.00000000000E+00 -0.60821306470E+03  0.60821306470E+03  0.00000000000E+00 0. -1.
          6    2    1    2  501    0 -0.32681581572E+02  0.86947713308E+02  0.59166948642E+02  0.20447613049E+03  0.17228397925E+03 0.  0.
         24    2    3    3    0    0  0.19487289615E+02  0.12134283131E+02 -0.19762660405E+02  0.83767333628E+02  0.78098707756E+02 0.  0.
         -6    2    1    2    0  503  0.32681581572E+02 -0.86947713308E+02 -0.51786114668E+03  0.55325580087E+03  0.17112516859E+03 0.  0.
        -24    2    5    5    0    0 -0.29872573359E+01 -0.14827154799E+02 -0.39397813707E+03  0.40546293535E+03  0.94618450746E+02 0.  0.
          5    1    3    3  501    0 -0.52168871188E+02  0.74813430177E+02  0.78929609047E+02  0.12070879686E+03  0.47000000000E+01 0. -1.
        -13    1    4    4    0    0 -0.87941641548E+00 -0.32316555502E+02 -0.10597552877E+02  0.34021188393E+02  0.00000000000E+00 0.  1.
         14    1    4    4    0    0  0.20366706031E+02  0.44450838633E+02 -0.91651075282E+01  0.49746145235E+02  0.00000000000E+00 0. -1.
         -5    1    5    5    0  503  0.35668838908E+02 -0.72120558509E+02 -0.12388300961E+03  0.14779286552E+03  0.47000000000E+01 0.  1.
         13    1    6    6    0    0  0.39425192806E+02  0.10639880521E+02 -0.11275931841E+03  0.11992588033E+03  0.00000000000E+00 0. -1.
        -14    1    6    6    0    0 -0.42412450142E+02 -0.25467035320E+02 -0.28121881866E+03  0.28553705501E+03  0.00000000000E+00 0.  1.
</event>
<event>
12    1  0.9017558E-003  0.2213246E+03  0.7818608E-02  0.1133028E+00
         21   -1    0    0  503  502  0.00000000000E+00  0.00000000000E+00  0.74201456997E+03  0.74201456997E+03  0.00000000000E+00 0.  1.
         21   -1    0    0  501  503 -0.00000000000E+00 -0.00000000000E+00 -0.74645744237E+02  0.74645744237E+02  0.00000000000E+00 0.  1.
          6    2    1    2  501    0  0.12594396586E+03 -0.54972720050E+02  0.19364938610E+03  0.29408273562E+03  0.17349549899E+03 0.  0.
         24    2    3    3    0    0  0.13022226444E+03 -0.60111244537E+02  0.84714192976E+02  0.18484137636E+03  0.80116415603E+02 0.  0.
         -6    2    1    2    0  502 -0.12594396586E+03  0.54972720050E+02  0.47371943964E+03  0.52257757859E+03  0.17260746120E+03 0.  0.
        -24    2    5    5    0    0 -0.10652446243E+03  0.29184235287E+02  0.47126024058E+03  0.48986212780E+03  0.75362518658E+02 0.  0.
          5    1    3    3  501    0 -0.42782985829E+01  0.51385244874E+01  0.10893519312E+03  0.10924135926E+03  0.47000000000E+01 0. -1.
        -13    1    4    4    0    0 -0.79084754316E+01  0.68561492175E+01  0.27510576106E+01  0.10822157073E+02  0.00000000000E+00 0.  1.
         14    1    4    4    0    0  0.13813073987E+03 -0.66967393754E+02  0.81963135365E+02  0.17401921929E+03  0.00000000000E+00 0. -1.
         -5    1    5    5    0  502 -0.19419503432E+02  0.25788484763E+02  0.24591990582E+01  0.32715450783E+02  0.47000000000E+01 0.  1.
         13    1    6    6    0    0 -0.10204724349E+02 -0.16974793487E+02  0.30662642267E+02  0.36503118274E+02  0.00000000000E+00 0. -1.
        -14    1    6    6    0    0 -0.96319738077E+02  0.46159028774E+02  0.44059759831E+03  0.45335900953E+03  0.00000000000E+00 0.  1.
</event>
<event>
12    1  0.9017558E-003  0.3641759E+03  0.7818608E-02  0.1057114E+00
         21   -1    0    0  503  502  0.00000000000E+00  0.00000000000E+00  0.12134501168E+04  0.12134501168E+04  0.00000000000E+00 0. -1.
         21   -1    0    0  501  503 -0.00000000000E+00 -0.00000000000E+00 -0.12497528871E+03  0.12497528871E+03  0.00000000000E+00 0.  1.
          6    2    1    2  501    0 -0.31337135117E+03 -0.60589817372E+02  0.30212035179E+03  0.47183584374E+03  0.17169632136E+03 0.  0.
         24    2    3    3    0    0 -0.24024678786E+03  0.15477648487E+02  0.18612181100E+03  0.31495623197E+03  0.81228214617E+02 0.  0.
         -6    2    1    2    0  502  0.31337135117E+03  0.60589817372E+02  0.78635447626E+03  0.86658956174E+03  0.17536070389E+03 0.  0.
        -24    2    5    5    0    0  0.28167242761E+03  0.76058465654E+01  0.56194534843E+03  0.63379422335E+03  0.80717640930E+02 0.  0.
          5    1    3    3  501    0 -0.73124563310E+02 -0.76067465860E+02  0.11599854080E+03  0.15687961177E+03  0.47000000000E+01 0. -1.
        -11    1    4    4    0    0 -0.11265144931E+03 -0.12924722927E+02  0.13054336479E+03  0.17291317933E+03  0.00000000000E+00 0.  1.
         12    1    4    4    0    0 -0.12759533855E+03  0.28402371414E+02  0.55578446204E+02  0.14204305264E+03  0.00000000000E+00 0. -1.
         -5    1    5    5    0  502  0.31698923554E+02  0.52983970807E+02  0.22440912784E+03  0.23279533839E+03  0.47000000000E+01 0.  1.
         11    1    6    6    0    0  0.83248412390E+01 -0.15019425013E+02  0.52039486271E+02  0.54799582487E+02  0.00000000000E+00 0. -1.
        -12    1    6    6    0    0  0.27334758638E+03  0.22625271578E+02  0.50990586216E+03  0.57899464087E+03  0.00000000000E+00 0.  1.
</event>
<event>
12    1  0.9017558E-003  0.1938920E+03  0.7818608E-02  0.1155725E+00
         21   -1    0    0  501  502  0.00000000000E+00  0.00000000000E+00  0.71967857726E+03  0.71967857726E+03  0.00000000000E+00 0.  1.
         21   -1    0    0  502  503 -0.00000000000E+00 -0.00000000000E+00 -0.51668738945E+02  0.51668738945E+02  0.00000000000E+00 0. -1.
          6    2    1    2  501    0 -0.81331283735E+02  0.12813403576E+02  0.36682193507E+03  0.41491257202E+03  0.17554244313E+03 0.  0.
         24    2    3    3    0    0  0.89453596633E+01  0.19397586628E+02  0.27196015432E+03  0.28371016634E+03  0.77928474354E+02 0.  0.
         -6    2    1    2    0  503  0.81331283735E+02 -0.12813403576E+02  0.30118790324E+03  0.35643474419E+03  0.17190873387E+03 0.  0.
        -24    2    5    5    0    0  0.11170681527E+03 -0.41824517008E+02  0.25996318842E+03  0.29739336268E+03  0.81450905642E+02 0.  0.
          5    1    3    3  501    0 -0.90276643398E+02 -0.65841830524E+01  0.94861780747E+02  0.13120240568E+03  0.47000000000E+01 0. -1.
        -13    1    4    4    0    0 -0.20737884493E+02  0.31752712512E+02  0.21484992097E+03  0.21817145355E+03  0.00000000000E+00 0.  1.
         14    1    4    4    0    0  0.29683244156E+02 -0.12355125884E+02  0.57110233360E+02  0.65538712786E+02  0.00000000000E+00 0. -1.
         -5    1    5    5    0  503 -0.30375531537E+02  0.29011113432E+02  0.41224714824E+02  0.59041381514E+02  0.47000000000E+01 0.  1.
         11    1    6    6    0    0 -0.27709629459E+01  0.41793820414E+01  0.74339735559E+02  0.74508668978E+02  0.00000000000E+00 0. -1.
        -12    1    6    6    0    0  0.11447777822E+03 -0.46003899049E+02  0.18562345286E+03  0.22288469370E+03  0.00000000000E+00 0.  1.
</event>
<event>
12    1  0.9017558E-003  0.1793397E+03  0.7818608E-02  0.1168545E+00
         21   -1    0    0  501  502  0.00000000000E+00  0.00000000000E+00  0.21022105141E+04  0.21022105141E+04  0.00000000000E+00 0.  1.
         21   -1    0    0  502  503 -0.00000000000E+00 -0.00000000000E+00 -0.15649222612E+02  0.15649222612E+02  0.00000000000E+00 0.  1.
          6    2    1    2  501    0 -0.28246957657E+02 -0.43878284709E+02  0.12082243061E+04  0.12214008302E+04  0.17114560899E+03 0.  0.
         24    2    3    3    0    0 -0.50923625574E+02 -0.88513439441E+02  0.89517854863E+03  0.90434205864E+03  0.77859363477E+02 0.  0.
         -6    2    1    2    0  503  0.28246957657E+02  0.43878284709E+02  0.87833698533E+03  0.89645890654E+03  0.17157947670E+03 0.  0.
        -24    2    5    5    0    0  0.29241576835E+02 -0.31290251308E+02  0.47182155322E+03  0.48302428701E+03  0.94142095376E+02 0.  0.
          5    1    3    3  501    0  0.22676667917E+02  0.44635154732E+02  0.31304575751E+03  0.31705877152E+03  0.47000000000E+01 0. -1.
        -13    1    4    4    0    0 -0.65772516217E+02 -0.52267584122E+02  0.71723330105E+03  0.72213678231E+03  0.00000000000E+00 0.  1.
         14    1    4    4    0    0  0.14848890643E+02 -0.36245855318E+02  0.17794524759E+03  0.18220527632E+03  0.00000000000E+00 0. -1.
         -5    1    5    5    0  503 -0.99461917771E+00  0.75168536018E+02  0.40651543211E+03  0.41343461952E+03  0.47000000000E+01 0.  1.
         13    1    6    6    0    0 -0.24226021203E+02 -0.35658438717E+01  0.39124019256E+02  0.46155218866E+02  0.00000000000E+00 0. -1.
        -14    1    6    6    0    0  0.53467598038E+02 -0.27724407437E+02  0.43269753396E+03  0.43686906815E+03  0.00000000000E+00 0.  1.
</event>
<event>
12    1  0.9017558E-003  0.2055716E+03  0.7818608E-02  0.1145221E+00
         21   -1    0    0  501  502  0.00000000000E+00  0.00000000000E+00  0.30514757039E+02  0.30514757039E+02  0.00000000000E+00 0.  1.
         21   -1    0    0  502  503 -0.00000000000E+00 -0.00000000000E+00 -0.14168089965E+04  0.14168089965E+04  0.00000000000E+00 0.  1.
          6    2    1    2  501    0  0.91229285261E+02 -0.66862262190E+02 -0.80640396801E+03  0.83207386107E+03  0.17107368603E+03 0.  0.
         24    2    3    3    0    0  0.68591414978E+02 -0.46127306069E+02 -0.78709108316E+03  0.79550216303E+03  0.80491040575E+02 0.  0.
         -6    2    1    2    0  503 -0.91229285261E+02  0.66862262190E+02 -0.57989027150E+03  0.61524989252E+03  0.17165767875E+03 0.  0.
        -24    2    5    5    0    0 -0.55644214060E+02  0.84631928180E+01 -0.14620413696E+03  0.17617985040E+03  0.80596438088E+02 0.  0.
          5    1    3    3  501    0  0.22637870283E+02 -0.20734956121E+02 -0.19312884848E+02  0.36571698038E+02  0.47000000000E+01 0. -1.
        -13    1    4    4    0    0 -0.16922073079E+01  0.97746637816E+01 -0.13698992635E+02  0.16913604490E+02  0.00000000000E+00 0.  1.
         14    1    4    4    0    0  0.70283622286E+02 -0.55901969851E+02 -0.77339209053E+03  0.77858855854E+03  0.00000000000E+00 0. -1.
         -5    1    5    5    0  503 -0.35585071201E+02  0.58399069372E+02 -0.43368613453E+03  0.43907004211E+03  0.47000000000E+01 0.  1.
         11    1    6    6    0    0  0.32457752195E+01 -0.15554497964E+02 -0.89729022849E+02  0.91125051468E+02  0.00000000000E+00 0. -1.
        -12    1    6    6    0    0 -0.58889989280E+02  0.24017690782E+02 -0.56475114114E+02  0.85054798936E+02  0.00000000000E+00 0.  1.
</event>
<event>
12    1  0.9017558E-003  0.1797468E+03  0.7818608E-02  0.1168395E+00
         21   -1    0    0  501  502  0.00000000000E+00  0.00000000000E+00  0.31078011453E+03  0.31078011453E+03  0.00000000000E+00 0.  1.
         21   -1    0    0  502  503 -0.00000000000E+00 -0.00000000000E+00 -0.10864079138E+03  0.10864079138E+03  0.00000000000E+00 0.  1.
          6    2    1    2  501    0 -0.53250242691E+02  0.12588712738E+02  0.14864446031E+03  0.23324683377E+03  0.17121578738E+03 0.  0.
         24    2    3    3    0    0 -0.70129215272E+02  0.63550258666E+02  0.11443276345E+03  0.16941495239E+03  0.81546468539E+02 0.  0.
         -6    2    1    2    0  503  0.53250242691E+02 -0.12588712738E+02  0.53494862837E+02  0.18617407213E+03  0.16972041936E+03 0.  0.
        -24    2    5    5    0    0  0.72975508281E+01 -0.26092703246E+02 -0.32949707117E+02  0.87235902936E+02  0.76094258333E+02 0.  0.
          5    1    3    3  501    0  0.16878972581E+02 -0.50961545928E+02  0.34211696858E+02  0.63831881381E+02  0.47000000000E+01 0. -1.
        -11    1    4    4    0    0 -0.31553818939E+02  0.22762349836E+02 -0.32343694265E+01  0.39041378117E+02  0.00000000000E+00 0.  1.
         12    1    4    4    0    0 -0.38575396333E+02  0.40787908831E+02  0.11766713288E+03  0.13037357428E+03  0.00000000000E+00 0. -1.
         -5    1    5    5    0  503  0.45952691863E+02  0.13503990507E+02  0.86444569955E+02  0.98938169195E+02  0.47000000000E+01 0.  1.
         13    1    6    6    0    0  0.55791021457E+01 -0.52455470745E+02 -0.29915417900E+02  0.60643507649E+02  0.00000000000E+00 0. -1.
        -14    1    6    6    0    0  0.17184486824E+01  0.26362767499E+02 -0.30342892173E+01  0.26592395288E+02  0.00000000000E+00 0.  1.
</event>
<event>
12    1  0.9017558E-003  0.1812572E+03  0.7818608E-02  0.1166888E+00
         21   -1    0    0  503  502  0.00000000000E+00  0.00000000000E+00  0.78659482016E+02  0.78659482016E+02  0.00000000000E+00 0.  1.
         21   -1    0    0  501  503 -0.00000000000E+00 -0.00000000000E+00 -0.43236114300E+03  0.43236114300E+03  0.00000000000E+00 0.  1.
          6    2    1    2  501    0  0.21071617325E+02  0.51719583321E+02 -0.22770320661E+03  0.29027238319E+03  0.17114431859E+03 0.  0.
         24    2    3    3    0    0 -0.42548034520E+02 -0.28460417849E+01 -0.15732746123E+03  0.18072922694E+03  0.78055673826E+02 0.  0.
         -6    2    1    2    0  502 -0.21071617325E+02 -0.51719583321E+02 -0.12599845437E+03  0.22074824182E+03  0.17243911218E+03 0.  0.
        -24    2    5    5    0    0  0.45613758986E+02 -0.71169572223E+01 -0.10189872409E+03  0.13684817824E+03  0.78821366571E+02 0.  0.
          5    1    3    3  501    0  0.63619651845E+02  0.54565625106E+02 -0.70375745381E+02  0.10954315625E+03  0.47000000000E+01 0. -1.
        -13    1    4    4    0    0 -0.10439325244E+02  0.22985260974E+02 -0.12720100338E+03  0.12968190697E+03  0.00000000000E+00 0.  1.
         14    1    4    4    0    0 -0.32108709276E+02 -0.25831302759E+02 -0.30126457854E+02  0.51047319973E+02  0.00000000000E+00 0. -1.
         -5    1    5    5    0  502 -0.66685376310E+02 -0.44602626099E+02 -0.24099730272E+02  0.83900063574E+02  0.47000000000E+01 0.  1.
         11    1    6    6    0    0  0.39600344511E+01 -0.30488696612E+02 -0.77158585448E+02  0.83058351791E+02  0.00000000000E+00 0. -1.
        -12    1    6    6    0    0  0.41653724534E+02  0.23371739389E+02 -0.24740138645E+02  0.53789826453E+02  0.00000000000E+00 0.  1.
</event>
<event>
12    1  0.9017558E-003  0.2203793E+03  0.7818608E-02  0.1133653E+00
         21   -1    0    0  501  502  0.00000000000E+00  0.00000000000E+00  0.13073471372E+03  0.13073471372E+03  0.00000000000E+00 0. -1.
         21   -1    0    0  502  503 -0.00000000000E+00 -0.00000000000E+00 -0.42428728908E+03  0.42428728908E+03  0.00000000000E+00 0.  1.
          6    2    1    2  501    0  0.44493682290E+02  0.12940932117E+03 -0.48365266730E+02  0.22534966472E+03  0.17238564962E+03 0.  0.
         24    2    3    3    0    0 -0.30364403917E+01 -0.69999994068E+00 -0.36933540644E+02  0.86280177185E+02  0.77913237517E+02 0.  0.
         -6    2    1    2    0  503 -0.44493682290E+02 -0.12940932117E+03 -0.24518730863E+03  0.32967233808E+03  0.17274424452E+03 0.  0.
        -24    2    5    5    0    0 -0.80204435900E+02 -0.14479107468E+03 -0.17887636332E+03  0.25265878257E+03  0.66652083315E+02 0.  0.
          5    1    3    3  501    0  0.47530122682E+02  0.13010932111E+03 -0.11431726085E+02  0.13906948753E+03  0.47000000000E+01 0. -1.
        -11    1    4    4    0    0 -0.95648144906E+01  0.32303208433E+02 -0.40233665523E+02  0.52476002065E+02  0.00000000000E+00 0.  1.
         12    1    4    4    0    0  0.65283740988E+01 -0.33003208374E+02  0.33001248786E+01  0.33804175120E+02  0.00000000000E+00 0. -1.
         -5    1    5    5    0  503  0.35710753610E+02  0.15381753513E+02 -0.66310945306E+02  0.77013555507E+02  0.47000000000E+01 0.  1.
         13    1    6    6    0    0 -0.63561261533E+02 -0.61342535846E+02 -0.61295654227E+02  0.10751789571E+03  0.00000000000E+00 0. -1.
        -14    1    6    6    0    0 -0.16643174367E+02 -0.83448538835E+02 -0.11758070909E+03  0.14514088686E+03  0.00000000000E+00 0.  1.
</event>
<event>
12    1  0.9017558E-003  0.1989602E+03  0.7818608E-02  0.1150924E+00
         21   -1    0    0  501  502  0.00000000000E+00  0.00000000000E+00  0.27698051457E+03  0.27698051457E+03  0.00000000000E+00 0.  1.
         21   -1    0    0  502  503 -0.00000000000E+00 -0.00000000000E+00 -0.14425048290E+03  0.14425048290E+03  0.00000000000E+00 0.  1.
          6    2    1    2  501    0  0.77512632976E+02  0.55220520493E+02  0.93066522514E+02  0.21835579952E+03  0.17309062197E+03 0.  0.
         24    2    3    3    0    0  0.37478043060E+00  0.84836950462E+02  0.57368507278E+02  0.12822356604E+03  0.77153668978E+02 0.  0.
         -6    2    1    2    0  503 -0.77512632976E+02 -0.55220520493E+02  0.39663509158E+02  0.20287519796E+03  0.17472160093E+03 0.  0.
        -24    2    5    5    0    0 -0.66428851188E+02 -0.10506860439E+03  0.25404716134E+02  0.14964846722E+03  0.79354018430E+02 0.  0.
          5    1    3    3  501    0  0.77137852546E+02 -0.29616429969E+02  0.35698015236E+02  0.90132233475E+02  0.47000000000E+01 0. -1.
        -11    1    4    4    0    0  0.12453098933E+02  0.86607093425E+02  0.21170441340E+02  0.90022529908E+02  0.00000000000E+00 0.  1.
         12    1    4    4    0    0 -0.12078318503E+02 -0.17701429625E+01  0.36198065938E+02  0.38201036133E+02  0.00000000000E+00 0. -1.
         -5    1    5    5    0  503 -0.11083781788E+02  0.49848083894E+02  0.14258793024E+02  0.53226730739E+02  0.47000000000E+01 0.  1.
         11    1    6    6    0    0 -0.11108622385E+02 -0.58625753449E+01 -0.22976975848E+02  0.26186116552E+02  0.00000000000E+00 0. -1.
        -12    1    6    6    0    0 -0.55320228803E+02 -0.99206029042E+02  0.48381691982E+02  0.12346235067E+03  0.00000000000E+00 0.  1.
</event>
<event>
12    1  0.9017558E-003  0.1854937E+03  0.7818608E-02  0.1163108E+00
         21   -1    0    0  503  502  0.00000000000E+00  0.00000000000E+00  0.41514696936E+03  0.41514696936E+03  0.00000000000E+00 0.  1.
         21   -1    0    0  501  503 -0.00000000000E+00 -0.00000000000E+00 -0.28639244164E+03  0.28639244164E+03  0.00000000000E+00 0.  1.
          6    2    1    2  501    0 -0.44624832724E+01  0.55742489396E+02 -0.23191495840E+03  0.29697213989E+03  0.17686369063E+03 0.  0.
         24    2    3    3    0    0  0.60115769575E+02 -0.30900404137E+01 -0.10437841109E+03  0.14231355396E+03  0.75728731908E+02 0.  0.
         -6    2    1    2    0  502  0.44624832724E+01 -0.55742489396E+02  0.36066948612E+03  0.40456727110E+03  0.17454242964E+03 0.  0.
        -24    2    5    5    0    0  0.54779399707E+02 -0.66271891682E+02  0.16227791542E+03  0.19956979376E+03  0.78110399353E+02 0.  0.
          5    1    3    3  501    0 -0.64578252847E+02  0.58832529810E+02 -0.12753654731E+03  0.15465858594E+03  0.47000000000E+01 0. -1.
        -13    1    4    4    0    0  0.67908476563E+01  0.29166960534E+02 -0.55675032248E+02  0.63218165225E+02  0.00000000000E+00 0.  1.
         14    1    4    4    0    0  0.53324921919E+02 -0.32257000947E+02 -0.48703378844E+02  0.79095388731E+02  0.00000000000E+00 0. -1.
         -5    1    5    5    0  502 -0.50316916434E+02  0.10529402286E+02  0.19839157070E+03  0.20499747734E+03  0.47000000000E+01 0.  1.
         11    1    6    6    0    0  0.30087494917E+02 -0.50911660725E+02  0.15979197438E+03  0.17038406505E+03  0.00000000000E+00 0. -1.
        -12    1    6    6    0    0  0.24691904790E+02 -0.15360230957E+02  0.24859410453E+01  0.29185728705E+02  0.00000000000E+00 0.  1.
</event>
<event>
12    1  0.9017558E-003  0.1897276E+03  0.7818608E-02  0.1160402E+00
         21   -1    0    0  501  502  0.00000000000E+00  0.00000000000E+00  0.14725433885E+03  0.14725433885E+03  0.00000000000E+00 0.  1.
         21   -1    0    0  502  503 -0.00000000000E+00 -0.00000000000E+00 -0.31407343504E+03  0.31407343504E+03  0.00000000000E+00 0.  1.
          6    2    1    2  501    0 -0.59434324396E+02 -0.94803952995E+01  0.31021137082E+02  0.19224694616E+03  0.17992848732E+03 0.  0.
         24    2    3    3    0    0  0.18191428355E+02  0.37571721858E+02  0.36894954253E+02  0.10116318829E+03  0.84440456335E+02 0.  0.
         -6    2    1    2    0  503  0.59434324396E+02  0.94803952995E+01 -0.19784023327E+03  0.26908082773E+03  0.17216682938E+03 0.  0.
        -24    2    5    5    0    0  0.10165062326E+03  0.30371607246E+02 -0.16384040511E+03  0.21079929599E+03  0.79607669895E+02 0.  0.
          5    1    3    3  501    0 -0.77625752751E+02 -0.47052117158E+02 -0.58738171709E+01  0.91083757868E+02  0.47000000000E+01 0. -1.
        -11    1    4    4    0    0 -0.22430719184E+02 -0.98472265833E+01 -0.62321247188E+01  0.25277349802E+02  0.00000000000E+00 0.  1.
         12    1    4    4    0    0  0.40622147539E+02  0.47418948442E+02  0.43127078971E+02  0.75885838485E+02  0.00000000000E+00 0. -1.
         -5    1    5    5    0  503 -0.42216298868E+02 -0.20891211947E+02 -0.33999828164E+02  0.58281531740E+02  0.47000000000E+01 0.  1.
         11    1    6    6    0    0  0.34024229155E+01  0.16257814900E+02  0.27939100206E+01  0.16843365466E+02  0.00000000000E+00 0. -1.
        -12    1    6    6    0    0  0.98248200349E+02  0.14113792347E+02 -0.16663431513E+03  0.19395593052E+03  0.00000000000E+00 0.  1.
</event>
<event>
12    1  0.9017558E-003  0.2162122E+03  0.7818608E-02  0.1136940E+00
         21   -1    0    0  501  502  0.00000000000E+00  0.00000000000E+00  0.86270154098E+03  0.86270154098E+03  0.00000000000E+00 0.  1.
         21   -1    0    0  502  503 -0.00000000000E+00 -0.00000000000E+00 -0.76726359001E+02  0.76726359001E+02  0.00000000000E+00 0. -1.
          6    2    1    2  501    0 -0.98034061732E+02 -0.84950045371E+02  0.64972554461E+03  0.68475615738E+03  0.17297550198E+03 0.  0.
         24    2    3    3    0    0 -0.26463786569E+01 -0.63255940998E+02  0.21757901194E+03  0.24165102319E+03  0.83942082301E+02 0.  0.
         -6    2    1    2    0  503  0.98034061732E+02  0.84950045371E+02  0.13624963738E+03  0.25467174261E+03  0.17165822243E+03 0.  0.
        -24    2    5    5    0    0 -0.82672924998E+01  0.10476182693E+02  0.68205116085E+02  0.10804813942E+03  0.82730671717E+02 0.  0.
          5    1    3    3  501    0 -0.95387683075E+02 -0.21694104373E+02  0.43214653267E+03  0.44310513419E+03  0.47000000000E+01 0. -1.
        -13    1    4    4    0    0  0.19824388946E+02  0.57384014051E+01  0.10979705837E+03  0.11171987144E+03  0.00000000000E+00 0.  1.
         14    1    4    4    0    0 -0.22470767603E+02 -0.68994342403E+02  0.10778195357E+03  0.12993115175E+03  0.00000000000E+00 0. -1.
         -5    1    5    5    0  503  0.10630135423E+03  0.74473862679E+02  0.68044521291E+02  0.14662360319E+03  0.47000000000E+01 0.  1.
         11    1    6    6    0    0 -0.10007874816E+02  0.23980172079E+02 -0.10608673042E+02  0.28066887162E+02  0.00000000000E+00 0. -1.
        -12    1    6    6    0    0  0.17405823164E+01 -0.13503989386E+02  0.78813789127E+02  0.79981252257E+02  0.00000000000E+00 0.  1.
</event>
<event>
12    1  0.9017558E-003  0.3044000E+03  0.7818608E-02  0.1083237E+00
         21   -1    0    0  501  502  0.00000000000E+00  0.00000000000E+00  0.28301291554E+03  0.28301291554E+03  0.00000000000E+00 0. -1.
         21   -1    0    0  502  503 -0.00000000000E+00 -0.00000000000E+00 -0.34524341190E+03  0.34524341190E+03  0.00000000000E+00 0.  1.
          6    2    1    2  501    0  0.25009814332E+03 -0.77768843793E+01  0.43364711314E+02  0.30606119408E+03  0.17083148162E+03 0.  0.
         24    2    3    3    0    0  0.14645372026E+03 -0.63009982810E+02 -0.71115963256E+01  0.17814399732E+03  0.79156546594E+02 0.  0.
         -6    2    1    2    0  503 -0.25009814332E+03  0.77768843793E+01 -0.10559520767E+03  0.32219513336E+03  0.17334876651E+03 0.  0.
        -24    2    5    5    0    0 -0.23489268042E+03  0.13463583358E+02 -0.36448840135E+02  0.25101329023E+03  0.79519271459E+02 0.  0.
          5    1    3    3  501    0  0.10364442306E+03  0.55233098430E+02  0.50476307640E+02  0.12791719676E+03  0.47000000000E+01 0. -1.
        -11    1    4    4    0    0  0.96348589608E+02 -0.19122239689E+01  0.11253040259E+02  0.97022359459E+02  0.00000000000E+00 0.  1.
         12    1    4    4    0    0  0.50105130652E+02 -0.61097758841E+02 -0.18364636584E+02  0.81121637865E+02  0.00000000000E+00 0. -1.
         -5    1    5    5    0  503 -0.15205462903E+02 -0.56866989792E+01 -0.69146367538E+02  0.71181843127E+02  0.47000000000E+01 0.  1.
         11    1    6    6    0    0 -0.21464781103E+03  0.15411057586E+02 -0.56457322592E+02  0.22248283698E+03  0.00000000000E+00 0. -1.
        -12    1    6    6    0    0 -0.20244869389E+02 -0.19474742279E+01  0.20008482457E+02  0.28530453250E+02  0.00000000000E+00 0.  1.
</event>
<event>
12    1  0.9017558E-003  0.1788536E+03  0.7818608E-02  0.1169777E+00
         21   -1    0    0  503  502  0.00000000000E+00  0.00000000000E+00  0.13542890530E+04  0.13542890530E+04  0.00000000000E+00 0.  1.
         21   -1    0    0  501  503 -0.00000000000E+00 -0.00000000000E+00 -0.23258507333E+02  0.23258507333E+02  0.00000000000E+00 0.  1.
          6    2    1    2  501    0 -0.27250307082E+02  0.33128240276E+02  0.71641717186E+03  0.73840516253E+03  0.17363340798E+03 0.  0.
         24    2    3    3    0    0 -0.42851625510E+02  0.80664518226E+02  0.59257961790E+03  0.60476037726E+03  0.79003063496E+02 0.  0.
         -6    2    1    2    0  502  0.27250307082E+02 -0.33128240276E+02  0.61461337381E+03  0.63914239781E+03  0.17003924804E+03 0.  0.
        -24    2    5    5    0    0 -0.49290862344E+02 -0.24024113212E+02  0.29203798849E+03  0.30745217341E+03  0.78955082734E+02 0.  0.
          5    1    3    3  501    0  0.15601318428E+02 -0.47536277950E+02  0.12383755396E+03  0.13364478526E+03  0.47000000000E+01 0. -1.
        -13    1    4    4    0    0 -0.14395418659E+02  0.73006672076E+02  0.53427176171E+03  0.53942888095E+03  0.00000000000E+00 0.  1.
         14    1    4    4    0    0 -0.28456206851E+02  0.76578461499E+01  0.58307856193E+02  0.65331496308E+02  0.00000000000E+00 0. -1.
         -5    1    5    5    0  502  0.76541169426E+02 -0.91041270636E+01  0.32257538532E+03  0.33169022440E+03  0.47000000000E+01 0.  1.
         11    1    6    6    0    0  0.10091057964E+02  0.13325039915E+02  0.12739888544E+03  0.12849070842E+03  0.00000000000E+00 0. -1.
        -12    1    6    6    0    0 -0.59381920308E+02 -0.37349153127E+02  0.16463910305E+03  0.17896146499E+03  0.00000000000E+00 0.  1.
</event>
<event>
12    1  0.9017558E-003  0.1819932E+03  0.7818608E-02  0.1167171E+00
         21   -1    0    0  503  502  0.00000000000E+00  0.00000000000E+00  0.28983424407E+03  0.28983424407E+03  0.00000000000E+00 0.  1.
         21   -1    0    0  501  503 -0.00000000000E+00 -0.00000000000E+00 -0.11620976449E+03  0.11620976449E+03  0.00000000000E+00 0.  1.
          6    2    1    2  501    0  0.32239470884E+02  0.37033097048E+02  0.42507721754E+02  0.18173816276E+03  0.16973809129E+03 0.  0.
         24    2    3    3    0    0  0.61266125880E+02 -0.28412915309E+02  0.25193019299E+02  0.10793019466E+03  0.80333098789E+02 0.  0.
         -6    2    1    2    0  502 -0.32239470884E+02 -0.37033097048E+02  0.13111675783E+03  0.22430584580E+03  0.17524461337E+03 0.  0.
        -24    2    5    5    0    0 -0.54390627396E+02  0.35824085956E+02  0.99435165003E+02  0.14169436855E+03  0.77124811544E+02 0.  0.
          5    1    3    3  501    0 -0.29026654996E+02  0.65446012356E+02  0.17314702455E+02  0.73807968098E+02  0.47000000000E+01 0. -1.
        -11    1    4    4    0    0  0.77335611766E+02 -0.64934155346E+01  0.21269295682E+02  0.80469523618E+02  0.00000000000E+00 0.  1.
         12    1    4    4    0    0 -0.16069485886E+02 -0.21919499774E+02  0.39237236171E+01  0.27460671041E+02  0.00000000000E+00 0. -1.
         -5    1    5    5    0  502  0.22151156513E+02 -0.72857183004E+02  0.31681592829E+02  0.82611477255E+02  0.47000000000E+01 0.  1.
         11    1    6    6    0    0 -0.13428135166E+02  0.42651931870E+02  0.14259345342E+02  0.46934326840E+02  0.00000000000E+00 0. -1.
        -12    1    6    6    0    0 -0.40962492231E+02 -0.68278459145E+01  0.85175819660E+02  0.94760041707E+02  0.00000000000E+00 0.  1.
</event>
<event>
12    1  0.9017558E-003  0.2158908E+03  0.7818608E-02  0.1137413E+00
         21   -1    0    0  501  502  0.00000000000E+00  0.00000000000E+00  0.44931428109E+03  0.44931428109E+03  0.00000000000E+00 0. -1.
         21   -1    0    0  502  503 -0.00000000000E+00 -0.00000000000E+00 -0.10310652971E+03  0.10310652971E+03  0.00000000000E+00 0. -1.
          6    2    1    2  501    0 -0.86203174798E+02 -0.97505665142E+02  0.15410201798E+03  0.26343388280E+03  0.16944508426E+03 0.  0.
         24    2    3    3    0    0 -0.11093948704E+03 -0.33376972618E+02  0.12435783628E+03  0.18839268949E+03  0.81273254659E+02 0.  0.
         -6    2    1    2    0  503  0.86203174798E+02  0.97505665142E+02  0.19210573339E+03  0.28898692800E+03  0.17225123998E+03 0.  0.
        -24    2    5    5    0    0 -0.96122083974E+00  0.92893206151E+02  0.14487268010E+03  0.18962920073E+03  0.79630827184E+02 0.  0.
          5    1    3    3  501    0  0.24736312242E+02 -0.64128692524E+02  0.29744181702E+02  0.75041193309E+02  0.47000000000E+01 0. -1.
        -11    1    4    4    0    0 -0.77860613427E+02 -0.12554015681E+02  0.12669423668E+03  0.14923574653E+03  0.00000000000E+00 0.  1.
         12    1    4    4    0    0 -0.33078873613E+02 -0.20822956936E+02 -0.23364004058E+01  0.39156942960E+02  0.00000000000E+00 0. -1.
         -5    1    5    5    0  503  0.87164395638E+02  0.46124589908E+01  0.47233053297E+02  0.99357727272E+02  0.47000000000E+01 0.  1.
         13    1    6    6    0    0  0.35407576672E+02  0.71806507416E+02  0.89081015872E+02  0.11977185972E+03  0.00000000000E+00 0. -1.
        -14    1    6    6    0    0 -0.36368797511E+02  0.21086698735E+02  0.55791664224E+02  0.69857341009E+02  0.00000000000E+00 0.  1.
</event>
<event>
12    1  0.9017558E-003  0.1767370E+03  0.7818608E-02  0.1171049E+00
         21   -1    0    0  501  502  0.00000000000E+00  0.00000000000E+00  0.10988984634E+04  0.10988984634E+04  0.00000000000E+00 0.  1.
         21   -1    0    0  502  503 -0.00000000000E+00 -0.00000000000E+00 -0.39553736551E+02  0.39553736551E+02  0.00000000000E+00 0.  1.
          6    2    1    2  501    0 -0.37940263703E+02 -0.12407135114E+02  0.83183257832E+03  0.85035887967E+03  0.17196332533E+03 0.  0.
         24    2    3    3    0    0 -0.36310973376E+02 -0.20076416868E+02  0.83594793780E+03  0.84033397801E+03  0.75037927604E+02 0.  0.
         -6    2    1    2    0  503  0.37940263703E+02  0.12407135114E+02  0.22751214853E+03  0.28809332028E+03  0.17217021477E+03 0.  0.
        -24    2    5    5    0    0 -0.23832865246E+02  0.20614615512E+02  0.47870427477E+02  0.97892058099E+02  0.79361888672E+02 0.  0.
          5    1    3    3  501    0 -0.16292903271E+01  0.76692817544E+01 -0.41153594805E+01  0.10024901658E+02  0.47000000000E+01 0. -1.
        -11    1    4    4    0    0 -0.21659574310E+02  0.27836110202E+02  0.30745932401E+03  0.30947572136E+03  0.00000000000E+00 0.  1.
         12    1    4    4    0    0 -0.14651399067E+02 -0.47912527070E+02  0.52848861379E+03  0.53085825665E+03  0.00000000000E+00 0. -1.
         -5    1    5    5    0  503  0.61773128949E+02 -0.82074803980E+01  0.17964172105E+03  0.19020126218E+03  0.47000000000E+01 0.  1.
         13    1    6    6    0    0  0.21970232027E+02 -0.77672428111E+01  0.35730344473E+02  0.42657691832E+02  0.00000000000E+00 0. -1.
        -14    1    6    6    0    0 -0.45803097273E+02  0.28381858323E+02  0.12140083003E+02  0.55234366268E+02  0.00000000000E+00 0.  1.
</event>
<event>
12    1  0.9017558E-003  0.1887262E+03  0.7818608E-02  0.1159991E+00
         21   -1    0    0  501  502  0.00000000000E+00  0.00000000000E+00  0.10258508999E+04  0.10258508999E+04  0.00000000000E+00 0. -1.
         21   -1    0    0  502  503 -0.00000000000E+00 -0.00000000000E+00 -0.34717559526E+02  0.34717559526E+02  0.00000000000E+00 0. -1.
          6    2    1    2  501    0 -0.58616010577E+02  0.48498506278E+02  0.54697096131E+03  0.57861457366E+03  0.17271262413E+03 0.  0.
         24    2    3    3    0    0 -0.27962421924E+02 -0.39997135589E+02  0.24625093936E+03  0.26361339474E+03  0.80441462269E+02 0.  0.
         -6    2    1    2    0  503  0.58616010577E+02 -0.48498506278E+02  0.44416237902E+03  0.48195388572E+03  0.17091339097E+03 0.  0.
        -24    2    5    5    0    0  0.19888500044E+02  0.15494070278E+02  0.36018859979E+03  0.36939920779E+03  0.78002106670E+02 0.  0.
          5    1    3    3  501    0 -0.30653588653E+02  0.88495641866E+02  0.30072002194E+03  0.31500117892E+03  0.47000000000E+01 0. -1.
        -13    1    4    4    0    0 -0.55327292059E+01 -0.30452203967E+01  0.20076332361E+03  0.20086263109E+03  0.00000000000E+00 0.  1.
         14    1    4    4    0    0 -0.22429692718E+02 -0.36951915192E+02  0.45487615751E+02  0.62750763649E+02  0.00000000000E+00 0. -1.
         -5    1    5    5    0  503  0.38727510532E+02 -0.63992576556E+02  0.83973779229E+02  0.11255467793E+03  0.47000000000E+01 0.  1.
         13    1    6    6    0    0  0.17451473840E+02 -0.27167564844E+02  0.23294315784E+03  0.23517046010E+03  0.00000000000E+00 0. -1.
        -14    1    6    6    0    0  0.24370262039E+01  0.42661635122E+02  0.12724544195E+03  0.13422874768E+03  0.00000000000E+00 0.  1.
</event>
<event>
12    1  0.9017558E-003  0.1797728E+03  0.7818608E-02  0.1168156E+00
         21   -1    0    0  503  502  0.00000000000E+00  0.00000000000E+00  0.42512675560E+03  0.42512675560E+03  0.00000000000E+00 0. -1.
         21   -1    0    0  501  503 -0.00000000000E+00 -0.00000000000E+00 -0.86332887864E+02  0.86332887864E+02  0.00000000000E+00 0. -1.
          6    2    1    2  501    0 -0.42465219100E+02 -0.27893906085E+02  0.25899684265E+03  0.31527391250E+03  0.17244393457E+03 0.  0.
         24    2    3    3    0    0  0.34268442796E+02 -0.31343145291E+02  0.19055415589E+03  0.21228632349E+03  0.81227322292E+02 0.  0.
         -6    2    1    2    0  502  0.42465219100E+02  0.27893906085E+02  0.79797025081E+02  0.19618573096E+03  0.17187178649E+03 0.  0.
        -24    2    5    5    0    0  0.37944325440E+02  0.78084529882E+02  0.30849753773E+02  0.12577648039E+03  0.85621551447E+02 0.  0.
          5    1    3    3  501    0 -0.76733661896E+02  0.34492392062E+01  0.68442686766E+02  0.10298758901E+03  0.47000000000E+01 0. -1.
        -11    1    4    4    0    0  0.18686114588E+00  0.15277649657E+01 -0.80089914256E+01  0.81555457532E+01  0.00000000000E+00 0.  1.
         12    1    4    4    0    0  0.34081581650E+02 -0.32870910257E+02  0.19856314731E+03  0.20413077774E+03  0.00000000000E+00 0. -1.
         -5    1    5    5    0  502  0.45208936600E+01 -0.50190623797E+02  0.48947271308E+02  0.70409250565E+02  0.47000000000E+01 0.  1.
         13    1    6    6    0    0  0.58892768745E+02  0.28354431890E+02  0.29719663239E+02  0.71802440079E+02  0.00000000000E+00 0. -1.
        -14    1    6    6    0    0 -0.20948443305E+02  0.49730097992E+02  0.11300905335E+01  0.53974040314E+02  0.00000000000E+00 0.  1.
</event>
<event>
12    1  0.9017558E-003  0.2757550E+03  0.7818608E-02  0.1098118E+00
         21   -1    0    0  501  502  0.00000000000E+00  0.00000000000E+00  0.42185111240E+03  0.42185111240E+03  0.00000000000E+00 0. -1.
         21   -1    0    0  502  503 -0.00000000000E+00 -0.00000000000E+00 -0.19446950921E+03  0.19446950921E+03  0.00000000000E+00 0. -1.
          6    2    1    2  501    0 -0.19720644497E+03  0.86806637668E+02  0.19808367827E+03  0.33901363898E+03  0.17107696961E+03 0.  0.
         24    2    3    3    0    0 -0.56314508736E+02  0.55882010406E+02  0.14916241613E+03  0.18662515464E+03  0.79280508185E+02 0.  0.
         -6    2    1    2    0  503  0.19720644497E+03 -0.86806637668E+02  0.29297924917E+02  0.27730698263E+03  0.17209015059E+03 0.  0.
        -24    2    5    5    0    0  0.34778293859E+02  0.48693470495E+01  0.22682303228E+02  0.90616739454E+02  0.80396929824E+02 0.  0.
          5    1    3    3  501    0 -0.14089193624E+03  0.30924627262E+02  0.48921262139E+02  0.15238848433E+03  0.47000000000E+01 0. -1.
        -13    1    4    4    0    0 -0.20674155000E+02  0.69052846150E+02  0.11387161390E+03  0.13476817391E+03  0.00000000000E+00 0.  1.
         14    1    4    4    0    0 -0.35640353737E+02 -0.13170835744E+02  0.35290802227E+02  0.51856980731E+02  0.00000000000E+00 0. -1.
         -5    1    5    5    0  503  0.16242815111E+03 -0.91675984717E+02  0.66156216888E+01  0.18669024318E+03  0.47000000000E+01 0.  1.
         11    1    6    6    0    0  0.81119645622E+01 -0.10204045576E+02 -0.28289782614E+02  0.31148648695E+02  0.00000000000E+00 0. -1.
        -12    1    6    6    0    0  0.26666329297E+02  0.15073392625E+02  0.50972085842E+02  0.59468090759E+02  0.00000000000E+00 0.  1.
</event>
<event>
12    1  0.9017558E-003  0.2562714E+03  0.7818608E-02  0.1109823E+00
         21   -1    0    0  503  502  0.00000000000E+00  0.00000000000E+00  0.15512203539E+03  0.15512203539E+03  0.00000000000E+00 0.  1.
         21   -1    0    0  501  503 -0.00000000000E+00 -0.00000000000E+00 -0.47620053657E+03  0.47620053657E+03  0.00000000000E+00 0. -1.
          6    2    1    2  501    0  0.18525414426E+03  0.25498512694E+02 -0.51791655189E+02  0.26145250558E+03  0.17523060523E+03 0.  0.
         24    2    3    3    0    0  0.17929551611E+03 -0.11485810287E+02  0.11310993693E+01  0.19644286517E+03  0.79433707927E+02 0.  0.
         -6    2    1    2    0  502 -0.18525414426E+03 -0.25498512694E+02 -0.26928684599E+03  0.36987006639E+03  0.17122846863E+03 0.  0.
        -24    2    5    5    0    0 -0.48643886723E+02 -0.37012618211E+02 -0.17776070777E+03  0.20496384738E+03  0.81701578211E+02 0.  0.
          5    1    3    3  501    0  0.59586281489E+01  0.36984322981E+02 -0.52922754559E+02  0.65009640407E+02  0.47000000000E+01 0. -1.
        -13    1    4    4    0    0  0.81852705314E+02 -0.40693286101E+02 -0.17376333517E+02  0.93047008912E+02  0.00000000000E+00 0.  1.
         14    1    4    4    0    0  0.97442810799E+02  0.29207475814E+02  0.18507432886E+02  0.10339585626E+03  0.00000000000E+00 0. -1.
         -5    1    5    5    0  502 -0.13661025754E+03  0.11514105516E+02 -0.91526138218E+02  0.16490621901E+03  0.47000000000E+01 0.  1.
         13    1    6    6    0    0 -0.68025506551E+02 -0.33635977909E+02 -0.16472134553E+03  0.18136143533E+03  0.00000000000E+00 0. -1.
        -14    1    6    6    0    0  0.19381619828E+02 -0.33766403015E+01 -0.13039362244E+02  0.23602412050E+02  0.00000000000E+00 0.  1.
</event>
<event>
12    1  0.9017558E-003  0.1764307E+03  0.7818608E-02  0.1172677E+00
         21   -1    0    0  501  502  0.00000000000E+00  0.00000000000E+00  0.32027361157E+03  0.32027361157E+03  0.00000000000E+00 0. -1.
         21   -1    0    0  502  503 -0.00000000000E+00 -0.00000000000E+00 -0.96725751026E+02  0.96725751026E+02  0.00000000000E+00 0. -1.
          6    2    1    2  501    0  0.13751183692E+02  0.32371792968E+02  0.14705692583E+03  0.22968137630E+03  0.17288946513E+03 0.  0.
         24    2    3    3    0    0 -0.51726603510E+02  0.29858324454E+02  0.44663033149E+02  0.10802506780E+03  0.78150289145E+02 0.  0.
         -6    2    1    2    0  503 -0.13751183692E+02 -0.32371792968E+02  0.76490934716E+02  0.18731798629E+03  0.16733241426E+03 0.  0.
        -24    2    5    5    0    0  0.19979429111E+02 -0.74334064262E+02  0.63674421480E+02  0.13177575494E+03  0.85940019440E+02 0.  0.
          5    1    3    3  501    0  0.65477787201E+02  0.25134685143E+01  0.10239389268E+03  0.12165630850E+03  0.47000000000E+01 0. -1.
        -13    1    4    4    0    0 -0.39122899398E+02 -0.35982611613E+00  0.60190252888E+02  0.71788559498E+02  0.00000000000E+00 0.  1.
         14    1    4    4    0    0 -0.12603704112E+02  0.30218150570E+02 -0.15527219738E+02  0.36236508303E+02  0.00000000000E+00 0. -1.
         -5    1    5    5    0  503 -0.33730612803E+02  0.41962271293E+02  0.12816513236E+02  0.55542231353E+02  0.47000000000E+01 0.  1.
         11    1    6    6    0    0 -0.71051168711E+01 -0.76542468769E+02  0.69896828460E+02  0.10389802135E+03  0.00000000000E+00 0. -1.
        -12    1    6    6    0    0  0.27084545982E+02  0.22084045073E+01 -0.62224069798E+01  0.27877733591E+02  0.00000000000E+00 0.  1.
</event>
<event>
12    1  0.9017558E-003  0.1905912E+03  0.7818608E-02  0.1158391E+00
         21   -1    0    0  503  502  0.00000000000E+00  0.00000000000E+00  0.12688053689E+03  0.12688053689E+03  0.00000000000E+00 0.  1.
         21   -1    0    0  501  503 -0.00000000000E+00 -0.00000000000E+00 -0.39921567629E+03  0.39921567629E+03  0.00000000000E+00 0.  1.
          6    2    1    2  501    0  0.73685850234E+02  0.21282217179E+02 -0.27847425207E+03  0.33745058836E+03  0.17447765823E+03 0.  0.
         24    2    3    3    0    0  0.22569763980E+02  0.38772204355E+02 -0.26710758913E+03  0.28204260200E+03  0.78669480074E+02 0.  0.
         -6    2    1    2    0  502 -0.73685850234E+02 -0.21282217179E+02  0.61391126766E+01  0.18864562483E+03  0.17224095265E+03 0.  0.
        -24    2    5    5    0    0 -0.25484102295E+02  0.40690641288E+02 -0.30610706924E+02  0.10183155378E+03  0.84424417135E+02 0.  0.
          5    1    3    3  501    0  0.51116086255E+02 -0.17489987176E+02 -0.11366662940E+02  0.55407986354E+02  0.47000000000E+01 0. -1.
        -13    1    4    4    0    0  0.25002909928E+02 -0.13982977605E+02 -0.16088982819E+03  0.16342033528E+03  0.00000000000E+00 0.  1.
         14    1    4    4    0    0 -0.24331459486E+01  0.52755181960E+02 -0.10621776094E+03  0.11862226672E+03  0.00000000000E+00 0. -1.
         -5    1    5    5    0  502 -0.48201747939E+02 -0.61972858467E+02  0.36749819601E+02  0.86814071047E+02  0.47000000000E+01 0.  1.
         13    1    6    6    0    0  0.12858789420E+01 -0.24894591180E+02 -0.15642261756E+02  0.29429143846E+02  0.00000000000E+00 0. -1.
        -14    1    6    6    0    0 -0.26769981237E+02  0.65585232469E+02 -0.14968445168E+02  0.72402409933E+02  0.00000000000E+00 0.  1.
</event>
<event>
12    1  0.9017558E-003  0.1816416E+03  0.7818608E-02  0.1170343E+00
         21   -1    0    0  501  502  0.00000000000E+00  0.00000000000E+00  0.39232661843E+02  0.39232661843E+02  0.00000000000E+00 0. -1.
         21   -1    0    0  502  503 -0.00000000000E+00 -0.00000000000E+00 -0.81994789770E+03  0.81994789770E+03  0.00000000000E+00 0. -1.
          6    2    1    2  501    0 -0.23872114273E+01 -0.49010731028E+02 -0.26390088676E+03  0.31137517354E+03  0.15780706616E+03 0.  0.
         24    2    3    3    0    0  0.51580262829E+02 -0.39870498873E+02 -0.12941352583E+03  0.16609966848E+03  0.81185337390E+02 0.  0.
         -6    2    1    2    0  503  0.23872114273E+01  0.49010731028E+02 -0.51681434910E+03  0.54780538600E+03  0.17488830425E+03 0.  0.
        -24    2    5    5    0    0 -0.55934356111E+02  0.31454210085E+02 -0.18401816967E+03  0.20944902990E+03  0.76734541337E+02 0.  0.
          5    1    3    3  501    0 -0.53967474257E+02 -0.91402321549E+01 -0.13448736093E+03  0.14527550506E+03  0.47000000000E+01 0. -1.
        -11    1    4    4    0    0 -0.49163786649E+01 -0.18965384891E+02  0.37466309063E+01  0.19947276666E+02  0.00000000000E+00 0.  1.
         12    1    4    4    0    0  0.56496641494E+02 -0.20905113982E+02 -0.13316015673E+03  0.14615239181E+03  0.00000000000E+00 0. -1.
         -5    1    5    5    0  503  0.58321567539E+02  0.17556520943E+02 -0.33279617943E+03  0.33835635610E+03  0.47000000000E+01 0.  1.
         11    1    6    6    0    0  0.12827906642E+02  0.20075520110E+02 -0.19536915007E+02  0.30810270114E+02  0.00000000000E+00 0. -1.
        -12    1    6    6    0    0 -0.68762262754E+02  0.11378689975E+02 -0.16448125466E+03  0.17863875979E+03  0.00000000000E+00 0.  1.
</event>
<event>
12    1  0.9017558E-003  0.1793359E+03  0.7818608E-02  0.1169318E+00
         21   -1    0    0  503  502  0.00000000000E+00  0.00000000000E+00  0.70068426470E+03  0.70068426470E+03  0.00000000000E+00 0. -1.
         21   -1    0    0  501  503 -0.00000000000E+00 -0.00000000000E+00 -0.15774648917E+03  0.15774648917E+03  0.00000000000E+00 0.  1.
          6    2    1    2  501    0  0.41209972154E+02  0.30012431182E+02 -0.92169173526E+02  0.19848968926E+03  0.16823790406E+03 0.  0.
         24    2    3    3    0    0  0.11650117982E+02  0.76572334078E+02 -0.86095599043E+02  0.14280676689E+03  0.83559995816E+02 0.  0.
         -6    2    1    2    0  502 -0.41209972154E+02 -0.30012431182E+02  0.63510694905E+03  0.65994106461E+03  0.17193709370E+03 0.  0.
        -24    2    5    5    0    0  0.73986424867E+01  0.28855891904E+02  0.47555892230E+03  0.48300621863E+03  0.79065265751E+02 0.  0.
          5    1    3    3  501    0  0.29559854172E+02 -0.46559902896E+02 -0.60735744833E+01  0.55682922367E+02  0.47000000000E+01 0. -1.
        -13    1    4    4    0    0 -0.14924484637E+02  0.22476602103E+01 -0.56543828771E+02  0.58523472130E+02  0.00000000000E+00 0.  1.
         14    1    4    4    0    0  0.26574602619E+02  0.74324673868E+02 -0.29551770272E+02  0.84283294763E+02  0.00000000000E+00 0. -1.
         -5    1    5    5    0  502 -0.48608614641E+02 -0.58868323086E+02  0.15954802675E+03  0.17693484598E+03  0.47000000000E+01 0.  1.
         13    1    6    6    0    0  0.44055017373E-01 -0.79933885751E+01  0.38337147353E+03  0.38345479906E+03  0.00000000000E+00 0. -1.
        -14    1    6    6    0    0  0.73545874693E+01  0.36849280479E+02  0.92187448766E+02  0.99551419571E+02  0.00000000000E+00 0.  1.
</event>
<event>
12    1  0.9017558E-003  0.2359794E+03  0.7818608E-02  0.1122523E+00
         21   -1    0    0  501  502  0.00000000000E+00  0.00000000000E+00  0.52573765166E+02  0.52573765166E+02  0.00000000000E+00 0. -1.
         21   -1    0    0  502  503 -0.00000000000E+00 -0.00000000000E+00 -0.13292942677E+04  0.13292942677E+04  0.00000000000E+00 0.  1.
          6    2    1    2  501    0 -0.12659176486E+03  0.10074145021E+03 -0.95000055012E+03  0.97883922299E+03  0.17161254181E+03 0.  0.
         24    2    3    3    0    0 -0.12663158045E+03  0.48245490828E+02 -0.45768036066E+03  0.48370582047E+03  0.78337881449E+02 0.  0.
         -6    2    1    2    0  503  0.12659176486E+03 -0.10074145021E+03 -0.32671995237E+03  0.40302880984E+03  0.17179051068E+03 0.  0.
        -24    2    5    5    0    0  0.11244212651E+03 -0.70791674457E+02 -0.13568507774E+03  0.20908651260E+03  0.87475919214E+02 0.  0.
          5    1    3    3  501    0  0.39815591427E-01  0.52495959381E+02 -0.49232018946E+03  0.49513340251E+03  0.47000000000E+01 0. -1.
        -13    1    4    4    0    0 -0.30913524899E+02  0.51013908682E+02 -0.14835966711E+03  0.15990201914E+03  0.00000000000E+00 0.  1.
         14    1    4    4    0    0 -0.95718055552E+02 -0.27684178544E+01 -0.30932069355E+03  0.32380380133E+03  0.00000000000E+00 0. -1.
         -5    1    5    5    0  503  0.14149638347E+02 -0.29949775752E+02 -0.19103487463E+03  0.19394229724E+03  0.47000000000E+01 0.  1.
         11    1    6    6    0    0  0.91050482315E+01  0.19450055806E+02 -0.23776473886E+02  0.32039464487E+02  0.00000000000E+00 0. -1.
        -12    1    6    6    0    0  0.10333707828E+03 -0.90241730263E+02 -0.11190860385E+03  0.17704704811E+03  0.00000000000E+00 0.  1.
</event>
<event>
12    1  0.9017558E-003  0.2124956E+03  0.7818608E-02  0.1139965E+00
         21   -1    0    0  503  502  0.00000000000E+00  0.00000000000E+00  0.10150800799E+03  0.10150800799E+03  0.00000000000E+00 0.  1.
         21   -1    0    0  501  503 -0.00000000000E+00 -0.00000000000E+00 -0.72377807435E+03  0.72377807435E+03  0.00000000000E+00 0.  1.
          6    2    1    2  501    0 -0.11403171131E+03  0.42463305846E+02 -0.56823770879E+03  0.60602852899E+03  0.17195964855E+03 0.  0.
         24    2    3    3    0    0 -0.13861609680E+03  0.34913872068E+02 -0.55076851929E+03  0.57458574695E+03  0.79808633683E+02 0.  0.
         -6    2    1    2    0  502  0.11403171131E+03 -0.42463305846E+02 -0.54032357570E+02  0.21925755335E+03  0.17420681820E+03 0.  0.
        -24    2    5    5    0    0  0.11234345444E+03  0.15362352249E+02 -0.75064160546E+02  0.15752357825E+03  0.79510979648E+02 0.  0.
          5    1    3    3  501    0  0.24584385488E+02  0.75494337787E+01 -0.17469189505E+02  0.31442782036E+02  0.47000000000E+01 0. -1.
        -13    1    4    4    0    0 -0.18929213529E+02  0.24914119701E+02 -0.22909398314E+03  0.23122085026E+03  0.00000000000E+00 0.  1.
         14    1    4    4    0    0 -0.11968688327E+03  0.99997523665E+01 -0.32167453615E+03  0.34336489670E+03  0.00000000000E+00 0. -1.
         -5    1    5    5    0  502  0.16882568791E+01 -0.57825658095E+02  0.21031802976E+02  0.61733975102E+02  0.47000000000E+01 0.  1.
         11    1    6    6    0    0  0.81415139142E+02 -0.26703470131E+02 -0.39493818871E+02  0.94346499286E+02  0.00000000000E+00 0. -1.
        -12    1    6    6    0    0  0.30928315293E+02  0.42065822379E+02 -0.35570341676E+02  0.63177078963E+02  0.00000000000E+00 0.  1.
</event>
<event>
12    1  0.9017558E-003  0.2475346E+03  0.7818608E-02  0.1115038E+00
         21   -1    0    0  501  502  0.00000000000E+00  0.00000000000E+00  0.22828893963E+03  0.22828893963E+03  0.00000000000E+00 0.  1.
         21   -1    0    0  502  503 -0.00000000000E+00 -0.00000000000E+00 -0.26766888906E+03  0.26766888906E+03  0.00000000000E+00 0.  1.
          6    2    1    2  501    0 -0.16059104094E+03  0.72333328605E+02 -0.29008325121E+02  0.24820601988E+03  0.17246203212E+03 0.  0.
         24    2    3    3    0    0 -0.13845138350E+03  0.92845048328E+02  0.24680339525E+02  0.18643662787E+03  0.79752795951E+02 0.  0.
         -6    2    1    2    0  503  0.16059104094E+03 -0.72333328605E+02 -0.10371624303E+02  0.24775180881E+03  0.17393043241E+03 0.  0.
        -24    2    5    5    0    0  0.22776013507E+02  0.77270821973E+01 -0.13796640993E+02  0.88263652809E+02  0.83795408668E+02 0.  0.
          5    1    3    3  501    0 -0.22139657445E+02 -0.20511719723E+02 -0.53688664646E+02  0.61769392010E+02  0.47000000000E+01 0. -1.
        -13    1    4    4    0    0 -0.60390523517E+02  0.62257205677E+02 -0.23337266104E+02  0.89819836219E+02  0.00000000000E+00 0.  1.
         14    1    4    4    0    0 -0.78060859980E+02  0.30587842652E+02  0.48017605629E+02  0.96616791653E+02  0.00000000000E+00 0. -1.
         -5    1    5    5    0  503  0.13781502743E+03 -0.80060410802E+02  0.34250166894E+01  0.15948815600E+03  0.47000000000E+01 0.  1.
         13    1    6    6    0    0  0.18707738123E+02 -0.13829802074E+02 -0.44684572187E+02  0.50378109161E+02  0.00000000000E+00 0. -1.
        -14    1    6    6    0    0  0.40682753843E+01  0.21556884271E+02  0.30887931194E+02  0.37885543648E+02  0.00000000000E+00 0.  1.
</event>
<event>
12    1  0.9017558E-003  0.2235403E+03  0.7818608E-02  0.1131433E+00
         21   -1    0    0  503  502  0.00000000000E+00  0.00000000000E+00  0.76311650066E+02  0.76311650066E+02  0.00000000000E+00 0.  1.
         21   -1    0    0  501  503 -0.00000000000E+00 -0.00000000000E+00 -0.12690843840E+04  0.12690843840E+04  0.00000000000E+00 0.  1.
          6    2    1    2  501    0  0.52776310078E+01  0.14311601121E+03 -0.10659868762E+04  0.10891732216E+04  0.17163985669E+03 0.  0.
         24    2    3    3    0    0 -0.60810184755E+02  0.60631108919E+02 -0.53688689308E+03  0.54959909267E+03  0.80234760283E+02 0.  0.
         -6    2    1    2    0  502 -0.52776310078E+01 -0.14311601121E+03 -0.12678585769E+03  0.25622281241E+03  0.17048586403E+03 0.  0.
        -24    2    5    5    0    0 -0.52680130703E+02 -0.10851537813E+03 -0.38828635247E+02  0.15037970319E+03  0.80966713881E+02 0.  0.
          5    1    3    3  501    0  0.66087815763E+02  0.82484902292E+02 -0.52909998312E+03  0.53957412895E+03  0.47000000000E+01 0. -1.
        -13    1    4    4    0    0 -0.29143276611E+02  0.74933430079E+02 -0.42126553846E+03  0.42886944798E+03  0.00000000000E+00 0.  1.
         14    1    4    4    0    0 -0.31666908144E+02 -0.14302321160E+02 -0.11562135462E+03  0.12072964469E+03  0.00000000000E+00 0. -1.
         -5    1    5    5    0  502  0.47402499695E+02 -0.34600633083E+02 -0.87957222446E+02  0.10584310921E+03  0.47000000000E+01 0.  1.
         13    1    6    6    0    0 -0.48323443647E+02 -0.27776723465E+02 -0.41482246423E+02  0.69480057144E+02  0.00000000000E+00 0. -1.
        -14    1    6    6    0    0 -0.43566870562E+01 -0.80738654663E+02  0.26536111768E+01  0.80899646051E+02  0.00000000000E+00 0.  1.
</event>
<event>
12    1  0.9017558E-003  0.1852175E+03  0.7818608E-02  0.1163254E+00
         21   -1    0    0  503  502  0.00000000000E+00  0.00000000000E+00  0.33778912853E+02  0.33778912853E+02  0.00000000000E+00 0.  1.
         21   -1    0    0  501  503 -0.00000000000E+00 -0.00000000000E+00 -0.10130138204E+04  0.10130138204E+04  0.00000000000E+00 0.  1.
          6    2    1    2  501    0 -0.25226039605E+02 -0.62290969401E+02 -0.53519809455E+03  0.56634135449E+03  0.17259493461E+03 0.  0.
         24    2    3    3    0    0 -0.80971264217E+02 -0.56962057037E+02 -0.33545737917E+03  0.35884588285E+03  0.80235234300E+02 0.  0.
         -6    2    1    2    0  502  0.25226039605E+02  0.62290969401E+02 -0.44403681297E+03  0.48045137874E+03  0.17072878525E+03 0.  0.
        -24    2    5    5    0    0 -0.40062499590E+02  0.62637729735E+02 -0.20736188025E+03  0.23489114708E+03  0.81525533028E+02 0.  0.
          5    1    3    3  501    0  0.55745224612E+02 -0.53289123639E+01 -0.19974071537E+03  0.20749547164E+03  0.47000000000E+01 0. -1.
        -11    1    4    4    0    0  0.10290454805E+02  0.79562608768E+00 -0.55689984540E+01  0.11727754463E+02  0.00000000000E+00 0.  1.
         12    1    4    4    0    0 -0.91261719022E+02 -0.57757683125E+02 -0.32988838072E+03  0.34711812838E+03  0.00000000000E+00 0. -1.
         -5    1    5    5    0  502  0.65288539195E+02 -0.34676033469E+00 -0.23667493272E+03  0.24556023165E+03  0.47000000000E+01 0.  1.
         11    1    6    6    0    0 -0.39235933327E+02 -0.39631607400E+01 -0.47683162479E+02  0.61877694616E+02  0.00000000000E+00 0. -1.
        -12    1    6    6    0    0 -0.82656626299E+00  0.66600890475E+02 -0.15967871778E+03  0.17301345247E+03  0.00000000000E+00 0.  1.
</event>
<event>
12    1  0.9017558E-003  0.2140018E+03  0.7818608E-02  0.1138702E+00
         21   -1    0    0  503  502  0.00000000000E+00  0.00000000000E+00  0.44862519101E+03  0.44862519101E+03  0.00000000000E+00 0. -1.
         21   -1    0    0  501  503 -0.00000000000E+00 -0.00000000000E+00 -0.13983465026E+03  0.13983465026E+03  0.00000000000E+00 0.  1.
          6    2    1    2  501    0  0.12856489934E+03  0.13269390878E+01  0.30823187333E+03  0.37445731785E+03  0.16935377483E+03 0.  0.
         24    2    3    3    0    0  0.11990513368E+03 -0.34854280164E+02  0.30216449789E+03  0.33647080429E+03  0.79480541175E+02 0.  0.
         -6    2    1    2    0  502 -0.12856489934E+03 -0.13269390878E+01  0.55866742783E+00  0.21400252342E+03  0.17107329952E+03 0.  0.
        -24    2    5    5    0    0 -0.62250680121E+02  0.64695864244E+02  0.50341368262E+01  0.12020110521E+03  0.79763783354E+02 0.  0.
          5    1    3    3  501    0  0.86597656647E+01  0.36181219252E+02  0.60673754348E+01  0.37986513562E+02  0.47000000000E+01 0. -1.
        -11    1    4    4    0    0 -0.17867736379E+01 -0.22027154566E+02  0.78144936451E+02  0.81209723502E+02  0.00000000000E+00 0.  1.
         12    1    4    4    0    0  0.12169190731E+03 -0.12827125598E+02  0.22401956144E+03  0.25526108079E+03  0.00000000000E+00 0. -1.
         -5    1    5    5    0  502 -0.66314219220E+02 -0.66022803332E+02 -0.44754693983E+01  0.93801418203E+02  0.47000000000E+01 0.  1.
         11    1    6    6    0    0 -0.25723112504E+02  0.10034858588E+02  0.37748372346E+02  0.46768755795E+02  0.00000000000E+00 0. -1.
        -12    1    6    6    0    0 -0.36527567617E+02  0.54661005656E+02 -0.32714235520E+02  0.73432349418E+02  0.00000000000E+00 0.  1.
</event>
<event>
12    1  0.9017558E-003  0.2329725E+03  0.7818608E-02  0.1124627E+00
         21   -1    0    0  501  502  0.00000000000E+00  0.00000000000E+00  0.26697901097E+03  0.26697901097E+03  0.00000000000E+00 0.  1.
         21   -1    0    0  502  503 -0.00000000000E+00 -0.00000000000E+00 -0.25173571584E+03  0.25173571584E+03  0.00000000000E+00 0. -1.
          6    2    1    2  501    0 -0.14737253254E+03  0.53971007067E+02  0.12175027491E+03  0.26255089853E+03  0.17169249235E+03 0.  0.
         24    2    3    3    0    0 -0.12745499047E+03  0.29898584666E+02  0.15467715269E+03  0.21691692783E+03  0.77390128900E+02 0.  0.
         -6    2    1    2    0  503  0.14737253254E+03 -0.53971007067E+02 -0.10650697979E+03  0.25616382827E+03  0.17217618076E+03 0.  0.
        -24    2    5    5    0    0  0.15097746116E+03 -0.20118551301E+00 -0.10852830537E+03  0.20203098263E+03  0.79018292960E+02 0.  0.
          5    1    3    3  501    0 -0.19917542064E+02  0.24072422401E+02 -0.32926877780E+02  0.45633970707E+02  0.47000000000E+01 0. -1.
        -11    1    4    4    0    0 -0.32852568695E+02 -0.26080505124E+02  0.37737225018E+02  0.56423241395E+02  0.00000000000E+00 0.  1.
         12    1    4    4    0    0 -0.94602421779E+02  0.55979089791E+02  0.11693992767E+03  0.16049368643E+03  0.00000000000E+00 0. -1.
         -5    1    5    5    0  503 -0.36049286218E+01 -0.53769821554E+02  0.20213255842E+01  0.54132845643E+02  0.47000000000E+01 0.  1.
         11    1    6    6    0    0  0.77529042094E+02  0.30797099293E+02 -0.84560545570E+02  0.11878425636E+03  0.00000000000E+00 0. -1.
        -12    1    6    6    0    0  0.73448419066E+02 -0.30998284806E+02 -0.23967759800E+02  0.83246726266E+02  0.00000000000E+00 0.  1.
</event>
<event>
12    1  0.9017558E-003  0.1986422E+03  0.7818608E-02  0.1151022E+00
         21   -1    0    0  503  502  0.00000000000E+00  0.00000000000E+00  0.11680168717E+03  0.11680168717E+03  0.00000000000E+00 0.  1.
         21   -1    0    0  501  503 -0.00000000000E+00 -0.00000000000E+00 -0.34138958348E+03  0.34138958348E+03  0.00000000000E+00 0. -1.
          6    2    1    2  501    0 -0.73083826011E+02  0.65051503588E+02 -0.85472496828E+02  0.21567981672E+03  0.17216065718E+03 0.  0.
         24    2    3    3    0    0 -0.14119301610E+02  0.10020792503E+03 -0.48770358996E+02  0.13769311254E+03  0.79623252944E+02 0.  0.
         -6    2    1    2    0  502  0.73083826011E+02 -0.65051503588E+02 -0.13911539948E+03  0.24251145394E+03  0.17287500448E+03 0.  0.
        -24    2    5    5    0    0 -0.20825535526E+02 -0.63210855471E+02 -0.86965737921E+02  0.13497525831E+03  0.78904788218E+02 0.  0.
          5    1    3    3  501    0 -0.58964524401E+02 -0.35156421439E+02 -0.36702137832E+02  0.77986704172E+02  0.47000000000E+01 0. -1.
        -13    1    4    4    0    0 -0.37266864593E+01  0.61200889079E+02  0.14160159623E+02  0.62928110861E+02  0.00000000000E+00 0.  1.
         14    1    4    4    0    0 -0.10392615150E+02  0.39007035948E+02 -0.62930518619E+02  0.74765001683E+02  0.00000000000E+00 0. -1.
         -5    1    5    5    0  502  0.93909361537E+02 -0.18406481171E+01 -0.52149661563E+02  0.10753619563E+03  0.47000000000E+01 0.  1.
         11    1    6    6    0    0  0.73721995724E+01 -0.44166212359E+02 -0.90293295196E+02  0.10078632248E+03  0.00000000000E+00 0. -1.
        -12    1    6    6    0    0 -0.28197735099E+02 -0.19044643112E+02  0.33275572750E+01  0.34188935833E+02  0.00000000000E+00 0.  1.
</event>
<event>
12    1  0.9017558E-003  0.1724710E+03  0.7818608E-02  0.1175511E+00
         21   -1    0    0  501  502  0.00000000000E+00  0.00000000000E+00  0.38441624017E+02  0.38441624017E+02  0.00000000000E+00 0.  1.
         21   -1    0    0  502  503 -0.00000000000E+00 -0.00000000000E+00 -0.77011479622E+03  0.77011479622E+03  0.00000000000E+00 0.  1.
          6    2    1    2  501    0  0.65469461756E+01 -0.15315296727E+02 -0.37085754355E+03  0.40900067645E+03  0.17166483307E+03 0.  0.
         24    2    3    3    0    0 -0.14677774428E+02 -0.71818342743E+02 -0.27340170015E+03  0.29427136726E+03  0.80460154931E+02 0.  0.
         -6    2    1    2    0  503 -0.65469461756E+01  0.15315296727E+02 -0.36081562865E+03  0.39955574378E+03  0.17081994524E+03 0.  0.
        -24    2    5    5    0    0  0.37634419175E+02 -0.42451096778E+02 -0.13251375860E+03  0.15990436546E+03  0.69217517656E+02 0.  0.
          5    1    3    3  501    0  0.21224720604E+02  0.56503046016E+02 -0.97455843401E+02  0.11472930919E+03  0.47000000000E+01 0. -1.
        -11    1    4    4    0    0 -0.44278116467E+02 -0.21616279972E+02 -0.14805740512E+03  0.15604105347E+03  0.00000000000E+00 0.  1.
         12    1    4    4    0    0  0.29600342039E+02 -0.50202062771E+02 -0.12534429503E+03  0.13823031380E+03  0.00000000000E+00 0. -1.
         -5    1    5    5    0  503 -0.44181365351E+02  0.57766393505E+02 -0.22830187005E+03  0.23965137832E+03  0.47000000000E+01 0.  1.
         11    1    6    6    0    0 -0.82665911020E+01 -0.40008557125E+02 -0.43210914895E+02  0.59465993120E+02  0.00000000000E+00 0. -1.
        -12    1    6    6    0    0  0.45901010277E+02 -0.24425396524E+01 -0.89302843704E+02  0.10043837234E+03  0.00000000000E+00 0.  1.
</event>
<event>
12    1  0.9017558E-003  0.2197129E+03  0.7818608E-02  0.1134126E+00
         21   -1    0    0  501  502  0.00000000000E+00  0.00000000000E+00  0.40164026920E+03  0.40164026920E+03  0.00000000000E+00 0.  1.
         21   -1    0    0  502  503 -0.00000000000E+00 -0.00000000000E+00 -0.15147139888E+03  0.15147139888E+03  0.00000000000E+00 0. -1.
          6    2    1    2  501    0  0.13489861143E+03  0.17818539234E+02  0.25089516057E+03  0.33339752653E+03  0.17230900556E+03 0.  0.
         24    2    3    3    0    0  0.33487986577E+02  0.27956575967E+02  0.34871823375E+02  0.94493640350E+02  0.76223281327E+02 0.  0.
         -6    2    1    2    0  503 -0.13489861143E+03 -0.17818539234E+02 -0.72629025572E+00  0.21971414155E+03  0.17250692969E+03 0.  0.
        -24    2    5    5    0    0 -0.12176841145E+02 -0.95451967255E+00 -0.39840638112E+02  0.89725487175E+02  0.79461940799E+02 0.  0.
          5    1    3    3  501    0  0.10141062485E+03 -0.10138036733E+02  0.21602333719E+03  0.23890388618E+03  0.47000000000E+01 0. -1.
        -11    1    4    4    0    0  0.45097165240E+02  0.35365796394E+02  0.33425591440E+00  0.57311478730E+02  0.00000000000E+00 0.  1.
         12    1    4    4    0    0 -0.11609178663E+02 -0.74092204269E+01  0.34537567461E+02  0.37182161619E+02  0.00000000000E+00 0. -1.
         -5    1    5    5    0  503 -0.12272177028E+03 -0.16864019561E+02  0.39114347856E+02  0.12998865437E+03  0.47000000000E+01 0.  1.
         11    1    6    6    0    0 -0.43722251344E+02  0.70066755565E+01 -0.96035773973E+01  0.45309573644E+02  0.00000000000E+00 0. -1.
        -12    1    6    6    0    0  0.31545410199E+02 -0.79611952291E+01 -0.30237060715E+02  0.44415913531E+02  0.00000000000E+00 0.  1.
</event>
<event>
12    1  0.9017558E-003  0.1962002E+03  0.7818608E-02  0.1153225E+00
         21   -1    0    0  503  502  0.00000000000E+00  0.00000000000E+00  0.45997264967E+03  0.45997264967E+03  0.00000000000E+00 0. -1.
         21   -1    0    0  501  503 -0.00000000000E+00 -0.00000000000E+00 -0.14621473897E+03  0.14621473897E+03  0.00000000000E+00 0. -1.
          6    2    1    2  501    0 -0.92320343322E+02  0.15801045263E+02 -0.42320057325E+02  0.19963355666E+03  0.17114277919E+03 0.  0.
         24    2    3    3    0    0 -0.79120940252E+02  0.71885953483E+02 -0.14864365698E+02  0.13563632098E+03  0.82149550868E+02 0.  0.
         -6    2    1    2    0  502  0.92320343322E+02 -0.15801045263E+02  0.35607796802E+03  0.40655383199E+03  0.17240005850E+03 0.  0.
        -24    2    5    5    0    0  0.86011698234E+02 -0.36943291425E+02  0.12901803313E+03  0.17837605566E+03  0.80059636187E+02 0.  0.
          5    1    3    3  501    0 -0.13199403070E+02 -0.56084908221E+02 -0.27455691628E+02  0.63997235677E+02  0.47000000000E+01 0. -1.
        -13    1    4    4    0    0 -0.86264057270E+01  0.50958477361E+00 -0.32630629105E+02  0.33755481158E+02  0.00000000000E+00 0.  1.
         14    1    4    4    0    0 -0.70494534525E+02  0.71376368710E+02  0.17766263408E+02  0.10188083983E+03  0.00000000000E+00 0. -1.
         -5    1    5    5    0  502  0.63086450876E+01  0.21142246162E+02  0.22705993489E+03  0.22817777632E+03  0.47000000000E+01 0.  1.
         13    1    6    6    0    0  0.95260852484E+02 -0.27114238117E+02  0.13152665862E+03  0.16464833389E+03  0.00000000000E+00 0. -1.
        -14    1    6    6    0    0 -0.92491542498E+01 -0.98290533086E+01 -0.25086254880E+01  0.13727721775E+02  0.00000000000E+00 0.  1.
</event>
<event>
12    1  0.9017558E-003  0.2026782E+03  0.7818608E-02  0.1147543E+00
         21   -1    0    0  503  502  0.00000000000E+00  0.00000000000E+00  0.56159462102E+03  0.56159462102E+03  0.00000000000E+00 0. -1.
         21   -1    0    0  501  503 -0.00000000000E+00 -0.00000000000E+00 -0.77992778574E+02  0.77992778574E+02  0.00000000000E+00 0. -1.
          6    2    1    2  501    0 -0.53652725029E+02 -0.95085863619E+02  0.16132747684E+03  0.25887854955E+03  0.17050399488E+03 0.  0.
         24    2    3    3    0    0  0.24013217645E+02 -0.92642624781E+02  0.10374439854E+03  0.16204947864E+03  0.79610569335E+02 0.  0.
         -6    2    1    2    0  502  0.53652725029E+02  0.95085863619E+02  0.32227436561E+03  0.38070885005E+03  0.17075867595E+03 0.  0.
        -24    2    5    5    0    0  0.25077628964E+02  0.10768762201E+03  0.32192162811E+03  0.34912475827E+03  0.77646962483E+02 0.  0.
          5    1    3    3  501    0 -0.77665942674E+02 -0.24432388382E+01  0.57583078300E+02  0.96829070914E+02  0.47000000000E+01 0. -1.
        -13    1    4    4    0    0 -0.89701888921E+01 -0.86544259247E+02  0.55189180042E+02  0.10303503623E+03  0.00000000000E+00 0.  1.
         14    1    4    4    0    0  0.32983406537E+02 -0.60983655336E+01  0.48555218498E+02  0.59014442405E+02  0.00000000000E+00 0. -1.
         -5    1    5    5    0  502  0.28575096065E+02 -0.12601758390E+02  0.35273749765E+00  0.31584091777E+02  0.47000000000E+01 0.  1.
         11    1    6    6    0    0 -0.27025287773E+02  0.23229010519E+02  0.94424491457E+02  0.10092540659E+03  0.00000000000E+00 0. -1.
        -12    1    6    6    0    0  0.52102916737E+02  0.84458611490E+02  0.22749713665E+03  0.24819935168E+03  0.00000000000E+00 0.  1.
</event>
<event>
12    1  0.9017558E-003  0.2065360E+03  0.7818608E-02  0.1144621E+00
         21   -1    0    0  501  502  0.00000000000E+00  0.00000000000E+00  0.47637993114E+03  0.47637993114E+03  0.00000000000E+00 0. -1.
         21   -1    0    0  502  503 -0.00000000000E+00 -0.00000000000E+00 -0.10206831373E+03  0.10206831373E+03  0.00000000000E+00 0. -1.
          6    2    1    2  501    0  0.10172322220E+03 -0.48776131999E+02  0.82888560090E+02  0.22125848753E+03  0.17134199696E+03 0.  0.
         24    2    3    3    0    0  0.45597123676E+02  0.38308715949E+02  0.41210708954E+02  0.10948620585E+03  0.82111213201E+02 0.  0.
         -6    2    1    2    0  503 -0.10172322220E+03  0.48776131999E+02  0.29142305732E+03  0.35718975734E+03  0.17300404452E+03 0.  0.
        -24    2    5    5    0    0 -0.13367543132E+03  0.64187087878E+02  0.21768584133E+03  0.27522813064E+03  0.79839183305E+02 0.  0.
          5    1    3    3  501    0  0.56126098525E+02 -0.87084847948E+02  0.41677851135E+02  0.11177228168E+03  0.47000000000E+01 0. -1.
        -11    1    4    4    0    0  0.28786676013E+02  0.28753515876E+02  0.66312932830E+02  0.77800015756E+02  0.00000000000E+00 0.  1.
         12    1    4    4    0    0  0.16810447664E+02  0.95552000729E+01 -0.25102223876E+02  0.31686190093E+02  0.00000000000E+00 0. -1.
         -5    1    5    5    0  503  0.31952209122E+02 -0.15410955880E+02  0.73737215984E+02  0.81961626692E+02  0.47000000000E+01 0.  1.
         11    1    6    6    0    0 -0.11914638760E+03  0.27819505389E+02  0.19430391868E+03  0.22961663566E+03  0.00000000000E+00 0. -1.
        -12    1    6    6    0    0 -0.14529043723E+02  0.36367582489E+02  0.23381922657E+02  0.45611494985E+02  0.00000000000E+00 0.  1.
</event>
<event>
12    1  0.9017558E-003  0.2133335E+03  0.7818608E-02  0.1140171E+00
         21   -1    0    0  501  502  0.00000000000E+00  0.00000000000E+00  0.14871988551E+03  0.14871988551E+03  0.00000000000E+00 0. -1.
         21   -1    0    0  502  503 -0.00000000000E+00 -0.00000000000E+00 -0.38035152096E+03  0.38035152096E+03  0.00000000000E+00 0. -1.
          6    2    1    2  501    0 -0.41539125584E+02  0.12040020634E+03  0.91762701963E+01  0.20735784142E+03  0.16337491185E+03 0.  0.
         24    2    3    3    0    0  0.59871557256E+01  0.58724625714E+02  0.57040435572E+02  0.11583902921E+03  0.81735192540E+02 0.  0.
         -6    2    1    2    0  503  0.41539125584E+02 -0.12040020634E+03 -0.24080790564E+03  0.32171356505E+03  0.17114164273E+03 0.  0.
        -24    2    5    5    0    0 -0.20078061502E+02 -0.12667037882E+03 -0.17723757492E+03  0.23283572892E+03  0.79691939825E+02 0.  0.
          5    1    3    3  501    0 -0.47526281310E+02  0.61675580629E+02 -0.47864165375E+02  0.91518812209E+02  0.47000000000E+01 0. -1.
        -11    1    4    4    0    0  0.32654126905E+02  0.50640630456E+02  0.98786088467E+01  0.61060235584E+02  0.00000000000E+00 0.  1.
         12    1    4    4    0    0 -0.26666971179E+02  0.80839952585E+01  0.47161826725E+02  0.54778793627E+02  0.00000000000E+00 0. -1.
         -5    1    5    5    0  503  0.61617187086E+02  0.62701724753E+01 -0.63570330720E+02  0.88877836130E+02  0.47000000000E+01 0.  1.
         13    1    6    6    0    0 -0.30437746507E+01 -0.11011820790E+03 -0.89484790075E+02  0.14192537451E+03  0.00000000000E+00 0. -1.
        -14    1    6    6    0    0 -0.17034286851E+02 -0.16552170922E+02 -0.87752784844E+02  0.90910354409E+02  0.00000000000E+00 0.  1.
</event>
<event>
12    1  0.9017558E-003  0.2578094E+03  0.7818608E-02  0.1108473E+00
         21   -1    0    0  501  502  0.00000000000E+00  0.00000000000E+00  0.41060624053E+03  0.41060624053E+03  0.00000000000E+00 0.  1.
         21   -1    0    0  502  503 -0.00000000000E+00 -0.00000000000E+00 -0.31516177665E+03  0.31516177665E+03  0.00000000000E+00 0. -1.
          6    2    1    2  501    0 -0.13183514971E+03  0.13930115972E+03  0.30082089710E+03  0.39615439009E+03  0.17222011744E+03 0.  0.
         24    2    3    3    0    0 -0.83905721176E+02  0.10005320840E+03  0.29688601382E+03  0.33390324464E+03  0.79367858895E+02 0.  0.
         -6    2    1    2    0  503  0.13183514971E+03 -0.13930115972E+03 -0.20537643321E+03  0.32961362709E+03  0.17227984225E+03 0.  0.
        -24    2    5    5    0    0  0.10754090188E+03 -0.17063916192E+03 -0.18295898888E+03  0.28382156806E+03  0.79987009731E+02 0.  0.
          5    1    3    3  501    0 -0.47929428539E+02  0.39247951319E+02  0.39348832880E+01  0.62251145445E+02  0.47000000000E+01 0. -1.
        -13    1    4    4    0    0 -0.40227867292E+02  0.10033612681E+03  0.19306808939E+03  0.22127111603E+03  0.00000000000E+00 0.  1.
         14    1    4    4    0    0 -0.43677853884E+02 -0.28291840911E+00  0.10381792443E+03  0.11263212861E+03  0.00000000000E+00 0. -1.
         -5    1    5    5    0  503  0.24294247835E+02  0.31338002203E+02 -0.22417444340E+02  0.45792059035E+02  0.47000000000E+01 0.  1.
         11    1    6    6    0    0 -0.61150723130E+01 -0.48714441940E+02 -0.54709355466E+02  0.73509213970E+02  0.00000000000E+00 0. -1.
        -12    1    6    6    0    0  0.11365597419E+03 -0.12192471998E+03 -0.12824963341E+03  0.21031235409E+03  0.00000000000E+00 0.  1.
</event>
<event>
12    1  0.9017558E-003  0.4698611E+03  0.7818608E-02  0.1021976E+00
         21   -1    0    0  503  502  0.00000000000E+00  0.00000000000E+00  0.11329649337E+04  0.11329649337E+04  0.00000000000E+00 0. -1.
         21   -1    0    0  501  503 -0.00000000000E+00 -0.00000000000E+00 -0.22791159547E+03  0.22791159547E+03  0.00000000000E+00 0.  1.
          6    2    1    2  501    0  0.24315303109E+03  0.36321368120E+03  0.19291501332E+03  0.50769985858E+03  0.17174215936E+03 0.  0.
         24    2    3    3    0    0  0.20443106767E+03  0.26942503476E+03  0.20807422858E+03  0.40499838606E+03  0.79667416987E+02 0.  0.
         -6    2    1    2    0  502 -0.24315303109E+03 -0.36321368120E+03  0.71213832486E+03  0.85317667055E+03  0.17240029787E+03 0.  0.
        -24    2    5    5    0    0 -0.21028121456E+03 -0.23626041482E+03  0.58900982233E+03  0.67323110573E+03  0.79185719078E+02 0.  0.
          5    1    3    3  501    0  0.38721963419E+02  0.93788646433E+02 -0.15159215251E+02  0.10270147252E+03  0.47000000000E+01 0. -1.
        -13    1    4    4    0    0  0.18847071841E+03  0.24951598862E+03  0.16161405462E+03  0.35199224839E+03  0.00000000000E+00 0.  1.
         14    1    4    4    0    0  0.15960349260E+02  0.19909046139E+02  0.46460173956E+02  0.53006137670E+02  0.00000000000E+00 0. -1.
         -5    1    5    5    0  502 -0.32871816525E+02 -0.12695326638E+03  0.12312850253E+03  0.17994556482E+03  0.47000000000E+01 0.  1.
         11    1    6    6    0    0 -0.12503478501E+03 -0.11746782331E+03  0.24168656046E+03  0.29638620157E+03  0.00000000000E+00 0. -1.
        -12    1    6    6    0    0 -0.85246429549E+02 -0.11879259151E+03  0.34732326187E+03  0.37684490415E+03  0.00000000000E+00 0.  1.
</event>
<event>
12    1  0.9017558E-003  0.2014523E+03  0.7818608E-02  0.1148914E+00
         21   -1    0    0  501  502  0.00000000000E+00  0.00000000000E+00  0.23745681739E+03  0.23745681739E+03  0.00000000000E+00 0. -1.
         21   -1    0    0  502  503 -0.00000000000E+00 -0.00000000000E+00 -0.19538143352E+03  0.19538143352E+03  0.00000000000E+00 0. -1.
          6    2    1    2  501    0  0.10098086014E+03 -0.21726865560E+02  0.10016742627E+03  0.22498124857E+03  0.17295623181E+03 0.  0.
         24    2    3    3    0    0  0.12564412661E+03  0.11894037269E+02  0.10679197118E+03  0.18250047156E+03  0.77291541171E+02 0.  0.
         -6    2    1    2    0  503 -0.10098086014E+03  0.21726865560E+02 -0.58092042391E+02  0.20785700234E+03  0.17076491804E+03 0.  0.
        -24    2    5    5    0    0 -0.19759866211E+02  0.66055944501E+02 -0.42769210485E+01  0.10071189336E+03  0.73285423472E+02 0.  0.
          5    1    3    3  501    0 -0.24663266473E+02 -0.33620902829E+02 -0.66245449109E+01  0.42480777011E+02  0.47000000000E+01 0. -1.
        -13    1    4    4    0    0  0.71389349556E+02  0.39099405662E+02  0.85833053812E+02  0.11828996525E+03  0.00000000000E+00 0.  1.
         14    1    4    4    0    0  0.54254777056E+02 -0.27205368392E+02  0.20958917364E+02  0.64210506304E+02  0.00000000000E+00 0. -1.
         -5    1    5    5    0  503 -0.81220993928E+02 -0.44329078941E+02 -0.53815121342E+02  0.10714510899E+03  0.47000000000E+01 0.  1.
         11    1    6    6    0    0  0.34713245631E+01  0.55928830994E+02  0.25538176571E+02  0.61581512592E+02  0.00000000000E+00 0. -1.
        -12    1    6    6    0    0 -0.23231190774E+02  0.10127113507E+02 -0.29815097620E+02  0.39130380765E+02  0.00000000000E+00 0.  1.
</event>
<event>
12    1  0.9017558E-003  0.1952101E+03  0.7818608E-02  0.1154391E+00
         21   -1    0    0  501  502  0.00000000000E+00  0.00000000000E+00  0.74845709304E+03  0.74845709304E+03  0.00000000000E+00 0.  1.
         21   -1    0    0  502  503 -0.00000000000E+00 -0.00000000000E+00 -0.57882371466E+02  0.57882371466E+02  0.00000000000E+00 0. -1.
          6    2    1    2  501    0 -0.13048374513E+02 -0.86957932788E+02  0.49346581397E+03  0.53067455531E+03  0.17428434221E+03 0.  0.
         24    2    3    3    0    0 -0.35686141408E+02  0.51734826442E+01  0.31620392000E+03  0.32956628782E+03  0.85608138801E+02 0.  0.
         -6    2    1    2    0  503  0.13048374513E+02  0.86957932788E+02  0.19710890760E+03  0.27566490920E+03  0.17148550538E+03 0.  0.
        -24    2    5    5    0    0 -0.13304124517E+02  0.56294070577E+02  0.20915283962E+03  0.23321643514E+03  0.85434028279E+02 0.  0.
          5    1    3    3  501    0  0.22637766894E+02 -0.92131415433E+02  0.17726189397E+03  0.20110826749E+03  0.47000000000E+01 0. -1.
        -13    1    4    4    0    0  0.27175533520E+02 -0.86484422545E+01  0.94794590244E+02  0.98991512339E+02  0.00000000000E+00 0.  1.
         14    1    4    4    0    0 -0.62861674928E+02  0.13821924899E+02  0.22140932976E+03  0.23057477548E+03  0.00000000000E+00 0. -1.
         -5    1    5    5    0  503  0.26352499031E+02  0.30663862212E+02 -0.12043932022E+02  0.42448474053E+02  0.47000000000E+01 0.  1.
         11    1    6    6    0    0 -0.39642229020E+02  0.18429003970E+01  0.56750797026E+02  0.69249949939E+02  0.00000000000E+00 0. -1.
        -12    1    6    6    0    0  0.26338104503E+02  0.54451170180E+02  0.15240204260E+03  0.16396648520E+03  0.00000000000E+00 0.  1.
</event>
<event>
12    1  0.9017558E-003  0.2387635E+03  0.7818608E-02  0.1120818E+00
         21   -1    0    0  503  502  0.00000000000E+00  0.00000000000E+00  0.56258774706E+03  0.56258774706E+03  0.00000000000E+00 0. -1.
         21   -1    0    0  501  503 -0.00000000000E+00 -0.00000000000E+00 -0.11259908232E+03  0.11259908232E+03  0.00000000000E+00 0. -1.
          6    2    1    2  501    0 -0.14293414319E+03  0.82810090571E+02  0.33462867477E+03  0.41107709400E+03  0.17239590146E+03 0.  0.
         24    2    3    3    0    0 -0.11545094275E+03  0.12505351889E+03  0.26825958212E+03  0.32760985490E+03  0.79985691595E+02 0.  0.
         -6    2    1    2    0  502  0.14293414319E+03 -0.82810090571E+02  0.11535998997E+03  0.26410973538E+03  0.17075814666E+03 0.  0.
        -24    2    5    5    0    0  0.10883337469E+03 -0.90896052847E+01  0.12207537670E+03  0.18247176149E+03  0.80412820959E+02 0.  0.
          5    1    3    3  501    0 -0.27483200438E+02 -0.42243428324E+02  0.66369092649E+02  0.83467239094E+02  0.47000000000E+01 0. -1.
        -13    1    4    4    0    0 -0.26687093260E+01  0.41929723065E+02  0.31538211616E+02  0.52534583635E+02  0.00000000000E+00 0.  1.
         14    1    4    4    0    0 -0.11278223343E+03  0.83123795830E+02  0.23672137051E+03  0.27507527127E+03  0.00000000000E+00 0. -1.
         -5    1    5    5    0  502  0.34100768497E+02 -0.73720485286E+02 -0.67153867248E+01  0.81637973896E+02  0.47000000000E+01 0.  1.
         13    1    6    6    0    0  0.57506223866E+02 -0.42946460088E+02  0.48681797149E+02  0.86725322663E+02  0.00000000000E+00 0. -1.
        -14    1    6    6    0    0  0.51327150826E+02  0.33856854804E+02  0.73393579547E+02  0.95746438826E+02  0.00000000000E+00 0.  1.
</event>
<event>
12    1  0.9017558E-003  0.3144426E+03  0.7818608E-02  0.1078521E+00
         21   -1    0    0  501  502  0.00000000000E+00  0.00000000000E+00  0.24587976430E+03  0.24587976430E+03  0.00000000000E+00 0.  1.
         21   -1    0    0  502  503 -0.00000000000E+00 -0.00000000000E+00 -0.57909492179E+03  0.57909492179E+03  0.00000000000E+00 0. -1.
          6    2    1    2  501    0  0.25998368928E+03  0.99085480038E+01  0.62954967764E+02  0.32068285962E+03  0.17659125253E+03 0.  0.
         24    2    3    3    0    0  0.16859248556E+03 -0.54336331998E+02 -0.47902565760E+01  0.18994930560E+03  0.68424622612E+02 0.  0.
         -6    2    1    2    0  503 -0.25998368928E+03 -0.99085480038E+01 -0.39617012525E+03  0.50429182647E+03  0.17224918025E+03 0.  0.
        -24    2    5    5    0    0 -0.87628553437E+02  0.16495599342E+02 -0.24836064288E+03  0.27565848480E+03  0.79710244847E+02 0.  0.
          5    1    3    3  501    0  0.91391203725E+02  0.64244880002E+02  0.67745224340E+02  0.13073355402E+03  0.47000000000E+01 0. -1.
        -11    1    4    4    0    0  0.10147077978E+03  0.16350500556E+01  0.71770878610E+01  0.10173742246E+03  0.00000000000E+00 0.  1.
         12    1    4    4    0    0  0.67121705776E+02 -0.55971382054E+02 -0.11967344437E+02  0.88211883146E+02  0.00000000000E+00 0. -1.
         -5    1    5    5    0  503 -0.17235513584E+03 -0.26404147346E+02 -0.14780948236E+03  0.22863334167E+03  0.47000000000E+01 0.  1.
         13    1    6    6    0    0 -0.57826963375E+02 -0.27382421651E+02 -0.16363690283E+03  0.17570085565E+03  0.00000000000E+00 0. -1.
        -14    1    6    6    0    0 -0.29801590063E+02  0.43878020993E+02 -0.84723740054E+02  0.99957629149E+02  0.00000000000E+00 0.  1.
</event>
<event>
12    1  0.9017558E-003  0.2130760E+03  0.7818608E-02  0.1139186E+00
         21   -1    0    0  501  502  0.00000000000E+00  0.00000000000E+00  0.98555430778E+03  0.98555430778E+03  0.00000000000E+00 0. -1.
         21   -1    0    0  502  503 -0.00000000000E+00 -0.00000000000E+00 -0.28414758238E+03  0.28414758238E+03  0.00000000000E+00 0. -1.
          6    2    1    2  501    0 -0.63080094478E+01  0.12558748209E+03  0.93184033424E+03  0.95585313669E+03  0.17180455107E+03 0.  0.
         24    2    3    3    0    0  0.25352217100E+01 -0.58651984884E+01  0.30900794103E+03  0.31922114724E+03  0.79846135287E+02 0.  0.
         -6    2    1    2    0  503  0.63080094478E+01 -0.12558748209E+03 -0.23043360884E+03  0.31384875347E+03  0.17201565432E+03 0.  0.
        -24    2    5    5    0    0 -0.59392100854E+02 -0.41246486039E+02 -0.13517437827E+03  0.17057866197E+03  0.74808242367E+02 0.  0.
          5    1    3    3  501    0 -0.88432311578E+01  0.13145268057E+03  0.62283239321E+03  0.63663198946E+03  0.47000000000E+01 0. -1.
        -13    1    4    4    0    0  0.23887495927E+02  0.12465633148E+02  0.26877950518E+03  0.27012668672E+03  0.00000000000E+00 0.  1.
         14    1    4    4    0    0 -0.21352274217E+02 -0.18330831636E+02  0.40228435850E+02  0.49094460519E+02  0.00000000000E+00 0. -1.
         -5    1    5    5    0  503  0.65700110301E+02 -0.84340996047E+02 -0.95259230566E+02  0.14327009149E+03  0.47000000000E+01 0.  1.
         13    1    6    6    0    0 -0.54187545609E+02 -0.62124531095E+02 -0.10999880235E+03  0.13746084526E+03  0.00000000000E+00 0. -1.
        -14    1    6    6    0    0 -0.52045552450E+01  0.20878045056E+02 -0.25175575923E+02  0.33117816711E+02  0.00000000000E+00 0.  1.
</event>
<event>
12    1  0.9017558E-003  0.2325340E+03  0.7818608E-02  0.1127463E+00
         21   -1    0    0  503  502  0.00000000000E+00  0.00000000000E+00  0.14499680778E+04  0.14499680778E+04  0.00000000000E+00 0. -1.
         21   -1    0    0  501  503 -0.00000000000E+00 -0.00000000000E+00 -0.70845598113E+02  0.70845598113E+02  0.00000000000E+00 0. -1.
          6    2    1    2  501    0  0.11674459489E+03 -0.62727470585E+02  0.15981825391E+03  0.28215938711E+03  0.19107069229E+03 0.  0.
         24    2    3    3    0    0  0.10185322189E+03 -0.21701709599E+02  0.17896453606E+02  0.13360383032E+03  0.81759754254E+02 0.  0.
         -6    2    1    2    0  502 -0.11674459489E+03  0.62727470585E+02  0.12193042258E+04  0.12386542888E+04  0.17319819906E+03 0.  0.
        -24    2    5    5    0    0 -0.55345741713E+01  0.51812504389E+02  0.77575470967E+03  0.78122115878E+03  0.76131217210E+02 0.  0.
          5    1    3    3  501    0  0.14891373004E+02 -0.41025760986E+02  0.14192180030E+03  0.14855555680E+03  0.47000000000E+01 0. -1.
        -11    1    4    4    0    0  0.37127898066E+02  0.15654964291E+02 -0.25016048408E+02  0.47427432986E+02  0.00000000000E+00 0.  1.
         12    1    4    4    0    0  0.64725323820E+02 -0.37356673889E+02  0.42912502014E+02  0.86176397330E+02  0.00000000000E+00 0. -1.
         -5    1    5    5    0  502 -0.11121002072E+03  0.10914966196E+02  0.44354951610E+03  0.45743313000E+03  0.47000000000E+01 0.  1.
         11    1    6    6    0    0  0.20177947120E+01 -0.12753978508E+02  0.37549049255E+03  0.37571245050E+03  0.00000000000E+00 0. -1.
        -12    1    6    6    0    0 -0.75523688834E+01  0.64566482896E+02  0.40026421712E+03  0.40550870828E+03  0.00000000000E+00 0.  1.
</event>
<event>
12    1  0.9017558E-003  0.1776920E+03  0.7818608E-02  0.1170504E+00
         21   -1    0    0  503  502  0.00000000000E+00  0.00000000000E+00  0.64486714523E+03  0.64486714523E+03  0.00000000000E+00 0. -1.
         21   -1    0    0  501  503 -0.00000000000E+00 -0.00000000000E+00 -0.58830901071E+02  0.58830901071E+02  0.00000000000E+00 0. -1.
          6    2    1    2  501    0  0.15547159721E+02 -0.42726514644E+02  0.14656227801E+03  0.23033659904E+03  0.17177653592E+03 0.  0.
         24    2    3    3    0    0 -0.27049675239E+02 -0.71993564656E+02  0.52370462081E+02  0.12279479901E+03  0.80132010355E+02 0.  0.
         -6    2    1    2    0  502 -0.15547159721E+02  0.42726514644E+02  0.43947396615E+03  0.47336144726E+03  0.16990121718E+03 0.  0.
        -24    2    5    5    0    0 -0.51767930691E+02  0.63011658369E+02  0.40133760670E+03  0.41679376021E+03  0.77425940511E+02 0.  0.
          5    1    3    3  501    0  0.42596834961E+02  0.29267050013E+02  0.94191815926E+02  0.10754180002E+03  0.47000000000E+01 0. -1.
        -13    1    4    4    0    0 -0.30582163453E+02 -0.72697518314E+01  0.48581103241E+02  0.57863992303E+02  0.00000000000E+00 0.  1.
         14    1    4    4    0    0  0.35324882135E+01 -0.64723812825E+02  0.37893588401E+01  0.64930806710E+02  0.00000000000E+00 0. -1.
         -5    1    5    5    0  502  0.36220770970E+02 -0.20285143725E+02  0.38136359449E+02  0.56567687045E+02  0.47000000000E+01 0.  1.
         13    1    6    6    0    0  0.16856354233E+02  0.33105593768E+02  0.15105745593E+03  0.15555858063E+03  0.00000000000E+00 0. -1.
        -14    1    6    6    0    0 -0.68624284925E+02  0.29906064601E+02  0.25028015077E+03  0.26123517958E+03  0.00000000000E+00 0.  1.
</event>
<event>
12    1  0.9017558E-003  0.2654042E+03  0.7818608E-02  0.1103995E+00
         21   -1    0    0  503  502  0.00000000000E+00  0.00000000000E+00  0.39344196044E+03  0.39344196044E+03  0.00000000000E+00 0.  1.
         21   -1    0    0  501  503 -0.00000000000E+00 -0.00000000000E+00 -0.22862652498E+03  0.22862652498E+03  0.00000000000E+00 0. -1.
          6    2    1    2  501    0  0.67924486331E+01  0.20122958418E+03 -0.62876668808E+02  0.27237848531E+03  0.17232840993E+03 0.  0.
         24    2    3    3    0    0 -0.40798511723E+02  0.64713564125E+02  0.14760994244E+02  0.10821021808E+03  0.75094609696E+02 0.  0.
         -6    2    1    2    0  502 -0.67924486331E+01 -0.20122958418E+03  0.22769210427E+03  0.34969000012E+03  0.17291593022E+03 0.  0.
        -24    2    5    5    0    0 -0.37185899512E+02 -0.19001429560E+03  0.12943844509E+03  0.24612641531E+03  0.79596969736E+02 0.  0.
          5    1    3    3  501    0  0.47590960356E+02  0.13651602006E+03 -0.77637663052E+02  0.16416826723E+03  0.47000000000E+01 0. -1.
        -13    1    4    4    0    0 -0.35351206118E+02  0.22256074878E+01 -0.15383799355E+02  0.38617643446E+02  0.00000000000E+00 0.  1.
         14    1    4    4    0    0 -0.54473056042E+01  0.62487956637E+02  0.30144793600E+02  0.69592574634E+02  0.00000000000E+00 0. -1.
         -5    1    5    5    0  502  0.30393450879E+02 -0.11215288578E+02  0.98253659185E+02  0.10356358480E+03  0.47000000000E+01 0.  1.
         13    1    6    6    0    0 -0.19958651204E+02 -0.39523124015E+02 -0.37360523882E+01  0.44434031746E+02  0.00000000000E+00 0. -1.
        -14    1    6    6    0    0 -0.17227248308E+02 -0.15049117159E+03  0.13317449748E+03  0.20169238357E+03  0.00000000000E+00 0.  1.
</event>
<event>
12    1  0.9017558E-003  0.1835950E+03  0.7818608E-02  0.1165554E+00
         21   -1    0    0  503  502  0.00000000000E+00  0.00000000000E+00  0.94199441360E+03  0.94199441360E+03  0.00000000000E+00 0.  1.
         21   -1    0    0  501  503 -0.00000000000E+00 -0.00000000000E+00 -0.39041984936E+02  0.39041984936E+02  0.00000000000E+00 0.  1.
          6    2    1    2  501    0 -0.27334758397E+02 -0.44017035167E+02  0.29576206715E+03  0.34811251931E+03  0.17613187483E+03 0.  0.
         24    2    3    3    0    0  0.31123422793E+02 -0.27236009181E+01  0.24624602261E+03  0.26095498764E+03  0.80525253629E+02 0.  0.
         -6    2    1    2    0  502  0.27334758397E+02  0.44017035167E+02  0.60719036152E+03  0.63292387923E+03  0.17096143829E+03 0.  0.
        -24    2    5    5    0    0 -0.40031119546E+02  0.30839795276E+02  0.45160999869E+03  0.46280879918E+03  0.87674455691E+02 0.  0.
          5    1    3    3  501    0 -0.58458181190E+02 -0.41293434249E+02  0.49516044534E+02  0.87157531668E+02  0.47000000000E+01 0. -1.
        -11    1    4    4    0    0  0.25695816661E+02 -0.17184046053E+02  0.26643121151E+02  0.40809586341E+02  0.00000000000E+00 0.  1.
         12    1    4    4    0    0  0.54276061320E+01  0.14460445135E+02  0.21960290146E+03  0.22014540130E+03  0.00000000000E+00 0. -1.
         -5    1    5    5    0  502  0.67365877943E+02  0.13177239891E+02  0.15558036283E+03  0.17011508005E+03  0.47000000000E+01 0.  1.
         11    1    6    6    0    0  0.13325976988E+02 -0.22218234174E+02  0.12140067621E+03  0.12413442624E+03  0.00000000000E+00 0. -1.
        -12    1    6    6    0    0 -0.53357096534E+02  0.53058029451E+02  0.33020932248E+03  0.33867437294E+03  0.00000000000E+00 0.  1.
</event>
<event>
12    1  0.9017558E-003  0.1860667E+03  0.7818608E-02  0.1164761E+00
         21   -1    0    0  503  502  0.00000000000E+00  0.00000000000E+00  0.38862891779E+03  0.38862891779E+03  0.00000000000E+00 0. -1.
         21   -1    0    0  501  503 -0.00000000000E+00 -0.00000000000E+00 -0.21320165791E+03  0.21320165791E+03  0.00000000000E+00 0. -1.
          6    2    1    2  501    0  0.98652869284E+01  0.31531418027E+02 -0.14778494339E+03  0.22888693731E+03  0.17163125115E+03 0.  0.
         24    2    3    3    0    0 -0.32591842904E+02  0.93402302279E+00 -0.15086538041E+02  0.86164250833E+02  0.78317136495E+02 0.  0.
         -6    2    1    2    0  502 -0.98652869284E+01 -0.31531418027E+02  0.32321220326E+03  0.37294363838E+03  0.18311000755E+03 0.  0.
        -24    2    5    5    0    0 -0.16676813753E+02  0.49977609655E+02  0.11569393727E+03  0.14983819423E+03  0.79312796853E+02 0.  0.
          5    1    3    3  501    0  0.42457129832E+02  0.30597395004E+02 -0.13269840535E+03  0.14272268648E+03  0.47000000000E+01 0. -1.
        -13    1    4    4    0    0  0.25053445493E+02 -0.74378590760E-02  0.41330432794E+01  0.25392070281E+02  0.00000000000E+00 0.  1.
         14    1    4    4    0    0 -0.57645288397E+02  0.94146088186E+00 -0.19219581320E+02  0.60772180552E+02  0.00000000000E+00 0. -1.
         -5    1    5    5    0  502  0.68115268245E+01 -0.81509027682E+02  0.20751826600E+03  0.22310544416E+03  0.47000000000E+01 0.  1.
         11    1    6    6    0    0 -0.16310157714E+02 -0.19477928267E+02  0.25445101232E+02  0.35956419607E+02  0.00000000000E+00 0. -1.
        -12    1    6    6    0    0 -0.36665603877E+00  0.69455537922E+02  0.90248836035E+02  0.11388177462E+03  0.00000000000E+00 0.  1.
</event>
<event>
12    1  0.9017558E-003  0.1852941E+03  0.7818608E-02  0.1162901E+00
         21   -1    0    0  503  502  0.00000000000E+00  0.00000000000E+00  0.23915063899E+03  0.23915063899E+03  0.00000000000E+00 0.  1.
         21   -1    0    0  501  503 -0.00000000000E+00 -0.00000000000E+00 -0.15613584272E+03  0.15613584272E+03  0.00000000000E+00 0.  1.
          6    2    1    2  501    0 -0.39034341174E+02 -0.54883852342E+02 -0.15436847380E+02  0.18593603293E+03  0.17262095773E+03 0.  0.
         24    2    3    3    0    0 -0.32305922078E+02 -0.47267626927E+02 -0.66015376371E+02  0.13413298179E+03  0.10176308628E+03 0.  0.
         -6    2    1    2    0  502  0.39034341174E+02  0.54883852342E+02  0.98451643647E+02  0.20935044878E+03  0.17204350388E+03 0.  0.
        -24    2    5    5    0    0  0.40557510412E+02 -0.30836795904E+02  0.27363660317E+02  0.97878744051E+02  0.78966188958E+02 0.  0.
          5    1    3    3  501    0 -0.67284190954E+01 -0.76162254150E+01  0.50578528991E+02  0.51803051146E+02  0.47000000000E+01 0. -1.
        -11    1    4    4    0    0  0.26281860726E+02  0.89195804908E+01 -0.40393477458E+02  0.49009469906E+02  0.00000000000E+00 0.  1.
         12    1    4    4    0    0 -0.58587782804E+02 -0.56187207418E+02 -0.25621898913E+02  0.85123511883E+02  0.00000000000E+00 0. -1.
         -5    1    5    5    0  502 -0.15231692388E+01  0.85720648246E+02  0.71087983329E+02  0.11147170472E+03  0.47000000000E+01 0.  1.
         13    1    6    6    0    0  0.15598189600E+01  0.36358817541E+01 -0.24253735967E+02  0.24574303239E+02  0.00000000000E+00 0. -1.
        -14    1    6    6    0    0  0.38997691452E+02 -0.34472677658E+02  0.51617396285E+02  0.73304440812E+02  0.00000000000E+00 0.  1.
</event>
<event>
12    1  0.9017558E-003  0.3344145E+03  0.7818608E-02  0.1069449E+00
         21   -1    0    0  503  502  0.00000000000E+00  0.00000000000E+00  0.77432387644E+03  0.77432387644E+03  0.00000000000E+00 0.  1.
         21   -1    0    0  501  503 -0.00000000000E+00 -0.00000000000E+00 -0.18455120379E+03  0.18455120379E+03  0.00000000000E+00 0. -1.
          6    2    1    2  501    0  0.27756473439E+03  0.64466197647E+02  0.67825396702E+02  0.33898636994E+03  0.17062649896E+03 0.  0.
         24    2    3    3    0    0  0.16966867012E+03  0.38978500404E+02 -0.34121477521E+02  0.18829981260E+03  0.63132900184E+02 0.  0.
         -6    2    1    2    0  502 -0.27756473439E+03 -0.64466197647E+02  0.52194727595E+03  0.61988871030E+03  0.17502851730E+03 0.  0.
        -24    2    5    5    0    0 -0.24196022612E+03 -0.10382798729E+03  0.39082601655E+03  0.47835459371E+03  0.82177491665E+02 0.  0.
          5    1    3    3  501    0  0.10789606427E+03  0.25487697243E+02  0.10194687422E+03  0.15068655733E+03  0.47000000000E+01 0. -1.
        -11    1    4    4    0    0  0.99343631372E+02 -0.29161334942E+01 -0.37867147715E+02  0.10635592040E+03  0.00000000000E+00 0.  1.
         12    1    4    4    0    0  0.70325038743E+02  0.41894633898E+02  0.37456701931E+01  0.81943892200E+02  0.00000000000E+00 0. -1.
         -5    1    5    5    0  502 -0.35604508268E+02  0.39361789645E+02  0.13112125940E+03  0.14153411659E+03  0.47000000000E+01 0.  1.
         11    1    6    6    0    0 -0.12732605111E+03 -0.63891194564E+02  0.14018646165E+03  0.19986558499E+03  0.00000000000E+00 0. -1.
        -12    1    6    6    0    0 -0.11463417501E+03 -0.39936792728E+02  0.25063955490E+03  0.27848900871E+03  0.00000000000E+00 0.  1.
</event>
<event>
12    1  0.9017558E-003  0.1794644E+03  0.7818608E-02  0.1168583E+00
         21   -1    0    0  501  502  0.00000000000E+00  0.00000000000E+00  0.12185131295E+04  0.12185131295E+04  0.00000000000E+00 0. -1.
         21   -1    0    0  502  503 -0.00000000000E+00 -0.00000000000E+00 -0.33683342399E+02  0.33683342399E+02  0.00000000000E+00 0. -1.
          6    2    1    2  501    0  0.24198162994E+02 -0.46393027885E+02  0.88467210666E+03  0.90247929451E+03  0.17054699234E+03 0.  0.
         24    2    3    3    0    0  0.20490584343E+02  0.31246639103E+02  0.63350017106E+03  0.63951333614E+03  0.79111464838E+02 0.  0.
         -6    2    1    2    0  503 -0.24198162994E+02  0.46393027885E+02  0.30015768042E+03  0.34971717736E+03  0.17166713984E+03 0.  0.
        -24    2    5    5    0    0 -0.56615672244E+02  0.84783989408E+02  0.23031825578E+03  0.26355224211E+03  0.77586249901E+02 0.  0.
          5    1    3    3  501    0  0.37075786512E+01 -0.77639666988E+02  0.25117193560E+03  0.26296595837E+03  0.47000000000E+01 0. -1.
        -13    1    4    4    0    0  0.25651297331E+02  0.56322856615E+02  0.44961494573E+03  0.45385443994E+03  0.00000000000E+00 0.  1.
         14    1    4    4    0    0 -0.51607129887E+01 -0.25076217512E+02  0.18388522533E+03  0.18565889620E+03  0.00000000000E+00 0. -1.
         -5    1    5    5    0  503  0.32417509251E+02 -0.38390961522E+02  0.69839424640E+02  0.86164935250E+02  0.47000000000E+01 0.  1.
         11    1    6    6    0    0 -0.22310378194E+02 -0.85706784306E+01  0.21035907611E+02  0.31838952761E+02  0.00000000000E+00 0. -1.
        -12    1    6    6    0    0 -0.34305294051E+02  0.93354667838E+02  0.20928234817E+03  0.23171328935E+03  0.00000000000E+00 0.  1.
</event>
<event>
12    1  0.9017558E-003  0.1764861E+03  0.7818608E-02  0.1171489E+00
         21   -1    0    0  503  502  0.00000000000E+00  0.00000000000E+00  0.25601584455E+02  0.25601584455E+02  0.00000000000E+00 0. -1.
         21   -1    0    0  501  503 -0.00000000000E+00 -0.00000000000E+00 -0.12155926589E+04  0.12155926589E+04  0.00000000000E+00 0. -1.
          6    2    1    2  501    0 -0.35815555879E+02  0.62468270472E+01 -0.63566026647E+03  0.65944689935E+03  0.17171040097E+03 0.  0.
         24    2    3    3    0    0  0.30311725198E+02 -0.35848848355E+02 -0.40333193943E+03  0.41420537608E+03  0.81764904428E+02 0.  0.
         -6    2    1    2    0  502  0.35815555879E+02 -0.62468270472E+01 -0.55433080792E+03  0.58174734396E+03  0.17270075476E+03 0.  0.
        -24    2    5    5    0    0 -0.40856472479E+01 -0.19346755184E+02 -0.52215824549E+03  0.52863540648E+03  0.80094757676E+02 0.  0.
          5    1    3    3  501    0 -0.66127281077E+02  0.42095675402E+02 -0.23232832704E+03  0.24524152327E+03  0.47000000000E+01 0. -1.
        -11    1    4    4    0    0  0.19600583865E+02 -0.29757647343E+02 -0.54248585206E+02  0.64904618172E+02  0.00000000000E+00 0.  1.
         12    1    4    4    0    0  0.10711141333E+02 -0.60912010122E+01 -0.34908335423E+03  0.34930075791E+03  0.00000000000E+00 0. -1.
         -5    1    5    5    0  502  0.39901203127E+02  0.13099928137E+02 -0.32172562436E+02  0.53111937471E+02  0.47000000000E+01 0.  1.
         13    1    6    6    0    0  0.16351220311E+02  0.26327689696E+02 -0.15356004164E+03  0.15665629907E+03  0.00000000000E+00 0. -1.
        -14    1    6    6    0    0 -0.20436867559E+02 -0.45674444881E+02 -0.36859820385E+03  0.37197910741E+03  0.00000000000E+00 0.  1.
</event>
<event>
12    1  0.9017558E-003  0.1866153E+03  0.7818608E-02  0.1161693E+00
         21   -1    0    0  501  502  0.00000000000E+00  0.00000000000E+00  0.29499313227E+03  0.29499313227E+03  0.00000000000E+00 0.  1.
         21   -1    0    0  502  503 -0.00000000000E+00 -0.00000000000E+00 -0.15856464330E+03  0.15856464330E+03  0.00000000000E+00 0.  1.
          6    2    1    2  501    0  0.54045246540E+02 -0.41206069179E+02  0.18330681117E+03  0.26114456498E+03  0.17313655878E+03 0.  0.
         24    2    3    3    0    0 -0.24604282079E+02 -0.37400157151E+02  0.14941095829E+03  0.17528856833E+03  0.79989407290E+02 0.  0.
         -6    2    1    2    0  503 -0.54045246540E+02  0.41206069179E+02 -0.46878322205E+02  0.19241321059E+03  0.17379999340E+03 0.  0.
        -24    2    5    5    0    0 -0.46890258361E+02 -0.26834260176E+02  0.17330847633E+02  0.98468611135E+02  0.80479408863E+02 0.  0.
          5    1    3    3  501    0  0.78649528620E+02 -0.38059120276E+01  0.33895852884E+02  0.85855996652E+02  0.47000000000E+01 0. -1.
        -13    1    4    4    0    0  0.23211559951E+02 -0.31975816555E+02  0.93584790076E+02  0.10158416359E+03  0.00000000000E+00 0.  1.
         14    1    4    4    0    0 -0.47815842030E+02 -0.54243405965E+01  0.55826168215E+02  0.73704404736E+02  0.00000000000E+00 0. -1.
         -5    1    5    5    0  503 -0.71549881791E+01  0.68040329355E+02 -0.64209169838E+02  0.93944599450E+02  0.47000000000E+01 0.  1.
         13    1    6    6    0    0 -0.63028153830E+02 -0.33209957587E+02 -0.35360864282E+01  0.71329891107E+02  0.00000000000E+00 0. -1.
        -14    1    6    6    0    0  0.16137895469E+02  0.63756974108E+01  0.20866934062E+02  0.27138720028E+02  0.00000000000E+00 0.  1.
</event>
<event>
12    1  0.9017558E-003  0.1845526E+03  0.7818608E-02  0.1164382E+00
         21   -1    0    0  501  502  0.00000000000E+00  0.00000000000E+00  0.41896710241E+02  0.41896710241E+02  0.00000000000E+00 0.  1.
         21   -1    0    0  502  503 -0.00000000000E+00 -0.00000000000E+00 -0.79884146698E+03  0.79884146698E+03  0.00000000000E+00 0.  1.
          6    2    1    2  501    0 -0.28700818577E+02 -0.53530718567E+02 -0.35758894569E+03  0.40240465325E+03  0.17427098458E+03 0.  0.
         24    2    3    3    0    0 -0.75382004188E+02 -0.19031508503E+02 -0.23912971175E+03  0.27040462034E+03  0.99453480514E+02 0.  0.
         -6    2    1    2    0  503  0.28700818577E+02  0.53530718567E+02 -0.39935581106E+03  0.43833352397E+03  0.17018207778E+03 0.  0.
        -24    2    5    5    0    0  0.12453976405E+02  0.13485846122E+02 -0.80267095829E+02  0.11629742371E+03  0.82129863716E+02 0.  0.
          5    1    3    3  501    0  0.46681185611E+02 -0.34499210064E+02 -0.11845923394E+03  0.13200003292E+03  0.47000000000E+01 0. -1.
        -13    1    4    4    0    0 -0.60541575366E+02 -0.58369811383E+02 -0.16430633338E+03  0.18457759457E+03  0.00000000000E+00 0.  1.
         14    1    4    4    0    0 -0.14840428821E+02  0.39338302880E+02 -0.74823378365E+02  0.85827025761E+02  0.00000000000E+00 0. -1.
         -5    1    5    5    0  503  0.16246842171E+02  0.40044872445E+02 -0.31908871523E+03  0.32203610027E+03  0.47000000000E+01 0.  1.
         11    1    6    6    0    0 -0.53894567196E+01  0.26874513112E+02 -0.88401029358E+02  0.92552837289E+02  0.00000000000E+00 0. -1.
        -12    1    6    6    0    0  0.17843433125E+02 -0.13388666990E+02  0.81339335290E+01  0.23744586417E+02  0.00000000000E+00 0.  1.
</event>
<event>
12    1  0.9017558E-003  0.1955307E+03  0.7818608E-02  0.1153868E+00
         21   -1    0    0  501  502  0.00000000000E+00  0.00000000000E+00  0.29252412035E+03  0.29252412035E+03  0.00000000000E+00 0. -1.
         21   -1    0    0  502  503 -0.00000000000E+00 -0.00000000000E+00 -0.13031310423E+03  0.13031310423E+03  0.00000000000E+00 0.  1.
          6    2    1    2  501    0  0.37377958884E+02  0.88363324340E+02  0.67176721550E+02  0.20543486626E+03  0.16877672665E+03 0.  0.
         24    2    3    3    0    0  0.62856253493E+02  0.11554721267E+03  0.66499389585E+02  0.16787616475E+03  0.80362745825E+02 0.  0.
         -6    2    1    2    0  503 -0.37377958884E+02 -0.88363324340E+02  0.95034294569E+02  0.21740235832E+03  0.17037335285E+03 0.  0.
        -24    2    5    5    0    0 -0.79629361106E+02 -0.21420668555E+02  0.46991278792E+02  0.12468385144E+03  0.80859151220E+02 0.  0.
          5    1    3    3  501    0 -0.25478294609E+02 -0.27183888329E+02  0.67733196471E+00  0.37558701515E+02  0.47000000000E+01 0. -1.
        -13    1    4    4    0    0  0.20882587024E+02 -0.42067894997E+01  0.28168798062E+02  0.35316578302E+02  0.00000000000E+00 0.  1.
         14    1    4    4    0    0  0.41973666469E+02  0.11975400217E+03  0.38330591524E+02  0.13255958645E+03  0.00000000000E+00 0. -1.
         -5    1    5    5    0  503  0.42251402222E+02 -0.66942655784E+02  0.48043015776E+02  0.92718506880E+02  0.47000000000E+01 0.  1.
         11    1    6    6    0    0  0.15337811077E+01  0.22890500402E+02  0.11173045852E+02  0.25517924029E+02  0.00000000000E+00 0. -1.
        -12    1    6    6    0    0 -0.81163142214E+02 -0.44311168958E+02  0.35818232941E+02  0.99165927412E+02  0.00000000000E+00 0.  1.
</event>
<event>
12    1  0.9017558E-003  0.2037099E+03  0.7818608E-02  0.1146717E+00
         21   -1    0    0  501  502  0.00000000000E+00  0.00000000000E+00  0.53736773088E+03  0.53736773088E+03  0.00000000000E+00 0. -1.
         21   -1    0    0  502  503 -0.00000000000E+00 -0.00000000000E+00 -0.85657683849E+02  0.85657683849E+02  0.00000000000E+00 0. -1.
          6    2    1    2  501    0 -0.48822868571E+01  0.10886092380E+03  0.32418421637E+03  0.38269112096E+03  0.17170483529E+03 0.  0.
         24    2    3    3    0    0  0.35895662609E+02  0.11286588281E+01  0.13135556506E+03  0.15802679169E+03  0.80177365605E+02 0.  0.
         -6    2    1    2    0  503  0.48822868571E+01 -0.10886092380E+03  0.12752583066E+03  0.24033429377E+03  0.17211390944E+03 0.  0.
        -24    2    5    5    0    0  0.46859439943E+02 -0.12024608980E+03  0.66539725307E+02  0.16528032364E+03  0.78962783094E+02 0.  0.
          5    1    3    3  501    0 -0.40777949466E+02  0.10773226497E+03  0.19282865131E+03  0.22466432927E+03  0.47000000000E+01 0. -1.
        -13    1    4    4    0    0 -0.70046085235E+01  0.32984798699E+02  0.60746026320E+02  0.69477630929E+02  0.00000000000E+00 0.  1.
         14    1    4    4    0    0  0.42900271133E+02 -0.31856139871E+02  0.70609538739E+02  0.88549160762E+02  0.00000000000E+00 0. -1.
         -5    1    5    5    0  503 -0.41977153086E+02  0.11385166006E+02  0.60986105355E+02  0.75053970132E+02  0.47000000000E+01 0.  1.
         11    1    6    6    0    0 -0.10590091690E+02 -0.52069303837E+02 -0.14566113853E+01  0.53155283470E+02  0.00000000000E+00 0. -1.
        -12    1    6    6    0    0  0.57449531633E+02 -0.68176785967E+02  0.67996336692E+02  0.11212504017E+03  0.00000000000E+00 0.  1.
</event>
<event>
12    1  0.9017558E-003  0.1992058E+03  0.7818608E-02  0.1150477E+00
         21   -1    0    0  503  502  0.00000000000E+00  0.00000000000E+00  0.52531839951E+02  0.52531839951E+02  0.00000000000E+00 0.  1.
         21   -1    0    0  501  503 -0.00000000000E+00 -0.00000000000E+00 -0.90131502270E+03  0.90131502270E+03  0.00000000000E+00 0.  1.
          6    2    1    2  501    0 -0.87154214872E+02  0.52766948550E+02 -0.23145424950E+03  0.30517285528E+03  0.17081918499E+03 0.  0.
         24    2    3    3    0    0  0.61820980813E+01  0.44341859667E+02 -0.60897687564E+02  0.11050832267E+03  0.80617257290E+02 0.  0.
         -6    2    1    2    0  502  0.87154214872E+02 -0.52766948550E+02 -0.61732893325E+03  0.64867400737E+03  0.17118045443E+03 0.  0.
        -24    2    5    5    0    0 -0.61881144278E+01 -0.79354982307E+01 -0.15264578313E+03  0.17256984925E+03  0.79864590835E+02 0.  0.
          5    1    3    3  501    0 -0.93336312953E+02  0.84250888826E+01 -0.17055656193E+03  0.19466453261E+03  0.47000000000E+01 0. -1.
        -11    1    4    4    0    0  0.53342383722E+01  0.67700983980E+02 -0.38154235389E+02  0.77894948546E+02  0.00000000000E+00 0.  1.
         12    1    4    4    0    0  0.84785970906E+00 -0.23359124313E+02 -0.22743452176E+02  0.32613374122E+02  0.00000000000E+00 0. -1.
         -5    1    5    5    0  502  0.93342329300E+02 -0.44831450319E+02 -0.46468315012E+03  0.47610415812E+03  0.47000000000E+01 0.  1.
         13    1    6    6    0    0  0.73509046583E+01 -0.13851252484E+02  0.32176433059E+01  0.16007692623E+02  0.00000000000E+00 0. -1.
        -14    1    6    6    0    0 -0.13539019086E+02  0.59157542534E+01 -0.15586342644E+03  0.15656215663E+03  0.00000000000E+00 0.  1.
</event>
<event>
12    1  0.9017558E-003  0.2396443E+03  0.7818608E-02  0.1120369E+00
         21   -1    0    0  501  502  0.00000000000E+00  0.00000000000E+00  0.87608934339E+02  0.87608934339E+02  0.00000000000E+00 0. -1.
         21   -1    0    0  502  503 -0.00000000000E+00 -0.00000000000E+00 -0.11495246365E+04  0.11495246365E+04  0.00000000000E+00 0.  1.
          6    2    1    2  501    0 -0.70136738277E+02  0.15139852302E+03 -0.12447092092E+03  0.27004145667E+03  0.17201367195E+03 0.  0.
         24    2    3    3    0    0 -0.79450407395E+02  0.17635076106E+03 -0.12503446709E+03  0.24299027925E+03  0.77451272990E+02 0.  0.
         -6    2    1    2    0  503  0.70136738277E+02 -0.15139852302E+03 -0.93744478127E+03  0.96709211420E+03  0.16918559210E+03 0.  0.
        -24    2    5    5    0    0  0.72901015695E+02 -0.82446541184E+02 -0.34172128412E+03  0.36736668361E+03  0.77928518305E+02 0.  0.
          5    1    3    3  501    0  0.93136691174E+01 -0.24952238041E+02  0.56354616951E+00  0.27051177423E+02  0.47000000000E+01 0. -1.
        -11    1    4    4    0    0  0.94938304489E+01  0.61973866786E+02 -0.28385388514E+02  0.68823130284E+02  0.00000000000E+00 0.  1.
         12    1    4    4    0    0 -0.88944237844E+02  0.11437689428E+03 -0.96649078572E+02  0.17416714897E+03  0.00000000000E+00 0. -1.
         -5    1    5    5    0  503 -0.27642774173E+01 -0.68951981837E+02 -0.59572349715E+03  0.59972543058E+03  0.47000000000E+01 0.  1.
         11    1    6    6    0    0  0.64257445304E+02 -0.97653334517E+02 -0.28612311126E+03  0.30908191118E+03  0.00000000000E+00 0. -1.
        -12    1    6    6    0    0  0.86435703903E+01  0.15206793333E+02 -0.55598172859E+02  0.58284772435E+02  0.00000000000E+00 0.  1.
</event>
<event>
12    1  0.9017558E-003  0.1905580E+03  0.7818608E-02  0.1162224E+00
         21   -1    0    0  501  502  0.00000000000E+00  0.00000000000E+00  0.34546839642E+02  0.34546839642E+02  0.00000000000E+00 0.  1.
         21   -1    0    0  502  503 -0.00000000000E+00 -0.00000000000E+00 -0.96549818469E+03  0.96549818469E+03  0.00000000000E+00 0.  1.
          6    2    1    2  501    0 -0.59482421979E+02 -0.61069756986E+02 -0.49688539591E+03  0.52599272181E+03  0.15001857549E+03 0.  0.
         24    2    3    3    0    0 -0.71914042347E+02 -0.55527313014E+01 -0.39476869564E+03  0.40900299663E+03  0.78985225716E+02 0.  0.
         -6    2    1    2    0  503  0.59482421979E+02  0.61069756986E+02 -0.43406594914E+03  0.47405230251E+03  0.17042494998E+03 0.  0.
        -24    2    5    5    0    0  0.71422583869E+01 -0.24968815776E+02 -0.25754304570E+03  0.27076788558E+03  0.79450449086E+02 0.  0.
          5    1    3    3  501    0  0.12431620367E+02 -0.55517025685E+02 -0.10211670026E+03  0.11698972518E+03  0.47000000000E+01 0. -1.
        -11    1    4    4    0    0 -0.84566878046E+02 -0.23640924570E+01 -0.25588049636E+03  0.26950319889E+03  0.00000000000E+00 0.  1.
         12    1    4    4    0    0  0.12652835699E+02 -0.31886388444E+01 -0.13888819929E+03  0.13949979774E+03  0.00000000000E+00 0. -1.
         -5    1    5    5    0  503  0.52340163592E+02  0.86038572763E+02 -0.17652290344E+03  0.20328441693E+03  0.47000000000E+01 0.  1.
         13    1    6    6    0    0 -0.17548490297E+02 -0.41296769855E+02 -0.89285589505E+02  0.99926418956E+02  0.00000000000E+00 0. -1.
        -14    1    6    6    0    0  0.24690748684E+02  0.16327954079E+02 -0.16825745619E+03  0.17084146662E+03  0.00000000000E+00 0.  1.
</event>
<event>
12    1  0.9017558E-003  0.2352316E+03  0.7818608E-02  0.1123086E+00
         21   -1    0    0  501  502  0.00000000000E+00  0.00000000000E+00  0.58823398302E+03  0.58823398302E+03  0.00000000000E+00 0. -1.
         21   -1    0    0  502  503 -0.00000000000E+00 -0.00000000000E+00 -0.96373517648E+02  0.96373517648E+02  0.00000000000E+00 0. -1.
          6    2    1    2  501    0 -0.43467090464E+02 -0.15402519428E+03  0.30107871535E+03  0.38207627489E+03  0.17239703758E+03 0.  0.
         24    2    3    3    0    0 -0.21886700696E+02 -0.18011096542E+03  0.27270781866E+03  0.33765580148E+03  0.81993282563E+02 0.  0.
         -6    2    1    2    0  503  0.43467090464E+02  0.15402519428E+03  0.19078175002E+03  0.30253122578E+03  0.17179731664E+03 0.  0.
        -24    2    5    5    0    0 -0.34194089573E+01  0.39945049182E+02  0.21256587865E+02  0.92832647010E+02  0.80986162469E+02 0.  0.
          5    1    3    3  501    0 -0.21580389768E+02  0.26085771136E+02  0.28370896692E+02  0.44420473404E+02  0.47000000000E+01 0. -1.
        -13    1    4    4    0    0 -0.30461365414E+02 -0.26128123088E+02  0.90124692737E+02  0.98656139393E+02  0.00000000000E+00 0.  1.
         14    1    4    4    0    0  0.85746647181E+01 -0.15398284233E+03  0.18258312592E+03  0.23899966209E+03  0.00000000000E+00 0. -1.
         -5    1    5    5    0  503  0.46886499421E+02  0.11408014510E+03  0.16952516215E+03  0.20969857877E+03  0.47000000000E+01 0.  1.
         11    1    6    6    0    0  0.31652778425E+02  0.43597690386E+02  0.53251615730E+01  0.54138843123E+02  0.00000000000E+00 0. -1.
        -12    1    6    6    0    0 -0.35072187382E+02 -0.36526412036E+01  0.15931426292E+02  0.38693803887E+02  0.00000000000E+00 0.  1.
</event>
<event>
12    1  0.9017558E-003  0.1943549E+03  0.7818608E-02  0.1155253E+00
         21   -1    0    0  503  502  0.00000000000E+00  0.00000000000E+00  0.60119223566E+03  0.60119223566E+03  0.00000000000E+00 0.  1.
         21   -1    0    0  501  503 -0.00000000000E+00 -0.00000000000E+00 -0.61927076896E+02  0.61927076896E+02  0.00000000000E+00 0. -1.
          6    2    1    2  501    0 -0.46511294035E+02 -0.78782973437E+02  0.28216707705E+03  0.34262526201E+03  0.17147522684E+03 0.  0.
         24    2    3    3    0    0 -0.95055749662E+02 -0.52781631589E+02  0.16836539027E+03  0.21611222764E+03  0.80846113818E+02 0.  0.
         -6    2    1    2    0  502  0.46511294035E+02  0.78782973437E+02  0.25709808171E+03  0.32049405055E+03  0.16806830587E+03 0.  0.
        -24    2    5    5    0    0  0.71488070902E+02  0.12060973276E+02  0.18743056834E+03  0.22073776198E+03  0.91317743400E+02 0.  0.
          5    1    3    3  501    0  0.48544455627E+02 -0.26001341848E+02  0.11380168678E+03  0.12651303436E+03  0.47000000000E+01 0. -1.
        -11    1    4    4    0    0 -0.49470738798E+02  0.11737782288E+02  0.97617520985E+02  0.11006502593E+03  0.00000000000E+00 0.  1.
         12    1    4    4    0    0 -0.45585010864E+02 -0.64519413877E+02  0.70747869285E+02  0.10604720171E+03  0.00000000000E+00 0. -1.
         -5    1    5    5    0  502 -0.24976776866E+02  0.66722000161E+02  0.69667513375E+02  0.99756288564E+02  0.47000000000E+01 0.  1.
         11    1    6    6    0    0  0.28830271158E+02  0.19593035600E+02  0.74858955074E+01  0.35652632590E+02  0.00000000000E+00 0. -1.
        -12    1    6    6    0    0  0.42657799744E+02 -0.75320623243E+01  0.17994467283E+03  0.18508512939E+03  0.00000000000E+00 0.  1.
</event>
<event>
12    1  0.9017558E-003  0.1721760E+03  0.7818608E-02  0.1176000E+00
         21   -1    0    0  501  502  0.00000000000E+00  0.00000000000E+00  0.18585116204E+04  0.18585116204E+04  0.00000000000E+00 0.  1.
         21   -1    0    0  502  503 -0.00000000000E+00 -0.00000000000E+00 -0.16008679009E+02  0.16008679009E+02  0.00000000000E+00 0.  1.
          6    2    1    2  501    0 -0.53065395048E+01 -0.12378101831E+02  0.10224882267E+04  0.10366248994E+04  0.17008124982E+03 0.  0.
         24    2    3    3    0    0 -0.58204490992E+02 -0.34960693286E+02  0.49858586384E+03  0.50955380123E+03  0.80294457358E+02 0.  0.
         -6    2    1    2    0  503  0.53065395048E+01  0.12378101831E+02  0.82001471477E+03  0.83789540009E+03  0.17164845554E+03 0.  0.
        -24    2    5    5    0    0 -0.27481130775E+02 -0.31116787512E+01  0.31556004458E+03  0.33211721857E+03  0.99793837705E+02 0.  0.
          5    1    3    3  501    0  0.52897951487E+02  0.22582591455E+02  0.52390236282E+03  0.52707109813E+03  0.47000000000E+01 0. -1.
        -13    1    4    4    0    0 -0.87325803053E+01 -0.37782628409E+02  0.90334681835E+02  0.98306356409E+02  0.00000000000E+00 0.  1.
         14    1    4    4    0    0 -0.49471910686E+02  0.28219351228E+01  0.40825118200E+03  0.41124744482E+03  0.00000000000E+00 0. -1.
         -5    1    5    5    0  503  0.32787670280E+02  0.15489780582E+02  0.50445467019E+03  0.50577818152E+03  0.47000000000E+01 0.  1.
         11    1    6    6    0    0  0.99896303004E+01 -0.19675643867E+02  0.10712661610E+02  0.24529264031E+02  0.00000000000E+00 0. -1.
        -12    1    6    6    0    0 -0.37470761075E+02  0.16563965116E+02  0.30484738297E+03  0.30758795454E+03  0.00000000000E+00 0.  1.
</event>
<event>
12    1  0.9017558E-003  0.1755847E+03  0.7818608E-02  0.1173327E+00
         21   -1    0    0  503  502  0.00000000000E+00  0.00000000000E+00  0.42243033518E+02  0.42243033518E+02  0.00000000000E+00 0.  1.
         21   -1    0    0  501  503 -0.00000000000E+00 -0.00000000000E+00 -0.72495166276E+03  0.72495166276E+03  0.00000000000E+00 0.  1.
          6    2    1    2  501    0 -0.18534308869E+02  0.25816030115E+02 -0.39982153139E+03  0.43667751624E+03  0.17268470753E+03 0.  0.
         24    2    3    3    0    0 -0.76230760113E+02  0.34517225713E+02 -0.24348889809E+03  0.26974467488E+03  0.80453579633E+02 0.  0.
         -6    2    1    2    0  502  0.18534308869E+02 -0.25816030115E+02 -0.28288709785E+03  0.33051718003E+03  0.16794793285E+03 0.  0.
        -24    2    5    5    0    0 -0.32357800852E+02 -0.20270406113E+02 -0.72954638578E+02  0.11438183301E+03  0.79390854587E+02 0.  0.
          5    1    3    3  501    0  0.57696451244E+02 -0.87011955979E+01 -0.15633263330E+03  0.16693284136E+03  0.47000000000E+01 0. -1.
        -11    1    4    4    0    0 -0.15750523458E+02  0.37133104038E+02 -0.37607472286E+02  0.55147696021E+02  0.00000000000E+00 0.  1.
         12    1    4    4    0    0 -0.60480236655E+02 -0.26158783250E+01 -0.20588142580E+03  0.21459697886E+03  0.00000000000E+00 0. -1.
         -5    1    5    5    0  502  0.50892109721E+02 -0.55456240018E+01 -0.20993245927E+03  0.21613534703E+03  0.47000000000E+01 0.  1.
         11    1    6    6    0    0  0.14149695481E+02  0.20251669067E+02 -0.31627461814E+02  0.40132783644E+02  0.00000000000E+00 0. -1.
        -12    1    6    6    0    0 -0.46507496333E+02 -0.40522075180E+02 -0.41327176765E+02  0.74249049364E+02  0.00000000000E+00 0.  1.
</event>
<event>
12    1  0.9017558E-003  0.2457099E+03  0.7818608E-02  0.1116116E+00
         21   -1    0    0  501  502  0.00000000000E+00  0.00000000000E+00  0.48221070366E+02  0.48221070366E+02  0.00000000000E+00 0.  1.
         21   -1    0    0  502  503 -0.00000000000E+00 -0.00000000000E+00 -0.20559549614E+04  0.20559549614E+04  0.00000000000E+00 0. -1.
          6    2    1    2  501    0  0.17286813525E+03 -0.24943097171E+02 -0.34560897848E+03  0.42405063898E+03  0.17282311226E+03 0.  0.
         24    2    3    3    0    0  0.20464057471E+02 -0.39189675096E+02 -0.10664218470E+03  0.14022465983E+03  0.79597684552E+02 0.  0.
         -6    2    1    2    0  503 -0.17286813525E+03  0.24943097171E+02 -0.16621249125E+04  0.16801253927E+04  0.17221080184E+03 0.  0.
        -24    2    5    5    0    0 -0.60143487624E+02  0.18340718662E+02 -0.12032558677E+04  0.12075438359E+04  0.79898757156E+02 0.  0.
          5    1    3    3  501    0  0.15240407778E+03  0.14246577925E+02 -0.23896679378E+03  0.28382597915E+03  0.47000000000E+01 0. -1.
        -13    1    4    4    0    0 -0.70126787803E+01  0.15154380645E+01  0.10778181817E+02  0.12947718698E+02  0.00000000000E+00 0.  1.
         14    1    4    4    0    0  0.27476736251E+02 -0.40705113160E+02 -0.11742036651E+03  0.12727694114E+03  0.00000000000E+00 0. -1.
         -5    1    5    5    0  503 -0.11272464763E+03  0.66023785083E+01 -0.45886904479E+03  0.47258155683E+03  0.47000000000E+01 0.  1.
         13    1    6    6    0    0 -0.39551342915E+02  0.40324488216E+02 -0.42901914111E+03  0.43272138440E+03  0.00000000000E+00 0. -1.
        -14    1    6    6    0    0 -0.20592144709E+02 -0.21983769554E+02 -0.77423672660E+03  0.77482245151E+03  0.00000000000E+00 0.  1.
</event>
<event>
12    1  0.9017558E-003  0.1805348E+03  0.7818608E-02  0.1167294E+00
         21   -1    0    0  501  502  0.00000000000E+00  0.00000000000E+00  0.11461888894E+03  0.11461888894E+03  0.00000000000E+00 0.  1.
         21   -1    0    0  502  503 -0.00000000000E+00 -0.00000000000E+00 -0.28582226640E+03  0.28582226640E+03  0.00000000000E+00 0.  1.
          6    2    1    2  501    0 -0.52457519830E+02 -0.15173024173E+02 -0.10014915459E+03  0.20642697714E+03  0.17204717863E+03 0.  0.
         24    2    3    3    0    0 -0.44150627623E+02  0.55775879320E+02 -0.72185283886E+02  0.12957114177E+03  0.80732514743E+02 0.  0.
         -6    2    1    2    0  503  0.52457519830E+02  0.15173024173E+02 -0.71054222880E+02  0.19401417821E+03  0.17207785072E+03 0.  0.
        -24    2    5    5    0    0 -0.15128446462E+02 -0.10748231799E+02  0.15555345333E+00  0.92364305623E+02  0.90480640897E+02 0.  0.
          5    1    3    3  501    0 -0.83068922068E+01 -0.70948903493E+02 -0.27963870702E+02  0.76855835365E+02  0.47000000000E+01 0. -1.
        -13    1    4    4    0    0 -0.40839363215E+02  0.78806545855E+01 -0.70107081826E+02  0.81516631596E+02  0.00000000000E+00 0.  1.
         14    1    4    4    0    0 -0.33112644075E+01  0.47895224734E+02 -0.20782020593E+01  0.48054510175E+02  0.00000000000E+00 0. -1.
         -5    1    5    5    0  503  0.67585966292E+02  0.25921255972E+02 -0.71209776333E+02  0.10164987258E+03  0.47000000000E+01 0.  1.
         11    1    6    6    0    0 -0.37838023944E+02  0.15945252112E+02 -0.26029523630E+02  0.48615874170E+02  0.00000000000E+00 0. -1.
        -12    1    6    6    0    0  0.22709577482E+02 -0.26693483911E+02  0.26185077083E+02  0.43748431453E+02  0.00000000000E+00 0.  1.
</event>
<event>
12    1  0.9017558E-003  0.1970699E+03  0.7818608E-02  0.1152795E+00
         21   -1    0    0  501  502  0.00000000000E+00  0.00000000000E+00  0.13032635609E+03  0.13032635609E+03  0.00000000000E+00 0. -1.
         21   -1    0    0  502  503 -0.00000000000E+00 -0.00000000000E+00 -0.31842759902E+03  0.31842759902E+03  0.00000000000E+00 0. -1.
          6    2    1    2  501    0  0.83595294573E+02 -0.46813396007E+02 -0.15550259915E+03  0.24900603387E+03  0.16924325464E+03 0.  0.
         24    2    3    3    0    0  0.10308513767E+03 -0.70925433981E+02 -0.83918964927E+02  0.17085521143E+03  0.80573865517E+02 0.  0.
         -6    2    1    2    0  503 -0.83595294573E+02  0.46813396007E+02 -0.32598643779E+02  0.19974792124E+03  0.17221176830E+03 0.  0.
        -24    2    5    5    0    0 -0.11027865758E+03  0.75326171964E+02 -0.38026498460E+02  0.16004235663E+03  0.79574662001E+02 0.  0.
          5    1    3    3  501    0 -0.19489843101E+02  0.24112037974E+02 -0.71583634224E+02  0.78150822440E+02  0.47000000000E+01 0. -1.
        -11    1    4    4    0    0  0.33271513035E+01  0.15975849750E+02 -0.64869276078E+01  0.17560693062E+02  0.00000000000E+00 0.  1.
         12    1    4    4    0    0  0.99757986371E+02 -0.86901283731E+02 -0.77432037320E+02  0.15329451837E+03  0.00000000000E+00 0. -1.
         -5    1    5    5    0  503  0.26683363003E+02 -0.28512775957E+02  0.54278546805E+01  0.39705564602E+02  0.47000000000E+01 0.  1.
         13    1    6    6    0    0 -0.36161637960E+02 -0.34291839202E+01 -0.37057672056E+02  0.51891178639E+02  0.00000000000E+00 0. -1.
        -14    1    6    6    0    0 -0.74117019616E+02  0.78755355884E+02 -0.96882640338E+00  0.10815117800E+03  0.00000000000E+00 0.  1.
</event>
<event>
12    1  0.9017558E-003  0.1770324E+03  0.7818608E-02  0.1171250E+00
         21   -1    0    0  503  502  0.00000000000E+00  0.00000000000E+00  0.38163307673E+03  0.38163307673E+03  0.00000000000E+00 0.  1.
         21   -1    0    0  501  503 -0.00000000000E+00 -0.00000000000E+00 -0.93561404432E+02  0.93561404432E+02  0.00000000000E+00 0.  1.
          6    2    1    2  501    0  0.19332879828E+02 -0.37273712005E+02  0.58144322706E+02  0.18633637995E+03  0.17198079655E+03 0.  0.
         24    2    3    3    0    0 -0.66300026031E+01 -0.22060344164E+02 -0.33382008607E+02  0.89875625500E+02  0.80203826850E+02 0.  0.
         -6    2    1    2    0  502 -0.19332879828E+02  0.37273712005E+02  0.22992734959E+03  0.28885810122E+03  0.16973310431E+03 0.  0.
        -24    2    5    5    0    0 -0.24554137314E+02  0.51995611932E+00  0.34863071335E+02  0.90237199108E+02  0.79524476398E+02 0.  0.
          5    1    3    3  501    0  0.25962882432E+02 -0.15213367841E+02  0.91526331313E+02  0.96460754449E+02  0.47000000000E+01 0. -1.
        -13    1    4    4    0    0  0.34064404466E+02 -0.25559570413E+02 -0.16205901277E+02  0.45566506642E+02  0.00000000000E+00 0.  1.
         14    1    4    4    0    0 -0.40694407069E+02  0.34992262490E+01 -0.17176107329E+02  0.44309118859E+02  0.00000000000E+00 0. -1.
         -5    1    5    5    0  502  0.52212574852E+01  0.36753755886E+02  0.19506427826E+03  0.19862090211E+03  0.47000000000E+01 0.  1.
         11    1    6    6    0    0 -0.12642364729E+02 -0.34352286204E+02  0.38601375322E+02  0.53197510564E+02  0.00000000000E+00 0. -1.
        -12    1    6    6    0    0 -0.11911772584E+02  0.34872242324E+02 -0.37383039870E+01  0.37039688545E+02  0.00000000000E+00 0.  1.
</event>
<event>
12    1  0.9017558E-003  0.1762100E+03  0.7818608E-02  0.1171638E+00
         21   -1    0    0  503  502  0.00000000000E+00  0.00000000000E+00  0.35890984195E+02  0.35890984195E+02  0.00000000000E+00 0. -1.
         21   -1    0    0  501  503 -0.00000000000E+00 -0.00000000000E+00 -0.89008317127E+03  0.89008317127E+03  0.00000000000E+00 0. -1.
          6    2    1    2  501    0  0.10589309633E+02 -0.24707887698E+02 -0.50865831153E+03  0.53831518956E+03  0.17414750135E+03 0.  0.
         24    2    3    3    0    0 -0.28871924355E+02  0.39482054960E+00 -0.46984635391E+03  0.47735788480E+03  0.79254085058E+02 0.  0.
         -6    2    1    2    0  502 -0.10589309633E+02  0.24707887698E+02 -0.34553387554E+03  0.38765896591E+03  0.17367556393E+03 0.  0.
        -24    2    5    5    0    0 -0.60696939990E+02 -0.17716888869E+02 -0.15331304433E+03  0.18448029026E+03  0.80808918168E+02 0.  0.
          5    1    3    3  501    0  0.39461233988E+02 -0.25102708248E+02 -0.38811957621E+02  0.60957304759E+02  0.47000000000E+01 0. -1.
        -11    1    4    4    0    0 -0.11218506411E+02 -0.20371820549E+02 -0.37317820420E+02  0.43971418893E+02  0.00000000000E+00 0.  1.
         12    1    4    4    0    0 -0.17653417944E+02  0.20766641099E+02 -0.43252853349E+03  0.43338646590E+03  0.00000000000E+00 0. -1.
         -5    1    5    5    0  502  0.50107630357E+02  0.42424776567E+02 -0.19222083121E+03  0.20317867565E+03  0.47000000000E+01 0.  1.
         13    1    6    6    0    0 -0.22362538212E+02  0.25272551770E+02 -0.19929011981E+02  0.39191204457E+02  0.00000000000E+00 0. -1.
        -14    1    6    6    0    0 -0.38334401778E+02 -0.42989440639E+02 -0.13338403235E+03  0.14528908580E+03  0.00000000000E+00 0.  1.
</event>
<event>
12    1  0.9017558E-003  0.2579161E+03  0.7818608E-02  0.1108413E+00
         21   -1    0    0  503  502  0.00000000000E+00  0.00000000000E+00  0.23672926839E+03  0.23672926839E+03  0.00000000000E+00 0. -1.
         21   -1    0    0  501  503 -0.00000000000E+00 -0.00000000000E+00 -0.31555857067E+03  0.31555857067E+03  0.00000000000E+00 0. -1.
          6    2    1    2  501    0 -0.18560930661E+03  0.48933470251E+02 -0.13091081973E+03  0.28923758512E+03  0.17226560513E+03 0.  0.
         24    2    3    3    0    0 -0.77601753985E+02  0.86434974355E+02 -0.93337195102E+02  0.16879730323E+03  0.79294770153E+02 0.  0.
         -6    2    1    2    0  502  0.18560930661E+03 -0.48933470251E+02  0.52081517455E+02  0.26305025394E+03  0.17215589570E+03 0.  0.
        -24    2    5    5    0    0  0.35028001760E+02 -0.45062491859E+02  0.54715116304E+02  0.11232288519E+03  0.79781561190E+02 0.  0.
          5    1    3    3  501    0 -0.10800755263E+03 -0.37501504105E+02 -0.37573624632E+02  0.12044028190E+03  0.47000000000E+01 0. -1.
        -13    1    4    4    0    0  0.49411647867E+01  0.39319897215E+02 -0.66978812072E+01  0.40191181111E+02  0.00000000000E+00 0.  1.
         14    1    4    4    0    0 -0.82542918771E+02  0.47115077140E+02 -0.86639313895E+02  0.12860612212E+03  0.00000000000E+00 0. -1.
         -5    1    5    5    0  502  0.15058130485E+03 -0.38709783918E+01 -0.26335988488E+01  0.15072736874E+03  0.47000000000E+01 0.  1.
         11    1    6    6    0    0  0.70345884794E+01 -0.53361773608E+02  0.42132665576E+01  0.53988109180E+02  0.00000000000E+00 0. -1.
        -12    1    6    6    0    0  0.27993413280E+02  0.82992817496E+01  0.50501849747E+02  0.58334776013E+02  0.00000000000E+00 0.  1.
</event>
<event>
12    1  0.9017558E-003  0.2671437E+03  0.7818608E-02  0.1102935E+00
         21   -1    0    0  501  502  0.00000000000E+00  0.00000000000E+00  0.34510179589E+03  0.34510179589E+03  0.00000000000E+00 0.  1.
         21   -1    0    0  502  503 -0.00000000000E+00 -0.00000000000E+00 -0.23289732138E+03  0.23289732138E+03  0.00000000000E+00 0. -1.
          6    2    1    2  501    0 -0.18107196759E+03 -0.96527338653E+02  0.15294548207E+03  0.30782797088E+03  0.17105892148E+03 0.  0.
         24    2    3    3    0    0 -0.51027066154E+02 -0.28083863758E+02  0.16596123406E+02  0.10730509624E+03  0.88580401238E+02 0.  0.
         -6    2    1    2    0  503  0.18107196759E+03  0.96527338653E+02 -0.40741007565E+02  0.27017114639E+03  0.17096208378E+03 0.  0.
        -24    2    5    5    0    0  0.83231705904E+02  0.25799959962E+02  0.39662796811E+02  0.12504382070E+03  0.80434226817E+02 0.  0.
          5    1    3    3  501    0 -0.13004490144E+03 -0.68443474895E+02  0.13634935867E+03  0.20052287464E+03  0.47000000000E+01 0. -1.
        -11    1    4    4    0    0 -0.38775613456E+02  0.18972477366E+02  0.34734152378E+02  0.55407259792E+02  0.00000000000E+00 0.  1.
         12    1    4    4    0    0 -0.12251452698E+02 -0.47056341124E+02 -0.18138028972E+02  0.51897836450E+02  0.00000000000E+00 0. -1.
         -5    1    5    5    0  503  0.97840261687E+02  0.70727378692E+02 -0.80403804377E+02  0.14512732569E+03  0.47000000000E+01 0.  1.
         11    1    6    6    0    0  0.72344879014E+02 -0.14908304974E+02  0.12516662514E+02  0.74917994616E+02  0.00000000000E+00 0. -1.
        -12    1    6    6    0    0  0.10886826890E+02  0.40708264936E+02  0.27146134297E+02  0.50125826089E+02  0.00000000000E+00 0.  1.
</event>
<event>
12    1  0.9017558E-003  0.1963042E+03  0.7818608E-02  0.1153407E+00
         21   -1    0    0  503  502  0.00000000000E+00  0.00000000000E+00  0.29711721161E+03  0.29711721161E+03  0.00000000000E+00 0. -1.
         21   -1    0    0  501  503 -0.00000000000E+00 -0.00000000000E+00 -0.20167956874E+03  0.20167956874E+03  0.00000000000E+00 0. -1.
          6    2    1    2  501    0  0.93352611303E+02 -0.35315805267E+01 -0.10268769392E+03  0.22154030399E+03  0.17265040316E+03 0.  0.
         24    2    3    3    0    0  0.80215018283E+02  0.11774703206E+02 -0.13876535150E+03  0.17994023130E+03  0.80929421541E+02 0.  0.
         -6    2    1    2    0  502 -0.93352611303E+02  0.35315805267E+01  0.19812533679E+03  0.27725647636E+03  0.16997153440E+03 0.  0.
        -24    2    5    5    0    0 -0.20543954825E+02 -0.25025363873E+02  0.29666195353E+02  0.91468500790E+02  0.80237650596E+02 0.  0.
          5    1    3    3  501    0  0.13137593020E+02 -0.15306283732E+02  0.36077657574E+02  0.41600072694E+02  0.47000000000E+01 0. -1.
        -11    1    4    4    0    0  0.45229677647E+01  0.34953044924E+02 -0.38589994386E+02  0.52262417219E+02  0.00000000000E+00 0.  1.
         12    1    4    4    0    0  0.75692050519E+02 -0.23178341718E+02 -0.10017535711E+03  0.12767781408E+03  0.00000000000E+00 0. -1.
         -5    1    5    5    0  502 -0.72808656478E+02  0.28556944400E+02  0.16845914144E+03  0.18578797557E+03  0.47000000000E+01 0.  1.
         13    1    6    6    0    0 -0.38088715911E+02  0.16365007988E+02  0.16569771095E+02  0.44644384645E+02  0.00000000000E+00 0. -1.
        -14    1    6    6    0    0  0.17544761086E+02 -0.41390371861E+02  0.13096424258E+02  0.46824116145E+02  0.00000000000E+00 0.  1.
</event>
<event>
12    1  0.9017558E-003  0.3011817E+03  0.7818608E-02  0.1084780E+00
         21   -1    0    0  501  502  0.00000000000E+00  0.00000000000E+00  0.49429525072E+03  0.49429525072E+03  0.00000000000E+00 0.  1.
         21   -1    0    0  502  503 -0.00000000000E+00 -0.00000000000E+00 -0.19012831051E+03  0.19012831051E+03  0.00000000000E+00 0. -1.
          6    2    1    2  501    0  0.24708024260E+03  0.87937342995E+01  0.21911448734E+03  0.37245348103E+03  0.17200133988E+03 0.  0.
         24    2    3    3    0    0  0.16684960496E+03 -0.56256379663E+02  0.12266596574E+03  0.23105730052E+03  0.85656091695E+02 0.  0.
         -6    2    1    2    0  503 -0.24708024260E+03 -0.87937342995E+01  0.85052452868E+02  0.31197008021E+03  0.17019234753E+03 0.  0.
        -24    2    5    5    0    0 -0.22324894672E+03 -0.43311874954E+02  0.30689471943E+02  0.24314525625E+03  0.80385080870E+02 0.  0.
          5    1    3    3  501    0  0.80230637640E+02  0.65050113962E+02  0.96448521602E+02  0.14139618051E+03  0.47000000000E+01 0. -1.
        -11    1    4    4    0    0  0.10221127813E+03 -0.26340899248E+02  0.11995316136E+03  0.15978031565E+03  0.00000000000E+00 0.  1.
         12    1    4    4    0    0  0.64638326833E+02 -0.29915480415E+02  0.27128043778E+01  0.71276984867E+02  0.00000000000E+00 0. -1.
         -5    1    5    5    0  503 -0.23831295887E+02  0.34518140654E+02  0.54362980925E+02  0.68824823958E+02  0.47000000000E+01 0.  1.
         13    1    6    6    0    0 -0.23643568342E+02  0.20859055542E+02  0.35326554266E+01  0.31726931405E+02  0.00000000000E+00 0. -1.
        -14    1    6    6    0    0 -0.19960537837E+03 -0.64170930495E+02  0.27156816516E+02  0.21141832484E+03  0.00000000000E+00 0.  1.
</event>
<event>
12    1  0.9017558E-003  0.2749240E+03  0.7818608E-02  0.1098521E+00
         21   -1    0    0  503  502  0.00000000000E+00  0.00000000000E+00  0.76337666193E+03  0.76337666193E+03  0.00000000000E+00 0. -1.
         21   -1    0    0  501  503 -0.00000000000E+00 -0.00000000000E+00 -0.11381107609E+03  0.11381107609E+03  0.00000000000E+00 0.  1.
          6    2    1    2  501    0 -0.15138551556E+03 -0.15294780038E+03  0.16635533960E+03  0.32133676312E+03  0.17109240881E+03 0.  0.
         24    2    3    3    0    0 -0.10869565039E+03 -0.11218888336E+03  0.39913744531E+02  0.18171842310E+03  0.83829519431E+02 0.  0.
         -6    2    1    2    0  502  0.15138551556E+03  0.15294780038E+03  0.48321024624E+03  0.55585097490E+03  0.17078512893E+03 0.  0.
        -24    2    5    5    0    0  0.28438956146E+02  0.84017755391E+02  0.20887741102E+03  0.24739060135E+03  0.98511823412E+02 0.  0.
          5    1    3    3  501    0 -0.42689865172E+02 -0.40758917015E+02  0.12644159507E+03  0.13961834002E+03  0.47000000000E+01 0. -1.
        -13    1    4    4    0    0 -0.44989849689E+02  0.74217889189E+00 -0.31175282601E+01  0.45103840047E+02  0.00000000000E+00 0.  1.
         14    1    4    4    0    0 -0.63705800699E+02 -0.11293106226E+03  0.43031272791E+02  0.13661458305E+03  0.00000000000E+00 0. -1.
         -5    1    5    5    0  502  0.12294655941E+03  0.68930044988E+02  0.27433283522E+03  0.30846037355E+03  0.47000000000E+01 0.  1.
         13    1    6    6    0    0  0.29902646537E+02  0.10453001446E+03  0.15177844856E+03  0.18670133808E+03  0.00000000000E+00 0. -1.
        -14    1    6    6    0    0 -0.14636903908E+01 -0.20512259071E+02  0.57098962463E+02  0.60689263269E+02  0.00000000000E+00 0.  1.
</event>
<event>
12    1  0.9017558E-003  0.1988607E+03  0.7818608E-02  0.1150895E+00
         21   -1    0    0  503  502  0.00000000000E+00  0.00000000000E+00  0.41574112444E+03  0.41574112444E+03  0.00000000000E+00 0.  1.
         21   -1    0    0  501  503 -0.00000000000E+00 -0.00000000000E+00 -0.10728282702E+03  0.10728282702E+03  0.00000000000E+00 0.  1.
          6    2    1    2  501    0 -0.24037350035E+02 -0.95302627996E+02  0.24412536785E+03  0.31486942876E+03  0.17287329708E+03 0.  0.
         24    2    3    3    0    0  0.47978967133E+02 -0.39434029991E+02  0.86981070112E+02  0.13314416774E+03  0.79401755887E+02 0.  0.
         -6    2    1    2    0  502  0.24037350035E+02  0.95302627996E+02  0.64332929573E+02  0.20815452269E+03  0.17184060751E+03 0.  0.
        -24    2    5    5    0    0  0.75524794681E+02  0.63168633091E+02  0.90669721088E+01  0.12593550641E+03  0.77995326610E+02 0.  0.
          5    1    3    3  501    0 -0.72016317168E+02 -0.55868598005E+02  0.15714429773E+03  0.18172526102E+03  0.47000000000E+01 0. -1.
        -13    1    4    4    0    0  0.54266305221E+02 -0.48893696437E+02  0.36984443955E+02  0.81873527641E+02  0.00000000000E+00 0.  1.
         14    1    4    4    0    0 -0.62873380888E+01  0.94596664457E+01  0.49996626157E+02  0.51270640103E+02  0.00000000000E+00 0. -1.
         -5    1    5    5    0  502 -0.51487444645E+02  0.32133994904E+02  0.55265957464E+02  0.82219016286E+02  0.47000000000E+01 0.  1.
         11    1    6    6    0    0  0.12619317718E+02 -0.18315192560E+02 -0.23429172228E+01  0.22364765129E+02  0.00000000000E+00 0. -1.
        -12    1    6    6    0    0  0.62905476963E+02  0.81483825651E+02  0.11409889332E+02  0.10357074128E+03  0.00000000000E+00 0.  1.
</event>
<event>
12    1  0.9017558E-003  0.2243279E+03  0.7818608E-02  0.1131006E+00
         21   -1    0    0  501  502  0.00000000000E+00  0.00000000000E+00  0.27644957916E+03  0.27644957916E+03  0.00000000000E+00 0.  1.
         21   -1    0    0  502  503 -0.00000000000E+00 -0.00000000000E+00 -0.20406351280E+03  0.20406351280E+03  0.00000000000E+00 0. -1.
          6    2    1    2  501    0 -0.14291636754E+03  0.24906949359E+02  0.11767710192E+03  0.25331979727E+03  0.17110691141E+03 0.  0.
         24    2    3    3    0    0 -0.66259981611E+02 -0.15628495914E+02  0.12880454838E+03  0.16576847579E+03  0.79081861609E+02 0.  0.
         -6    2    1    2    0  503  0.14291636754E+03 -0.24906949359E+02 -0.45291035562E+02  0.22719329470E+03  0.16887886491E+03 0.  0.
        -24    2    5    5    0    0  0.14423971739E+03 -0.68264361092E+02 -0.41470173920E+02  0.18339483136E+03  0.80304232626E+02 0.  0.
          5    1    3    3  501    0 -0.76656385932E+02  0.40535445273E+02 -0.11127446457E+02  0.87551321476E+02  0.47000000000E+01 0. -1.
        -13    1    4    4    0    0 -0.40489457433E+02  0.30768155273E+02  0.70479456390E+02  0.86910467236E+02  0.00000000000E+00 0.  1.
         14    1    4    4    0    0 -0.25770524179E+02 -0.46396651188E+02  0.58325091989E+02  0.78858008556E+02  0.00000000000E+00 0. -1.
         -5    1    5    5    0  503 -0.13233498433E+01  0.43357411732E+02 -0.38208616423E+01  0.43798463336E+02  0.47000000000E+01 0.  1.
         11    1    6    6    0    0  0.86160582474E+02 -0.75036049550E+02 -0.49230784724E+02  0.12440950474E+03  0.00000000000E+00 0. -1.
        -12    1    6    6    0    0  0.58079134912E+02  0.67716884587E+01  0.77606108041E+01  0.58985326622E+02  0.00000000000E+00 0.  1.
</event>
<event>
12    1  0.9017558E-003  0.1911585E+03  0.7818608E-02  0.1158462E+00
         21   -1    0    0  501  502  0.00000000000E+00  0.00000000000E+00  0.56951244014E+03  0.56951244014E+03  0.00000000000E+00 0.  1.
         21   -1    0    0  502  503 -0.00000000000E+00 -0.00000000000E+00 -0.74865295161E+02  0.74865295161E+02  0.00000000000E+00 0.  1.
          6    2    1    2  501    0  0.76062614667E+02  0.48228117559E+01  0.37504703338E+03  0.41888765927E+03  0.17028744221E+03 0.  0.
         24    2    3    3    0    0  0.23496475558E+02 -0.42340928928E+02  0.29601993832E+03  0.31279812553E+03  0.88713160362E+02 0.  0.
         -6    2    1    2    0  503 -0.76062614667E+02 -0.48228117559E+01  0.11960011160E+03  0.22549007604E+03  0.17530774892E+03 0.  0.
        -24    2    5    5    0    0 -0.41929853931E+02 -0.26531284715E+02 -0.23800841441E+01  0.96891626171E+02  0.83188344750E+02 0.  0.
          5    1    3    3  501    0  0.52566139109E+02  0.47163740684E+02  0.79027095055E+02  0.10608953374E+03  0.47000000000E+01 0. -1.
        -13    1    4    4    0    0  0.52795039353E+02 -0.43653313830E+02  0.16735781330E+03  0.18083574221E+03  0.00000000000E+00 0.  1.
         14    1    4    4    0    0 -0.29298563794E+02  0.13123849016E+01  0.12866212502E+03  0.13196238331E+03  0.00000000000E+00 0. -1.
         -5    1    5    5    0  503 -0.34132760736E+02  0.21708472959E+02  0.12198019575E+03  0.12859844986E+03  0.47000000000E+01 0.  1.
         11    1    6    6    0    0  0.17838937996E+02 -0.47852513575E+01  0.22046334310E+02  0.28760514528E+02  0.00000000000E+00 0. -1.
        -12    1    6    6    0    0 -0.59768791927E+02 -0.21746033357E+02 -0.24426418454E+02  0.68131111643E+02  0.00000000000E+00 0.  1.
</event>
<event>
12    1  0.9017558E-003  0.2016185E+03  0.7818608E-02  0.1149451E+00
         21   -1    0    0  501  502  0.00000000000E+00  0.00000000000E+00  0.26810826682E+03  0.26810826682E+03  0.00000000000E+00 0.  1.
         21   -1    0    0  502  503 -0.00000000000E+00 -0.00000000000E+00 -0.16005808493E+03  0.16005808493E+03  0.00000000000E+00 0.  1.
          6    2    1    2  501    0 -0.98610693782E+02  0.36431043527E+02  0.11381254691E+03  0.23152388268E+03  0.17204279280E+03 0.  0.
         24    2    3    3    0    0 -0.22500642025E+02 -0.40914258210E+02  0.44957393336E+02  0.10292311342E+03  0.79948387382E+02 0.  0.
         -6    2    1    2    0  503  0.98610693782E+02 -0.36431043527E+02 -0.57623650218E+01  0.19664246906E+03  0.16608361126E+03 0.  0.
        -24    2    5    5    0    0  0.12818111906E+03 -0.29934023612E+01 -0.18630480138E+01  0.15158938292E+03  0.80848687837E+02 0.  0.
          5    1    3    3  501    0 -0.76110051757E+02  0.77345301738E+02  0.68855153575E+02  0.12860076926E+03  0.47000000000E+01 0. -1.
        -13    1    4    4    0    0 -0.39115779085E+02  0.75269687431E+01  0.29039035796E+02  0.49294675492E+02  0.00000000000E+00 0.  1.
         14    1    4    4    0    0  0.16615137060E+02 -0.48441226953E+02  0.15918357539E+02  0.53628437932E+02  0.00000000000E+00 0. -1.
         -5    1    5    5    0  503 -0.29570425279E+02 -0.33437641166E+02 -0.38993170080E+01  0.45053086144E+02  0.47000000000E+01 0.  1.
         11    1    6    6    0    0  0.66494667374E+02  0.31058392607E+02  0.22937208265E+02  0.76891352332E+02  0.00000000000E+00 0. -1.
        -12    1    6    6    0    0  0.61686451687E+02 -0.34051794968E+02 -0.24800256279E+02  0.74698030589E+02  0.00000000000E+00 0.  1.
</event>
<event>
12    1  0.9017558E-003  0.2067523E+03  0.7818608E-02  0.1144541E+00
         21   -1    0    0  501  502  0.00000000000E+00  0.00000000000E+00  0.66905618482E+03  0.66905618482E+03  0.00000000000E+00 0. -1.
         21   -1    0    0  502  503 -0.00000000000E+00 -0.00000000000E+00 -0.63478632323E+02  0.63478632323E+02  0.00000000000E+00 0. -1.
          6    2    1    2  501    0  0.88049630185E+02  0.68223351035E+02  0.31982660747E+03  0.37983082027E+03  0.17197450445E+03 0.  0.
         24    2    3    3    0    0 -0.12095310312E+02  0.46504362517E+02  0.92084414572E+02  0.13005227837E+03  0.78263040045E+02 0.  0.
         -6    2    1    2    0  503 -0.88049630185E+02 -0.68223351035E+02  0.28575094503E+03  0.35270399687E+03  0.17418192737E+03 0.  0.
        -24    2    5    5    0    0 -0.16749451713E+02 -0.39490898318E+02  0.42925761454E+02  0.97958184213E+02  0.76896746844E+02 0.  0.
          5    1    3    3  501    0  0.10014494050E+03  0.21718988517E+02  0.22774219290E+03  0.24977854191E+03  0.47000000000E+01 0. -1.
        -13    1    4    4    0    0  0.22935387256E+02  0.47185055986E+02  0.73752236620E+02  0.90508860911E+02  0.00000000000E+00 0.  1.
         14    1    4    4    0    0 -0.35030697568E+02 -0.68069346822E+00  0.18332177951E+02  0.39543417457E+02  0.00000000000E+00 0. -1.
         -5    1    5    5    0  503 -0.71300178472E+02 -0.28732452716E+02  0.24282518357E+03  0.25474581266E+03  0.47000000000E+01 0.  1.
         11    1    6    6    0    0 -0.30537068157E+02  0.13202432499E+02  0.20338313019E+02  0.38993124163E+02  0.00000000000E+00 0. -1.
        -12    1    6    6    0    0  0.13787616445E+02 -0.52693330818E+02  0.22587448435E+02  0.58965060050E+02  0.00000000000E+00 0.  1.
</event>
<event>
12    1  0.9017558E-003  0.2261520E+03  0.7818608E-02  0.1129756E+00
         21   -1    0    0  501  502  0.00000000000E+00  0.00000000000E+00  0.39610291811E+02  0.39610291811E+02  0.00000000000E+00 0.  1.
         21   -1    0    0  502  503 -0.00000000000E+00 -0.00000000000E+00 -0.17538383251E+04  0.17538383251E+04  0.00000000000E+00 0. -1.
          6    2    1    2  501    0  0.11094538230E+03  0.87897096745E+02 -0.39357202013E+03  0.45392032147E+03  0.17638011720E+03 0.  0.
         24    2    3    3    0    0  0.12311348858E+03  0.98997249993E+02 -0.23501029435E+03  0.29443619343E+03  0.80656351141E+02 0.  0.
         -6    2    1    2    0  503 -0.11094538230E+03 -0.87897096745E+02 -0.13206560131E+04  0.13395282954E+04  0.17369217519E+03 0.  0.
        -24    2    5    5    0    0 -0.84941072326E+02 -0.16056432690E+02 -0.43916234269E+03  0.45471730646E+03  0.80196451018E+02 0.  0.
          5    1    3    3  501    0 -0.12168106273E+02 -0.11100153248E+02 -0.15856172578E+03  0.15948412803E+03  0.47000000000E+01 0. -1.
        -11    1    4    4    0    0  0.77903725182E+02  0.10314550458E+03 -0.19483254892E+03  0.23381126498E+03  0.00000000000E+00 0.  1.
         12    1    4    4    0    0  0.45209763395E+02 -0.41482545913E+01 -0.40177745423E+02  0.60624928451E+02  0.00000000000E+00 0. -1.
         -5    1    5    5    0  503 -0.26004309978E+02 -0.71840664055E+02 -0.88149367046E+03  0.88481098897E+03  0.47000000000E+01 0.  1.
         11    1    6    6    0    0 -0.69159216204E+02  0.16374821271E+02 -0.36948721974E+03  0.37626046498E+03  0.00000000000E+00 0. -1.
        -12    1    6    6    0    0 -0.15781856122E+02 -0.32431253961E+02 -0.69675122955E+02  0.78456841479E+02  0.00000000000E+00 0.  1.
</event>
<event>
12    1  0.9017558E-003  0.2196949E+03  0.7818608E-02  0.1134309E+00
         21   -1    0    0  501  502  0.00000000000E+00  0.00000000000E+00  0.67980820899E+02  0.67980820899E+02  0.00000000000E+00 0.  1.
         21   -1    0    0  502  503 -0.00000000000E+00 -0.00000000000E+00 -0.76971628142E+03  0.76971628142E+03  0.00000000000E+00 0.  1.
          6    2    1    2  501    0  0.13516306729E+03 -0.36332788699E+00 -0.23012473185E+03  0.31742552793E+03  0.17184989615E+03 0.  0.
         24    2    3    3    0    0  0.14912646237E+03  0.32506094731E+02 -0.15373885880E+03  0.23297277814E+03  0.85704904624E+02 0.  0.
         -6    2    1    2    0  503 -0.13516306729E+03  0.36332788699E+00 -0.47161072867E+03  0.52027157438E+03  0.17319539530E+03 0.  0.
        -24    2    5    5    0    0 -0.11277876514E+03  0.63438999697E+02 -0.35909458304E+03  0.38926939737E+03  0.76408033655E+02 0.  0.
          5    1    3    3  501    0 -0.13963395078E+02 -0.32869422618E+02 -0.76385873046E+02  0.84452749785E+02  0.47000000000E+01 0. -1.
        -13    1    4    4    0    0  0.15060609593E+03  0.10770763352E+02 -0.14548452207E+03  0.20967582511E+03  0.00000000000E+00 0.  1.
         14    1    4    4    0    0 -0.14796335609E+01  0.21735331379E+02 -0.82543367316E+01  0.23296953031E+02  0.00000000000E+00 0. -1.
         -5    1    5    5    0  503 -0.22384302149E+02 -0.63075671810E+02 -0.11251614562E+03  0.13100217702E+03  0.47000000000E+01 0.  1.
         11    1    6    6    0    0 -0.16401364104E+02  0.46801698219E+02 -0.15894714039E+03  0.16650404542E+03  0.00000000000E+00 0. -1.
        -12    1    6    6    0    0 -0.96377401037E+02  0.16637301478E+02 -0.20014744265E+03  0.22276535195E+03  0.00000000000E+00 0.  1.
</event>
<event>
12    1  0.9017558E-003  0.2139349E+03  0.7818608E-02  0.1138526E+00
         21   -1    0    0  501  502  0.00000000000E+00  0.00000000000E+00  0.17284601046E+03  0.17284601046E+03  0.00000000000E+00 0. -1.
         21   -1    0    0  502  503 -0.00000000000E+00 -0.00000000000E+00 -0.32540240918E+03  0.32540240918E+03  0.00000000000E+00 0.  1.
          6    2    1    2  501    0 -0.25303197526E+02 -0.12424632920E+03  0.31489494657E+02  0.21604100400E+03  0.17206023657E+03 0.  0.
         24    2    3    3    0    0 -0.69612656314E+02 -0.51437893248E+02  0.50789971482E+02  0.12852532032E+03  0.80295441835E+02 0.  0.
         -6    2    1    2    0  503  0.25303197526E+02  0.12424632920E+03 -0.18404589338E+03  0.28220741565E+03  0.17230998942E+03 0.  0.
        -24    2    5    5    0    0 -0.48165072286E+02  0.92341521343E+02 -0.13321287477E+03  0.18722536885E+03  0.80379338041E+02 0.  0.
          5    1    3    3  501    0  0.44309458788E+02 -0.72808435948E+02 -0.19300476825E+02  0.87515683674E+02  0.47000000000E+01 0. -1.
        -11    1    4    4    0    0 -0.53746750953E+02 -0.72523320298E+02  0.47293033107E+02  0.10190670344E+03  0.00000000000E+00 0.  1.
         12    1    4    4    0    0 -0.15865905361E+02  0.21085427050E+02  0.34969383753E+01  0.26618616884E+02  0.00000000000E+00 0. -1.
         -5    1    5    5    0  503  0.73468269812E+02  0.31904807854E+02 -0.50833018613E+02  0.94982046802E+02  0.47000000000E+01 0.  1.
         11    1    6    6    0    0  0.15261919994E+02  0.49693974788E+02 -0.74508186917E+02  0.90850906708E+02  0.00000000000E+00 0. -1.
        -12    1    6    6    0    0 -0.63426992280E+02  0.42647546555E+02 -0.58704687851E+02  0.96374462139E+02  0.00000000000E+00 0.  1.
</event>
<event>
12    1  0.9017558E-003  0.2313902E+03  0.7818608E-02  0.1125747E+00
         21   -1    0    0  503  502  0.00000000000E+00  0.00000000000E+00  0.55727704864E+02  0.55727704864E+02  0.00000000000E+00 0.  1.
         21   -1    0    0  501  503 -0.00000000000E+00 -0.00000000000E+00 -0.95944776817E+03  0.95944776817E+03  0.00000000000E+00 0.  1.
          6    2    1    2  501    0 -0.14750164618E+03  0.42552577817E+02 -0.43927750983E+03  0.49649384249E+03  0.17312985728E+03 0.  0.
         24    2    3    3    0    0 -0.14724058548E+03  0.55123493193E+02 -0.44735497155E+03  0.48082759042E+03  0.79688842544E+02 0.  0.
         -6    2    1    2    0  502  0.14750164618E+03 -0.42552577817E+02 -0.46444255347E+03  0.51868163054E+03  0.17250011850E+03 0.  0.
        -24    2    5    5    0    0  0.66885292802E+02  0.23236015863E+02 -0.33960789264E+03  0.35609959576E+03  0.80373170449E+02 0.  0.
          5    1    3    3  501    0 -0.26106069560E+00 -0.12570915375E+02  0.80774617161E+01  0.15666252067E+02  0.47000000000E+01 0. -1.
        -13    1    4    4    0    0 -0.38565209789E+02  0.26644739375E+01 -0.38589456513E+02  0.54621616430E+02  0.00000000000E+00 0.  1.
         14    1    4    4    0    0 -0.10867537569E+03  0.52459019255E+02 -0.40876551504E+03  0.42620597399E+03  0.00000000000E+00 0. -1.
         -5    1    5    5    0  502  0.80616353376E+02 -0.65788593681E+02 -0.12483466083E+03  0.16258203478E+03  0.47000000000E+01 0.  1.
         11    1    6    6    0    0 -0.16428024277E+01  0.30365928606E+02 -0.50969704679E+02  0.59352331167E+02  0.00000000000E+00 0. -1.
        -12    1    6    6    0    0  0.68528095230E+02 -0.71299127430E+01 -0.28863818796E+03  0.29674726459E+03  0.00000000000E+00 0.  1.
</event>
<event>
12    1  0.9017558E-003  0.3720548E+03  0.7818608E-02  0.1054032E+00
         21   -1    0    0  501  502  0.00000000000E+00  0.00000000000E+00  0.97944973435E+03  0.97944973435E+03  0.00000000000E+00 0.  1.
         21   -1    0    0  502  503 -0.00000000000E+00 -0.00000000000E+00 -0.17060594244E+03  0.17060594244E+03  0.00000000000E+00 0. -1.
          6    2    1    2  501    0  0.50062255066E+02  0.32470979401E+03  0.64518001602E+03  0.74476976549E+03  0.17459115332E+03 0.  0.
         24    2    3    3    0    0 -0.23754025675E+02  0.21915513567E+03  0.48845029154E+03  0.54184878153E+03  0.80144790903E+02 0.  0.
         -6    2    1    2    0  503 -0.50062255066E+02 -0.32470979401E+03  0.16366377590E+03  0.40528591130E+03  0.17183759382E+03 0.  0.
        -24    2    5    5    0    0 -0.72065911454E+02 -0.31596083283E+03  0.11974978218E+03  0.35517369662E+03  0.82362618717E+02 0.  0.
          5    1    3    3  501    0  0.73816280741E+02  0.10555465834E+03  0.15672972447E+03  0.20292098396E+03  0.47000000000E+01 0. -1.
        -11    1    4    4    0    0  0.14715010522E+02  0.11492394376E+03  0.18067094517E+03  0.21462999514E+03  0.00000000000E+00 0.  1.
         12    1    4    4    0    0 -0.38469036196E+02  0.10423119191E+03  0.30777934637E+03  0.32721878639E+03  0.00000000000E+00 0. -1.
         -5    1    5    5    0  503  0.22003656388E+02 -0.87489611746E+01  0.43913993712E+02  0.50112214677E+02  0.47000000000E+01 0.  1.
         11    1    6    6    0    0  0.16088588236E+01 -0.11866993433E+03  0.73369607146E+02  0.13952863861E+03  0.00000000000E+00 0. -1.
        -12    1    6    6    0    0 -0.73674770278E+02 -0.19729089850E+03  0.46380175038E+02  0.21564505801E+03  0.00000000000E+00 0.  1.
</event>
<event>
12    1  0.9017558E-003  0.2660931E+03  0.7818608E-02  0.1103544E+00
         21   -1    0    0  501  502  0.00000000000E+00  0.00000000000E+00  0.49650214309E+03  0.49650214309E+03  0.00000000000E+00 0. -1.
         21   -1    0    0  502  503 -0.00000000000E+00 -0.00000000000E+00 -0.14285357065E+03  0.14285357065E+03  0.00000000000E+00 0. -1.
          6    2    1    2  501    0  0.12883624747E+03 -0.15693547195E+03  0.16286625854E+03  0.31197912398E+03  0.17198265789E+03 0.  0.
         24    2    3    3    0    0 -0.30829218080E+01 -0.36056019082E+02  0.48481435889E+02  0.99563288886E+02  0.79075014695E+02 0.  0.
         -6    2    1    2    0  503 -0.12883624747E+03  0.15693547195E+03  0.19078231390E+03  0.32737658975E+03  0.17190119023E+03 0.  0.
        -24    2    5    5    0    0 -0.15911159644E+03  0.11035203827E+03  0.14232735384E+03  0.25350788052E+03  0.80716153050E+02 0.  0.
          5    1    3    3  501    0  0.13191916927E+03 -0.12087945287E+03  0.11438482265E+03  0.21241583510E+03  0.47000000000E+01 0. -1.
        -11    1    4    4    0    0  0.30500862391E+02  0.45873611775E+01  0.31710311586E+02  0.44236753386E+02  0.00000000000E+00 0.  1.
         12    1    4    4    0    0 -0.33583784199E+02 -0.40643380260E+02  0.16771124303E+02  0.55326535500E+02  0.00000000000E+00 0. -1.
         -5    1    5    5    0  503  0.30275348975E+02  0.46583433675E+02  0.48454960069E+02  0.73868709233E+02  0.47000000000E+01 0.  1.
         11    1    6    6    0    0 -0.12867009984E+03  0.10400015821E+03  0.79822124256E+02  0.18369430863E+03  0.00000000000E+00 0. -1.
        -12    1    6    6    0    0 -0.30441496596E+02  0.63518800605E+01  0.62505229580E+02  0.69813571891E+02  0.00000000000E+00 0.  1.
</event>
<event>
12    1  0.9017558E-003  0.1925731E+03  0.7818608E-02  0.1156320E+00
         21   -1    0    0  503  502  0.00000000000E+00  0.00000000000E+00  0.18578058562E+03  0.18578058562E+03  0.00000000000E+00 0. -1.
         21   -1    0    0  501  503 -0.00000000000E+00 -0.00000000000E+00 -0.59227564676E+03  0.59227564676E+03  0.00000000000E+00 0. -1.
          6    2    1    2  501    0  0.65159305115E+02 -0.56534062708E+02 -0.52017753994E+03  0.55443133053E+03  0.17136975208E+03 0.  0.
         24    2    3    3    0    0  0.31602457845E+02 -0.96516515809E+02 -0.21913171654E+03  0.24885754838E+03  0.59976804049E+02 0.  0.
         -6    2    1    2    0  502 -0.65159305115E+02  0.56534062708E+02  0.11368247880E+03  0.22362490185E+03  0.17217013519E+03 0.  0.
        -24    2    5    5    0    0 -0.38572598589E+02  0.74165998561E+02  0.14056360781E+03  0.18164367720E+03  0.79043386339E+02 0.  0.
          5    1    3    3  501    0  0.33556847270E+02  0.39982453101E+02 -0.30104582340E+03  0.30557378215E+03  0.47000000000E+01 0. -1.
        -11    1    4    4    0    0 -0.68229800040E+01 -0.47238796407E+02 -0.14070714901E+03  0.14858182501E+03  0.00000000000E+00 0.  1.
         12    1    4    4    0    0  0.38425437849E+02 -0.49277719402E+02 -0.78424567530E+02  0.10027572336E+03  0.00000000000E+00 0. -1.
         -5    1    5    5    0  502 -0.26586706526E+02 -0.17631935854E+02 -0.26881129011E+02  0.41981224646E+02  0.47000000000E+01 0.  1.
         13    1    6    6    0    0 -0.59435157209E+02  0.52203832694E+02  0.73178093443E+02  0.10776275526E+03  0.00000000000E+00 0. -1.
        -14    1    6    6    0    0  0.20862558621E+02  0.21962165867E+02  0.67385514363E+02  0.73880921947E+02  0.00000000000E+00 0.  1.
</event>
<event>
12    1  0.9017558E-003  0.2068959E+03  0.7818608E-02  0.1144665E+00
         21   -1    0    0  501  502  0.00000000000E+00  0.00000000000E+00  0.82474277378E+02  0.82474277378E+02  0.00000000000E+00 0. -1.
         21   -1    0    0  502  503 -0.00000000000E+00 -0.00000000000E+00 -0.64773096066E+03  0.64773096066E+03  0.00000000000E+00 0. -1.
          6    2    1    2  501    0 -0.57408133866E+02  0.93326873351E+02 -0.11350753625E+03  0.23333179943E+03  0.17191325928E+03 0.  0.
         24    2    3    3    0    0 -0.30517296160E+02  0.13046814764E+03 -0.75536093496E+02  0.17361151918E+03  0.80510963570E+02 0.  0.
         -6    2    1    2    0  503  0.57408133866E+02 -0.93326873351E+02 -0.45174914703E+03  0.49687343861E+03  0.17550020806E+03 0.  0.
        -24    2    5    5    0    0  0.59060746771E+02 -0.51605775000E+02 -0.43884521658E+03  0.45291911461E+03  0.79995452636E+02 0.  0.
          5    1    3    3  501    0 -0.26890837706E+02 -0.37141274293E+02 -0.37971442756E+02  0.59720280254E+02  0.47000000000E+01 0. -1.
        -13    1    4    4    0    0 -0.53176068988E+01 -0.40850444148E+01 -0.27857957963E+02  0.28653627220E+02  0.00000000000E+00 0.  1.
         14    1    4    4    0    0 -0.25199689261E+02  0.13455319206E+03 -0.47678135534E+02  0.14495789196E+03  0.00000000000E+00 0. -1.
         -5    1    5    5    0  503 -0.16526129050E+01 -0.41721098351E+02 -0.12903930449E+02  0.43954323997E+02  0.47000000000E+01 0.  1.
         11    1    6    6    0    0 -0.11987406529E+02  0.41551098459E+01 -0.15418641976E+02  0.19967407781E+02  0.00000000000E+00 0. -1.
        -12    1    6    6    0    0  0.71048153299E+02 -0.55760884846E+02 -0.42342657460E+03  0.43295170683E+03  0.00000000000E+00 0.  1.
</event>
<event>
12    1  0.9017558E-003  0.2037749E+03  0.7818608E-02  0.1146733E+00
         21   -1    0    0  503  502  0.00000000000E+00  0.00000000000E+00  0.58373629064E+02  0.58373629064E+02  0.00000000000E+00 0. -1.
         21   -1    0    0  501  503 -0.00000000000E+00 -0.00000000000E+00 -0.11357146646E+04  0.11357146646E+04  0.00000000000E+00 0. -1.
          6    2    1    2  501    0  0.10282143997E+03 -0.77834109460E+01 -0.90521076527E+03  0.92786354488E+03  0.17575949008E+03 0.  0.
         24    2    3    3    0    0  0.17362261495E+02  0.65822779273E+01 -0.70317095578E+03  0.70797307483E+03  0.80197924644E+02 0.  0.
         -6    2    1    2    0  502 -0.10282143997E+03  0.77834109460E+01 -0.17213027026E+03  0.26622474878E+03  0.17496844549E+03 0.  0.
        -24    2    5    5    0    0 -0.10618903017E+03 -0.52495709397E+02 -0.11405153036E+03  0.18231918853E+03  0.78744049254E+02 0.  0.
          5    1    3    3  501    0  0.85459178476E+02 -0.14365688873E+02 -0.20203980949E+03  0.21989047005E+03  0.47000000000E+01 0. -1.
        -13    1    4    4    0    0 -0.22195478293E+02 -0.11565417966E+02 -0.94825469677E+02  0.98072768131E+02  0.00000000000E+00 0.  1.
         14    1    4    4    0    0  0.39557739788E+02  0.18147695893E+02 -0.60834548611E+03  0.60990030670E+03  0.00000000000E+00 0. -1.
         -5    1    5    5    0  502  0.33675901997E+01  0.60279120343E+02 -0.58078739895E+02  0.83905560250E+02  0.47000000000E+01 0.  1.
         11    1    6    6    0    0 -0.44065712022E+01  0.68542352830E+01  0.88732350070E+01  0.12047103825E+02  0.00000000000E+00 0. -1.
        -12    1    6    6    0    0 -0.10178245897E+03 -0.59349944680E+02 -0.12292476537E+03  0.17027208470E+03  0.00000000000E+00 0.  1.
</event>
<event>
12    1  0.9017558E-003  0.2104359E+03  0.7818608E-02  0.1141251E+00
         21   -1    0    0  503  502  0.00000000000E+00  0.00000000000E+00  0.96860115400E+02  0.96860115400E+02  0.00000000000E+00 0.  1.
         21   -1    0    0  501  503 -0.00000000000E+00 -0.00000000000E+00 -0.53889807569E+03  0.53889807569E+03  0.00000000000E+00 0.  1.
          6    2    1    2  501    0 -0.38184320196E+02 -0.11485389200E+03 -0.34511297799E+03  0.40421061012E+03  0.17214468026E+03 0.  0.
         24    2    3    3    0    0 -0.86192301400E+02 -0.92511545068E+02 -0.19384043373E+03  0.24386903918E+03  0.76879748502E+02 0.  0.
         -6    2    1    2    0  502  0.38184320196E+02  0.11485389200E+03 -0.96924982307E+02  0.23154758097E+03  0.17196037696E+03 0.  0.
        -24    2    5    5    0    0 -0.45216041949E+02  0.26901518960E+02 -0.32071911594E+02  0.94000312336E+02  0.70987809053E+02 0.  0.
          5    1    3    3  501    0  0.48007981204E+02 -0.22342346931E+02 -0.15127254425E+03  0.16034157093E+03  0.47000000000E+01 0. -1.
        -13    1    4    4    0    0 -0.23208121662E+02 -0.34067941960E+02 -0.13123751393E+03  0.13755917506E+03  0.00000000000E+00 0.  1.
         14    1    4    4    0    0 -0.62984179739E+02 -0.58443603108E+02 -0.62602919802E+02  0.10630986412E+03  0.00000000000E+00 0. -1.
         -5    1    5    5    0  502  0.83400362145E+02  0.87952373039E+02 -0.64853070713E+02  0.13754726864E+03  0.47000000000E+01 0.  1.
         13    1    6    6    0    0 -0.40210039083E+02 -0.16724166372E+02 -0.22656265798E+02  0.49090236950E+02  0.00000000000E+00 0. -1.
        -14    1    6    6    0    0 -0.50060028653E+01  0.43625685333E+02 -0.94156457965E+01  0.44910075386E+02  0.00000000000E+00 0.  1.
</event>
<event>
12    1  0.9017558E-003  0.2393797E+03  0.7818608E-02  0.1120378E+00
         21   -1    0    0  503  502  0.00000000000E+00  0.00000000000E+00  0.23715923775E+03  0.23715923775E+03  0.00000000000E+00 0.  1.
         21   -1    0    0  501  503 -0.00000000000E+00 -0.00000000000E+00 -0.24943337100E+03  0.24943337100E+03  0.00000000000E+00 0. -1.
          6    2    1    2  501    0  0.16527517322E+03  0.86875187522E+01  0.39660575426E+02  0.24264291591E+03  0.17294874251E+03 0.  0.
         24    2    3    3    0    0  0.12251509530E+03 -0.52737534059E+02 -0.59470743689E+01  0.15487270972E+03  0.78479248506E+02 0.  0.
         -6    2    1    2    0  502 -0.16527517322E+03 -0.86875187522E+01 -0.51934708673E+02  0.24394969284E+03  0.17153099664E+03 0.  0.
        -24    2    5    5    0    0 -0.12441073020E+03  0.51561409391E+02 -0.23364119715E+01  0.15573451795E+03  0.78173988848E+02 0.  0.
          5    1    3    3  501    0  0.42760077917E+02  0.61425052811E+02  0.45607649795E+02  0.87770206199E+02  0.47000000000E+01 0. -1.
        -13    1    4    4    0    0  0.33933861588E+02 -0.25930960773E+02  0.33489490693E+02  0.54272162991E+02  0.00000000000E+00 0.  1.
         14    1    4    4    0    0  0.88581233713E+02 -0.26806573286E+02 -0.39436565062E+02  0.10060054673E+03  0.00000000000E+00 0. -1.
         -5    1    5    5    0  502 -0.40864443019E+02 -0.60248928143E+02 -0.49598296702E+02  0.88215174893E+02  0.47000000000E+01 0.  1.
         13    1    6    6    0    0 -0.57720741874E+02  0.58728435006E+02  0.20537371032E+02  0.84867524588E+02  0.00000000000E+00 0. -1.
        -14    1    6    6    0    0 -0.66689988324E+02 -0.71670256155E+01 -0.22873783003E+02  0.70866993359E+02  0.00000000000E+00 0.  1.
</event>
<event>
12    1  0.9017558E-003  0.2939173E+03  0.7818608E-02  0.1088414E+00
         21   -1    0    0  503  502  0.00000000000E+00  0.00000000000E+00  0.38889683608E+03  0.38889683608E+03  0.00000000000E+00 0. -1.
         21   -1    0    0  501  503 -0.00000000000E+00 -0.00000000000E+00 -0.22159093747E+03  0.22159093747E+03  0.00000000000E+00 0. -1.
          6    2    1    2  501    0  0.21586366292E+02  0.23742374473E+03  0.83282356584E+02  0.30479616343E+03  0.17067145207E+03 0.  0.
         24    2    3    3    0    0  0.78296920212E+02  0.14287100337E+03  0.31459923585E+02  0.18287831245E+03  0.76890955618E+02 0.  0.
         -6    2    1    2    0  502 -0.21586366292E+02 -0.23742374473E+03  0.84023542020E+02  0.30569161012E+03  0.17190520385E+03 0.  0.
        -24    2    5    5    0    0 -0.42845928565E+01 -0.25528780862E+03  0.72529715619E+02  0.27789459251E+03  0.82308091534E+02 0.  0.
          5    1    3    3  501    0 -0.56710553920E+02  0.94552741362E+02  0.51822432998E+02  0.12191785098E+03  0.47000000000E+01 0. -1.
        -11    1    4    4    0    0  0.18640126371E+02 -0.44774520052E+01 -0.49412269196E+01  0.19796909129E+02  0.00000000000E+00 0.  1.
         12    1    4    4    0    0  0.59656793840E+02  0.14734845537E+03  0.36401150505E+02  0.16308140332E+03  0.00000000000E+00 0. -1.
         -5    1    5    5    0  502 -0.17301773436E+02  0.17864063887E+02  0.11493826401E+02  0.27797017608E+02  0.47000000000E+01 0.  1.
         13    1    6    6    0    0 -0.41512363156E+02 -0.10028726796E+03  0.36002219906E+02  0.11435458997E+03  0.00000000000E+00 0. -1.
        -14    1    6    6    0    0  0.37227770300E+02 -0.15500054066E+03  0.36527495713E+02  0.16354000254E+03  0.00000000000E+00 0.  1.
</event>
<event>
12    1  0.9017558E-003  0.2012033E+03  0.7818608E-02  0.1149571E+00
         21   -1    0    0  503  502  0.00000000000E+00  0.00000000000E+00  0.37867661865E+02  0.37867661865E+02  0.00000000000E+00 0.  1.
         21   -1    0    0  501  503 -0.00000000000E+00 -0.00000000000E+00 -0.10903288653E+04  0.10903288653E+04  0.00000000000E+00 0. -1.
          6    2    1    2  501    0 -0.22608094497E+02 -0.10221124841E+03 -0.42012153686E+03  0.46581636019E+03  0.17182697824E+03 0.  0.
         24    2    3    3    0    0  0.23768180318E+02 -0.54496131231E+02 -0.36622341560E+03  0.38005746124E+03  0.82397384649E+02 0.  0.
         -6    2    1    2    0  502  0.22608094497E+02  0.10221124841E+03 -0.63233966662E+03  0.66238016701E+03  0.16713996062E+03 0.  0.
        -24    2    5    5    0    0  0.10743035343E+01  0.22376994827E+02 -0.13636297485E+03  0.15953607490E+03  0.79718343301E+02 0.  0.
          5    1    3    3  501    0 -0.46376274815E+02 -0.47715117184E+02 -0.53898121256E+02  0.85758898947E+02  0.47000000000E+01 0. -1.
        -13    1    4    4    0    0 -0.17293224534E+01 -0.10497422897E+02 -0.32677897014E+00  0.10643929167E+02  0.00000000000E+00 0.  1.
         14    1    4    4    0    0  0.25497502771E+02 -0.43998708334E+02 -0.36589663663E+03  0.36941353207E+03  0.00000000000E+00 0. -1.
         -5    1    5    5    0  502  0.21533790963E+02  0.79834253588E+02 -0.49597669177E+03  0.50284409212E+03  0.47000000000E+01 0.  1.
         13    1    6    6    0    0  0.33885146902E+02 -0.52559415815E+01 -0.90303563198E+02  0.96594832309E+02  0.00000000000E+00 0. -1.
        -14    1    6    6    0    0 -0.32810843368E+02  0.27632936409E+02 -0.46059411652E+02  0.62941242590E+02  0.00000000000E+00 0.  1.
</event>
<event>
12    1  0.9017558E-003  0.2010578E+03  0.7818608E-02  0.1149909E+00
         21   -1    0    0  501  502  0.00000000000E+00  0.00000000000E+00  0.12210960300E+03  0.12210960300E+03  0.00000000000E+00 0. -1.
         21   -1    0    0  502  503 -0.00000000000E+00 -0.00000000000E+00 -0.33012235009E+03  0.33012235009E+03  0.00000000000E+00 0.  1.
          6    2    1    2  501    0  0.39390005822E+02 -0.82085390647E+02 -0.71805016589E+02  0.21349521394E+03  0.17926143492E+03 0.  0.
         24    2    3    3    0    0 -0.20470203903E+02 -0.82642747014E+02 -0.94757295736E+02  0.14921105980E+03  0.77692614775E+02 0.  0.
         -6    2    1    2    0  503 -0.39390005822E+02  0.82085390647E+02 -0.13620773050E+03  0.23873673915E+03  0.17364648242E+03 0.  0.
        -24    2    5    5    0    0 -0.58638491291E+01  0.11982160042E+03 -0.98476623658E+02  0.17554060688E+03  0.82007674042E+02 0.  0.
          5    1    3    3  501    0  0.59860209725E+02  0.55735636791E+00  0.22952279148E+02  0.64284154133E+02  0.47000000000E+01 0. -1.
        -13    1    4    4    0    0 -0.36102734403E+02 -0.23879091525E+02 -0.92096888020E+01  0.44254229304E+02  0.00000000000E+00 0.  1.
         14    1    4    4    0    0  0.15632530500E+02 -0.58763655489E+02 -0.85547606934E+02  0.10495683050E+03  0.00000000000E+00 0. -1.
         -5    1    5    5    0  503 -0.33526156693E+02 -0.37736209775E+02 -0.37731106843E+02  0.63196132274E+02  0.47000000000E+01 0.  1.
         13    1    6    6    0    0  0.37185425088E+02  0.63536999976E+02 -0.40760418216E+02  0.84149378477E+02  0.00000000000E+00 0. -1.
        -14    1    6    6    0    0 -0.43049274217E+02  0.56284600446E+02 -0.57716205442E+02  0.91391228401E+02  0.00000000000E+00 0.  1.
</event>
<event>
12    1  0.9017558E-003  0.1976990E+03  0.7818608E-02  0.1151746E+00
         21   -1    0    0  501  502  0.00000000000E+00  0.00000000000E+00  0.17154063626E+03  0.17154063626E+03  0.00000000000E+00 0. -1.
         21   -1    0    0  502  503 -0.00000000000E+00 -0.00000000000E+00 -0.24091525657E+03  0.24091525657E+03  0.00000000000E+00 0. -1.
          6    2    1    2  501    0  0.81073540320E+02  0.52253621685E+02  0.13871384473E+02  0.19794528371E+03  0.17229788192E+03 0.  0.
         24    2    3    3    0    0  0.11879750823E+03  0.67780533367E+02  0.96192461049E+01  0.15666146821E+03  0.75784147813E+02 0.  0.
         -6    2    1    2    0  503 -0.81073540320E+02 -0.52253621685E+02 -0.83246004783E+02  0.21451060912E+03  0.17257330093E+03 0.  0.
        -24    2    5    5    0    0 -0.73573449056E+02 -0.10080098276E+03 -0.64988323263E+02  0.16189378130E+03  0.80076361876E+02 0.  0.
          5    1    3    3  501    0 -0.37723967912E+02 -0.15526911682E+02  0.42521383679E+01  0.41283815498E+02  0.47000000000E+01 0. -1.
        -13    1    4    4    0    0  0.83148112140E+02  0.20343312987E+02 -0.23416772262E+02  0.88745727553E+02  0.00000000000E+00 0.  1.
         14    1    4    4    0    0  0.35649396091E+02  0.47437220380E+02  0.33036018367E+02  0.67915740655E+02  0.00000000000E+00 0. -1.
         -5    1    5    5    0  503 -0.75000912642E+01  0.48547361072E+02 -0.18257681520E+02  0.52616827826E+02  0.47000000000E+01 0.  1.
         13    1    6    6    0    0 -0.15656305148E+02 -0.78890438878E+02 -0.58864361499E+02  0.99668622404E+02  0.00000000000E+00 0. -1.
        -14    1    6    6    0    0 -0.57917143907E+02 -0.21910543878E+02 -0.61239617638E+01  0.62225158892E+02  0.00000000000E+00 0.  1.
</event>
<event>
12    1  0.9017558E-003  0.1807951E+03  0.7818608E-02  0.1167128E+00
         21   -1    0    0  503  502  0.00000000000E+00  0.00000000000E+00  0.71853707505E+02  0.71853707505E+02  0.00000000000E+00 0. -1.
         21   -1    0    0  501  503 -0.00000000000E+00 -0.00000000000E+00 -0.46330110919E+03  0.46330110919E+03  0.00000000000E+00 0.  1.
          6    2    1    2  501    0 -0.33711104553E+02  0.41177057059E+02 -0.23394903046E+03  0.29566707037E+03  0.17278564480E+03 0.  0.
         24    2    3    3    0    0  0.43204139427E+01 -0.33766892195E+02 -0.70383951467E+02  0.11171431286E+03  0.79795476618E+02 0.  0.
         -6    2    1    2    0  502  0.33711104553E+02 -0.41177057059E+02 -0.15749837123E+03  0.23948774633E+03  0.17238519398E+03 0.  0.
        -24    2    5    5    0    0 -0.31866327500E+02 -0.19424352730E+02 -0.26506757482E+02  0.91317328863E+02  0.79015682312E+02 0.  0.
          5    1    3    3  501    0 -0.38031518495E+02  0.74943949254E+02 -0.16356507900E+03  0.18395275751E+03  0.47000000000E+01 0. -1.
        -13    1    4    4    0    0 -0.93246598751E+01 -0.48475715233E+02 -0.76229017616E+02  0.90816889265E+02  0.00000000000E+00 0.  1.
         14    1    4    4    0    0  0.13645073818E+02  0.14708823038E+02  0.58450661491E+01  0.20897423596E+02  0.00000000000E+00 0. -1.
         -5    1    5    5    0  502  0.65577432053E+02 -0.21752704329E+02 -0.13099161374E+03  0.14817041746E+03  0.47000000000E+01 0.  1.
         13    1    6    6    0    0  0.24182392998E+02  0.16456578112E+01  0.32457258662E+01  0.24454673523E+02  0.00000000000E+00 0. -1.
        -14    1    6    6    0    0 -0.56048720498E+02 -0.21070010541E+02 -0.29752483348E+02  0.66862655340E+02  0.00000000000E+00 0.  1.
</event>
<event>
12    1  0.9017558E-003  0.3162386E+03  0.7818608E-02  0.1077423E+00
         21   -1    0    0  503  502  0.00000000000E+00  0.00000000000E+00  0.46409003102E+03  0.46409003102E+03  0.00000000000E+00 0. -1.
         21   -1    0    0  501  503 -0.00000000000E+00 -0.00000000000E+00 -0.21556695631E+03  0.21556695631E+03  0.00000000000E+00 0.  1.
          6    2    1    2  501    0  0.23733919632E+03 -0.11851594496E+03  0.13581785745E+03  0.34417047915E+03  0.17213629772E+03 0.  0.
         24    2    3    3    0    0  0.13424913162E+03 -0.69748976675E+01  0.31088406027E+02  0.15961882061E+03  0.80250858979E+02 0.  0.
         -6    2    1    2    0  502 -0.23733919632E+03  0.11851594496E+03  0.11270521726E+03  0.33548650818E+03  0.17167646273E+03 0.  0.
        -24    2    5    5    0    0 -0.23823947902E+03  0.83649142417E+02  0.13134169617E+03  0.29566298781E+03  0.80067052027E+02 0.  0.
          5    1    3    3  501    0  0.10309006470E+03 -0.11154104729E+03  0.10472945143E+03  0.18455165853E+03  0.47000000000E+01 0. -1.
        -11    1    4    4    0    0  0.62437440788E+02  0.26572802269E+02  0.41706922315E+02  0.79649326435E+02  0.00000000000E+00 0.  1.
         12    1    4    4    0    0  0.71811690831E+02 -0.33547699936E+02 -0.10618516288E+02  0.79969494178E+02  0.00000000000E+00 0. -1.
         -5    1    5    5    0  502  0.90028269499E+00  0.34866802541E+02 -0.18636478914E+02  0.39823520370E+02  0.47000000000E+01 0.  1.
         11    1    6    6    0    0 -0.15023158720E+03  0.19242251477E+02  0.10241166240E+03  0.18283310047E+03  0.00000000000E+00 0. -1.
        -12    1    6    6    0    0 -0.88007891822E+02  0.64406890939E+02  0.28930033776E+02  0.11282988734E+03  0.00000000000E+00 0.  1.
</event>
<event>
12    1  0.9017558E-003  0.2610682E+03  0.7818608E-02  0.1106542E+00
         21   -1    0    0  501  502  0.00000000000E+00  0.00000000000E+00  0.69534618337E+02  0.69534618337E+02  0.00000000000E+00 0. -1.
         21   -1    0    0  502  503 -0.00000000000E+00 -0.00000000000E+00 -0.11595939803E+04  0.11595939803E+04  0.00000000000E+00 0.  1.
          6    2    1    2  501    0 -0.12408944518E+02 -0.19516545553E+03 -0.30240006486E+03  0.39933116315E+03  0.17255735772E+03 0.  0.
         24    2    3    3    0    0  0.56159921233E+02 -0.15536983389E+03 -0.19106613350E+03  0.26257329273E+03  0.71726875346E+02 0.  0.
         -6    2    1    2    0  503  0.12408944518E+02  0.19516545553E+03 -0.78765929706E+03  0.82979743544E+03  0.17295397849E+03 0.  0.
        -24    2    5    5    0    0 -0.54284905697E+02  0.10001157236E+03 -0.37151394929E+03  0.39770789424E+03  0.84851570594E+02 0.  0.
          5    1    3    3  501    0 -0.68568865750E+02 -0.39795621642E+02 -0.11133393136E+03  0.13675787043E+03  0.47000000000E+01 0. -1.
        -13    1    4    4    0    0 -0.25522151594E+01 -0.46735913540E+02 -0.95761073586E+02  0.10658772270E+03  0.00000000000E+00 0.  1.
         14    1    4    4    0    0  0.58712136392E+02 -0.10863392035E+03 -0.95305059912E+02  0.15598557002E+03  0.00000000000E+00 0. -1.
         -5    1    5    5    0  503  0.66693850214E+02  0.95153883177E+02 -0.41614534778E+03  0.43208954120E+03  0.47000000000E+01 0.  1.
         13    1    6    6    0    0 -0.39748415441E+02  0.21271991016E+02 -0.54456280601E+02  0.70695973214E+02  0.00000000000E+00 0. -1.
        -14    1    6    6    0    0 -0.14536490256E+02  0.78739581341E+02 -0.31705766868E+03  0.32701192102E+03  0.00000000000E+00 0.  1.
</event>
<event>
12    1  0.9017558E-003  0.2339161E+03  0.7818608E-02  0.1124248E+00
         21   -1    0    0  503  502  0.00000000000E+00  0.00000000000E+00  0.25004094395E+04  0.25004094395E+04  0.00000000000E+00 0.  1.
         21   -1    0    0  501  503 -0.00000000000E+00 -0.00000000000E+00 -0.26606923412E+02  0.26606923412E+02  0.00000000000E+00 0.  1.
          6    2    1    2  501    0  0.15363955260E+03 -0.37089502811E+02  0.69023222128E+03  0.72817236330E+03  0.16980497058E+03 0.  0.
         24    2    3    3    0    0  0.15415755611E+03  0.19955582534E+02  0.52882600154E+03  0.55691680029E+03  0.79602796197E+02 0.  0.
         -6    2    1    2    0  502 -0.15363955260E+03  0.37089502811E+02  0.17835702948E+04  0.17988439996E+04  0.17244128013E+03 0.  0.
        -24    2    5    5    0    0 -0.75132675737E+02 -0.30200034202E+02  0.12632572642E+04  0.12683357986E+04  0.79371414724E+02 0.  0.
          5    1    3    3  501    0 -0.51800351012E+00 -0.57045085345E+02  0.16140621974E+03  0.17125556301E+03  0.47000000000E+01 0. -1.
        -11    1    4    4    0    0  0.64828679686E+02  0.29993622174E+02  0.34465503699E+03  0.35197935963E+03  0.00000000000E+00 0.  1.
         12    1    4    4    0    0  0.89328876420E+02 -0.10038039640E+02  0.18417096454E+03  0.20493744066E+03  0.00000000000E+00 0. -1.
         -5    1    5    5    0  502 -0.78506876858E+02  0.67289537013E+02  0.52031303063E+03  0.53050820102E+03  0.47000000000E+01 0.  1.
         13    1    6    6    0    0 -0.64319219263E+02 -0.46041765117E+02  0.65243635458E+03  0.65721381823E+03  0.00000000000E+00 0. -1.
        -14    1    6    6    0    0 -0.10813456474E+02  0.15841730915E+02  0.61082090960E+03  0.61112198036E+03  0.00000000000E+00 0.  1.
</event>
<event>
12    1  0.9017558E-003  0.4745348E+03  0.7818608E-02  0.1020819E+00
         21   -1    0    0  503  502  0.00000000000E+00  0.00000000000E+00  0.15575646671E+03  0.15575646671E+03  0.00000000000E+00 0.  1.
         21   -1    0    0  501  503 -0.00000000000E+00 -0.00000000000E+00 -0.16380433133E+04  0.16380433133E+04  0.00000000000E+00 0.  1.
          6    2    1    2  501    0 -0.25132788732E+03  0.35998433591E+03 -0.10526522102E+04  0.11536676104E+04  0.17354495260E+03 0.  0.
         24    2    3    3    0    0 -0.19883023036E+03  0.26906330578E+03 -0.93604428990E+03  0.99668947566E+03  0.72680638487E+02 0.  0.
         -6    2    1    2    0  502  0.25132788732E+03 -0.35998433591E+03 -0.42963463640E+03  0.64013216963E+03  0.18008010650E+03 0.  0.
        -24    2    5    5    0    0  0.39975055217E+02 -0.12705064210E+03 -0.16016026347E+03  0.22592611823E+03  0.87472453993E+02 0.  0.
          5    1    3    3  501    0 -0.52497656958E+02  0.90921030136E+02 -0.11660792031E+03  0.15697813474E+03  0.47000000000E+01 0. -1.
        -11    1    4    4    0    0 -0.11001215768E+03  0.20553434138E+03 -0.63061461254E+03  0.67232568735E+03  0.00000000000E+00 0.  1.
         12    1    4    4    0    0 -0.88818072679E+02  0.63528964400E+02 -0.30542967736E+03  0.32436378831E+03  0.00000000000E+00 0. -1.
         -5    1    5    5    0  502  0.21135283210E+03 -0.23293369381E+03 -0.26947437294E+03  0.41420605140E+03  0.47000000000E+01 0.  1.
         11    1    6    6    0    0  0.13523629086E+02 -0.79861086154E+02 -0.15058627095E+03  0.17098803065E+03  0.00000000000E+00 0. -1.
        -12    1    6    6    0    0  0.26451426131E+02 -0.47189555943E+02 -0.95739925145E+01  0.54938087582E+02  0.00000000000E+00 0.  1.
</event>
<event>
12    1  0.9017558E-003  0.2526015E+03  0.7818608E-02  0.1111854E+00
         21   -1    0    0  503  502  0.00000000000E+00  0.00000000000E+00  0.12880687854E+03  0.12880687854E+03  0.00000000000E+00 0.  1.
         21   -1    0    0  501  503 -0.00000000000E+00 -0.00000000000E+00 -0.56273147671E+03  0.56273147671E+03  0.00000000000E+00 0. -1.
          6    2    1    2  501    0  0.16456616045E+03  0.84367967311E+02 -0.33904096685E+03  0.42279583324E+03  0.17206848733E+03 0.  0.
         24    2    3    3    0    0  0.43133699556E+02 -0.69657501661E+01 -0.18691430532E+03  0.20773235039E+03  0.79414949190E+02 0.  0.
         -6    2    1    2    0  502 -0.16456616045E+03 -0.84367967311E+02 -0.94883631323E+02  0.26874252201E+03  0.17035159104E+03 0.  0.
        -24    2    5    5    0    0 -0.34683915395E+02 -0.51186108176E+02 -0.87366407944E+02  0.13439583614E+03  0.81279516965E+02 0.  0.
          5    1    3    3  501    0  0.12143246090E+03  0.91333717478E+02 -0.15212666153E+03  0.21506348285E+03  0.47000000000E+01 0. -1.
        -11    1    4    4    0    0 -0.78120837954E+01 -0.13985156734E+02 -0.24155200543E+01  0.16200246888E+02  0.00000000000E+00 0.  1.
         12    1    4    4    0    0  0.50945783351E+02  0.70194065674E+01 -0.18449878526E+03  0.19153210350E+03  0.00000000000E+00 0. -1.
         -5    1    5    5    0  502 -0.12988224506E+03 -0.33181859136E+02 -0.75172233788E+01  0.13434668587E+03  0.47000000000E+01 0.  1.
         13    1    6    6    0    0 -0.40306422131E+02  0.89023014143E+01 -0.42059461894E+02  0.58930950869E+02  0.00000000000E+00 0. -1.
        -14    1    6    6    0    0  0.56225067353E+01 -0.60088409590E+02 -0.45306946050E+02  0.75464885274E+02  0.00000000000E+00 0.  1.
</event>
<event>
12    1  0.9017558E-003  0.2372168E+03  0.7818608E-02  0.1121777E+00
         21   -1    0    0  501  502  0.00000000000E+00  0.00000000000E+00  0.11257408157E+03  0.11257408157E+03  0.00000000000E+00 0. -1.
         21   -1    0    0  502  503 -0.00000000000E+00 -0.00000000000E+00 -0.73432688414E+03  0.73432688414E+03  0.00000000000E+00 0. -1.
          6    2    1    2  501    0  0.12289257612E+03 -0.10709919889E+03 -0.70557855501E+02  0.24682788414E+03  0.17138485857E+03 0.  0.
         24    2    3    3    0    0  0.10259154260E+03 -0.30540084585E+02  0.85551657397E+01  0.13478150947E+03  0.81456387444E+02 0.  0.
         -6    2    1    2    0  503 -0.12289257612E+03  0.10709919889E+03 -0.55119494707E+03  0.60007308157E+03  0.17233400675E+03 0.  0.
        -24    2    5    5    0    0 -0.17860152698E+02  0.87522667152E+02 -0.20137828009E+03  0.23427417362E+03  0.79699274855E+02 0.  0.
          5    1    3    3  501    0  0.20301033514E+02 -0.76559114307E+02 -0.79113021241E+02  0.11204637466E+03  0.47000000000E+01 0. -1.
        -13    1    4    4    0    0  0.44829311210E+02 -0.52427914300E+02  0.20297658559E+02  0.71905133922E+02  0.00000000000E+00 0.  1.
         14    1    4    4    0    0  0.57762231391E+02  0.21887829714E+02 -0.11742492820E+02  0.62876375552E+02  0.00000000000E+00 0. -1.
         -5    1    5    5    0  503 -0.10503242342E+03  0.19576531741E+02 -0.34981666697E+03  0.36579890795E+03  0.47000000000E+01 0.  1.
         13    1    6    6    0    0  0.12526972982E+02  0.39168391893E+02 -0.23305515127E+02  0.47267695215E+02  0.00000000000E+00 0. -1.
        -14    1    6    6    0    0 -0.30387125679E+02  0.48354275258E+02 -0.17807276497E+03  0.18700647841E+03  0.00000000000E+00 0.  1.
</event>
<event>
12    1  0.9017558E-003  0.2069199E+03  0.7818608E-02  0.1144447E+00
         21   -1    0    0  503  502  0.00000000000E+00  0.00000000000E+00  0.12250886246E+03  0.12250886246E+03  0.00000000000E+00 0. -1.
         21   -1    0    0  501  503 -0.00000000000E+00 -0.00000000000E+00 -0.34604438607E+03  0.34604438607E+03  0.00000000000E+00 0. -1.
          6    2    1    2  501    0  0.86357816867E+01  0.11458987563E+03 -0.11443439058E+03  0.23645526227E+03  0.17207685779E+03 0.  0.
         24    2    3    3    0    0  0.33966285435E+02  0.48277153030E+02 -0.12954773674E+03  0.16372621147E+03  0.80865716937E+02 0.  0.
         -6    2    1    2    0  502 -0.86357816867E+01 -0.11458987563E+03 -0.10910113303E+03  0.23209798626E+03  0.16959068865E+03 0.  0.
        -24    2    5    5    0    0 -0.24338080786E+02 -0.99243427141E+02 -0.14180850054E+03  0.19242510425E+03  0.80474653857E+02 0.  0.
          5    1    3    3  501    0 -0.25330503748E+02  0.66312722601E+02  0.15113346164E+02  0.72729050806E+02  0.47000000000E+01 0. -1.
        -13    1    4    4    0    0  0.24490323365E+02 -0.17243327770E+02 -0.63509854912E+02  0.70218302187E+02  0.00000000000E+00 0.  1.
         14    1    4    4    0    0  0.94759620700E+01  0.65520480800E+02 -0.66037881829E+02  0.93507909279E+02  0.00000000000E+00 0. -1.
         -5    1    5    5    0  502  0.15702299100E+02 -0.15346448489E+02  0.32707367506E+02  0.39672882015E+02  0.47000000000E+01 0.  1.
         11    1    6    6    0    0 -0.27117199345E+02 -0.91915199207E+02 -0.66346753657E+02  0.11655744535E+03  0.00000000000E+00 0. -1.
        -12    1    6    6    0    0  0.27791185588E+01 -0.73282279338E+01 -0.75461746880E+02  0.75867658898E+02  0.00000000000E+00 0.  1.
</event>
<event>
12    1  0.9017558E-003  0.1913520E+03  0.7818608E-02  0.1157323E+00
         21   -1    0    0  503  502  0.00000000000E+00  0.00000000000E+00  0.15473705038E+03  0.15473705038E+03  0.00000000000E+00 0. -1.
         21   -1    0    0  501  503 -0.00000000000E+00 -0.00000000000E+00 -0.25584911263E+03  0.25584911263E+03  0.00000000000E+00 0.  1.
          6    2    1    2  501    0 -0.65914731534E+02  0.46802269403E+02  0.62742442258E+01  0.19145480586E+03  0.17343694039E+03 0.  0.
         24    2    3    3    0    0 -0.60150618254E+02  0.79080981171E+02 -0.40411066068E+02  0.13421191606E+03  0.80671467651E+02 0.  0.
         -6    2    1    2    0  502  0.65914731534E+02 -0.46802269403E+02 -0.10738630647E+03  0.21913135715E+03  0.17306509935E+03 0.  0.
        -24    2    5    5    0    0 -0.22729860309E+02 -0.95867408637E+01 -0.37584027249E+01  0.77696949516E+02  0.73580827822E+02 0.  0.
          5    1    3    3  501    0 -0.57641132797E+01 -0.32278711768E+02  0.46685310294E+02  0.57242889799E+02  0.47000000000E+01 0. -1.
        -11    1    4    4    0    0 -0.19946442770E+02  0.84093771362E+02 -0.35368269941E+02  0.93383818083E+02  0.00000000000E+00 0.  1.
         12    1    4    4    0    0 -0.40204175485E+02 -0.50127901908E+01 -0.50427961270E+01  0.40828097980E+02  0.00000000000E+00 0. -1.
         -5    1    5    5    0  502  0.88644591843E+02 -0.37215528540E+02 -0.10362790374E+03  0.14143440763E+03  0.47000000000E+01 0.  1.
         13    1    6    6    0    0  0.65548684088E+01  0.55057133806E+01  0.29599661346E+02  0.30812645642E+02  0.00000000000E+00 0. -1.
        -14    1    6    6    0    0 -0.29284728718E+02 -0.15092454244E+02 -0.33358064071E+02  0.46884303874E+02  0.00000000000E+00 0.  1.
</event>
<event>
12    1  0.9017558E-003  0.1964311E+03  0.7818608E-02  0.1153917E+00
         21   -1    0    0  503  502  0.00000000000E+00  0.00000000000E+00  0.62289336729E+03  0.62289336729E+03  0.00000000000E+00 0. -1.
         21   -1    0    0  501  503 -0.00000000000E+00 -0.00000000000E+00 -0.60328476326E+02  0.60328476326E+02  0.00000000000E+00 0.  1.
          6    2    1    2  501    0  0.34071332123E+02  0.76684222403E+02  0.28657308938E+03  0.34743243353E+03  0.17760584077E+03 0.  0.
         24    2    3    3    0    0  0.30505442382E+02  0.12208094676E+03  0.20656716772E+03  0.25525534498E+03  0.81553398388E+02 0.  0.
         -6    2    1    2    0  502 -0.34071332123E+02 -0.76684222403E+02  0.27599180158E+03  0.33578941009E+03  0.17187707161E+03 0.  0.
        -24    2    5    5    0    0  0.18990112631E+02 -0.97029080306E+02  0.22922604768E+03  0.26204284474E+03  0.79665580651E+02 0.  0.
          5    1    3    3  501    0  0.35658897406E+01 -0.45396724354E+02  0.80005921662E+02  0.92177088545E+02  0.47000000000E+01 0. -1.
        -11    1    4    4    0    0 -0.12484990795E+02  0.86050773450E+02  0.86091226662E+02  0.12236139062E+03  0.00000000000E+00 0.  1.
         12    1    4    4    0    0  0.42990433177E+02  0.36030173307E+02  0.12047594106E+03  0.13289395436E+03  0.00000000000E+00 0. -1.
         -5    1    5    5    0  502 -0.53061444754E+02  0.20344857903E+02  0.46765753906E+02  0.73746565349E+02  0.47000000000E+01 0.  1.
         11    1    6    6    0    0  0.39568900221E+02 -0.88996870255E+02  0.14290000972E+03  0.17293511372E+03  0.00000000000E+00 0. -1.
        -12    1    6    6    0    0 -0.20578787590E+02 -0.80322100514E+01  0.86326037961E+02  0.89107731017E+02  0.00000000000E+00 0.  1.
</event>
<event>
12    1  0.9017558E-003  0.2070195E+03  0.7818608E-02  0.1144008E+00
         21   -1    0    0  503  502  0.00000000000E+00  0.00000000000E+00  0.81625473171E+03  0.81625473171E+03  0.00000000000E+00 0.  1.
         21   -1    0    0  501  503 -0.00000000000E+00 -0.00000000000E+00 -0.55106843356E+02  0.55106843356E+02  0.00000000000E+00 0.  1.
          6    2    1    2  501    0  0.11653835307E+03 -0.10814682414E+01  0.47687292695E+03  0.51987004076E+03  0.17109854914E+03 0.  0.
         24    2    3    3    0    0  0.41389139283E+02  0.37184424886E+02  0.12542138262E+03  0.15841193680E+03  0.79171182880E+02 0.  0.
         -6    2    1    2    0  502 -0.11653835307E+03  0.10814682414E+01  0.28427496141E+03  0.35149153430E+03  0.17073865318E+03 0.  0.
        -24    2    5    5    0    0 -0.59062438616E+02 -0.88963892931E+01  0.27508908476E+03  0.29225042768E+03  0.78541648363E+02 0.  0.
          5    1    3    3  501    0  0.75149213791E+02 -0.38265893127E+02  0.35145154433E+03  0.36145810396E+03  0.47000000000E+01 0. -1.
        -11    1    4    4    0    0 -0.15368395451E+02 -0.18292860325E+01  0.64919289723E+02  0.66738654798E+02  0.00000000000E+00 0.  1.
         12    1    4    4    0    0  0.56757534734E+02  0.39013710918E+02  0.60502092898E+02  0.91673282006E+02  0.00000000000E+00 0. -1.
         -5    1    5    5    0  502 -0.57475914459E+02  0.99778575345E+01  0.91858766480E+01  0.59241106621E+02  0.47000000000E+01 0.  1.
         11    1    6    6    0    0  0.40121135852E+01 -0.29296232664E+02  0.11996131334E+03  0.12355194455E+03  0.00000000000E+00 0. -1.
        -12    1    6    6    0    0 -0.63074552201E+02  0.20399843370E+02  0.15512777142E+03  0.16869848313E+03  0.00000000000E+00 0.  1.
</event>
<event>
12    1  0.9017558E-003  0.1716578E+03  0.7818608E-02  0.1177401E+00
         21   -1    0    0  503  502  0.00000000000E+00  0.00000000000E+00  0.21394613877E+03  0.21394613877E+03  0.00000000000E+00 0.  1.
         21   -1    0    0  501  503 -0.00000000000E+00 -0.00000000000E+00 -0.14946714760E+03  0.14946714760E+03  0.00000000000E+00 0.  1.
          6    2    1    2  501    0 -0.23016579887E+02  0.41976566534E+01 -0.26069101553E+02  0.17362604971E+03  0.17005594318E+03 0.  0.
         24    2    3    3    0    0 -0.42481972934E+02  0.59786088738E+02 -0.34798350779E+02  0.11389946350E+03  0.79894105779E+02 0.  0.
         -6    2    1    2    0  502  0.23016579887E+02 -0.41976566534E+01  0.90548092715E+02  0.18978723666E+03  0.16514495098E+03 0.  0.
        -24    2    5    5    0    0 -0.36051241160E+02  0.35766182621E+02  0.58912463966E+02  0.11162702339E+03  0.80068733791E+02 0.  0.
          5    1    3    3  501    0  0.19465393047E+02 -0.55588432085E+02  0.87292492256E+01  0.59726586209E+02  0.47000000000E+01 0. -1.
        -11    1    4    4    0    0 -0.19424690391E+02  0.23527402409E+02 -0.57654674569E+02  0.65229738315E+02  0.00000000000E+00 0.  1.
         12    1    4    4    0    0 -0.23057282543E+02  0.36258686329E+02  0.22856323791E+02  0.48669725187E+02  0.00000000000E+00 0. -1.
         -5    1    5    5    0  502  0.59067821047E+02 -0.39963839275E+02  0.31635628749E+02  0.78160213275E+02  0.47000000000E+01 0.  1.
         11    1    6    6    0    0  0.15430963642E+02  0.27159884781E+02 -0.21312739287E+01  0.31310003334E+02  0.00000000000E+00 0. -1.
        -12    1    6    6    0    0 -0.51482204802E+02  0.86062978401E+01  0.61043737895E+02  0.80317020051E+02  0.00000000000E+00 0.  1.
</event>
<event>
12    1  0.9017558E-003  0.1789733E+03  0.7818608E-02  0.1168847E+00
         21   -1    0    0  501  502  0.00000000000E+00  0.00000000000E+00  0.31024190973E+03  0.31024190973E+03  0.00000000000E+00 0. -1.
         21   -1    0    0  502  503 -0.00000000000E+00 -0.00000000000E+00 -0.10334322544E+03  0.10334322544E+03  0.00000000000E+00 0. -1.
          6    2    1    2  501    0 -0.49842852572E+02 -0.71570994534E+01  0.11275267480E+03  0.21152923389E+03  0.17174375415E+03 0.  0.
         24    2    3    3    0    0  0.35752077826E+02 -0.53309195921E+00  0.26860275710E+02  0.89997493975E+02  0.78099803166E+02 0.  0.
         -6    2    1    2    0  503  0.49842852572E+02  0.71570994534E+01  0.94146009487E+02  0.20205590128E+03  0.17154469422E+03 0.  0.
        -24    2    5    5    0    0  0.61294711332E+02  0.34961585109E+02  0.12069947690E+03  0.16166517062E+03  0.81165938646E+02 0.  0.
          5    1    3    3  501    0 -0.85594930399E+02 -0.66240074942E+01  0.85892399093E+02  0.12153173992E+03  0.47000000000E+01 0. -1.
        -11    1    4    4    0    0  0.10982169696E+02  0.10745470456E+02  0.51217907624E+02  0.53472864594E+02  0.00000000000E+00 0.  1.
         12    1    4    4    0    0  0.24769908130E+02 -0.11278562415E+02 -0.24357631914E+02  0.36524629380E+02  0.00000000000E+00 0. -1.
         -5    1    5    5    0  503 -0.11451858759E+02 -0.27804485655E+02 -0.26553467417E+02  0.40390730662E+02  0.47000000000E+01 0.  1.
         13    1    6    6    0    0  0.40293572654E+02 -0.94812117435E+01  0.13178948620E+02  0.43441340450E+02  0.00000000000E+00 0. -1.
        -14    1    6    6    0    0  0.21001138677E+02  0.44442796852E+02  0.10752052828E+03  0.11822383017E+03  0.00000000000E+00 0.  1.
</event>
<event>
12    1  0.9017558E-003  0.2067652E+03  0.7818608E-02  0.1144169E+00
         21   -1    0    0  503  502  0.00000000000E+00  0.00000000000E+00  0.15574401769E+03  0.15574401769E+03  0.00000000000E+00 0. -1.
         21   -1    0    0  501  503 -0.00000000000E+00 -0.00000000000E+00 -0.29206424433E+03  0.29206424433E+03  0.00000000000E+00 0.  1.
          6    2    1    2  501    0 -0.41677254970E+02 -0.10803212141E+03 -0.12323749035E+03  0.24070589021E+03  0.17130065299E+03 0.  0.
         24    2    3    3    0    0  0.29086406294E+01 -0.51001218457E+02 -0.19277386185E+02  0.11393752177E+03  0.10000278384E+03 0.  0.
         -6    2    1    2    0  502  0.41677254970E+02  0.10803212141E+03 -0.13082736289E+02  0.20710237182E+03  0.17120835723E+03 0.  0.
        -24    2    5    5    0    0  0.30212677690E+02  0.47046244485E+02  0.58065010352E+02  0.11257827136E+03  0.78588591674E+02 0.  0.
          5    1    3    3  501    0 -0.44585895600E+02 -0.57030902949E+02 -0.10396010416E+03  0.12676836843E+03  0.47000000000E+01 0. -1.
        -11    1    4    4    0    0  0.45341453279E+02 -0.34143623931E+02 -0.33755365178E+02  0.66038315537E+02  0.00000000000E+00 0.  1.
         12    1    4    4    0    0 -0.42432812650E+02 -0.16857594526E+02  0.14477978993E+02  0.47899206238E+02  0.00000000000E+00 0. -1.
         -5    1    5    5    0  502  0.11464577280E+02  0.60985876920E+02 -0.71147746641E+02  0.94524100461E+02  0.47000000000E+01 0.  1.
         11    1    6    6    0    0 -0.16786767502E+02  0.45182811326E+02  0.38272481405E+02  0.61547256928E+02  0.00000000000E+00 0. -1.
        -12    1    6    6    0    0  0.46999445192E+02  0.18634331590E+01  0.19792528947E+02  0.51031014429E+02  0.00000000000E+00 0.  1.
</event>
<event>
12    1  0.9017558E-003  0.2263344E+03  0.7818608E-02  0.1129545E+00
         21   -1    0    0  501  502  0.00000000000E+00  0.00000000000E+00  0.57222740330E+03  0.57222740330E+03  0.00000000000E+00 0. -1.
         21   -1    0    0  502  503 -0.00000000000E+00 -0.00000000000E+00 -0.14091613790E+03  0.14091613790E+03  0.00000000000E+00 0.  1.
          6    2    1    2  501    0 -0.21171064169E+02  0.14402322398E+03  0.43185721760E+03  0.48680848794E+03  0.17114597434E+03 0.  0.
         24    2    3    3    0    0 -0.62638849493E+02  0.60249188330E+02  0.33233403423E+03  0.35018996688E+03  0.68069908420E+02 0.  0.
         -6    2    1    2    0  503  0.21171064169E+02 -0.14402322398E+03 -0.54595221021E+00  0.22633505326E+03  0.17330999759E+03 0.  0.
        -24    2    5    5    0    0  0.72042097735E+02 -0.11874359781E+03  0.31143384731E+02  0.16111829443E+03  0.75492307701E+02 0.  0.
          5    1    3    3  501    0  0.41467785325E+02  0.83774035653E+02  0.99523183370E+02  0.13661852106E+03  0.47000000000E+01 0. -1.
        -11    1    4    4    0    0 -0.30548967675E+02  0.70334968099E+02  0.23685361880E+03  0.24895759458E+03  0.00000000000E+00 0.  1.
         12    1    4    4    0    0 -0.32089881818E+02 -0.10085779768E+02  0.95480415435E+02  0.10123237229E+03  0.00000000000E+00 0. -1.
         -5    1    5    5    0  503 -0.50871033566E+02 -0.25279626177E+02 -0.31689336941E+02  0.65216758824E+02  0.47000000000E+01 0.  1.
         11    1    6    6    0    0  0.54053805828E+02 -0.11944105742E+03  0.73858476491E+01  0.13131081779E+03  0.00000000000E+00 0. -1.
        -12    1    6    6    0    0  0.17988291906E+02  0.69745961642E+00  0.23757537082E+02  0.29807476643E+02  0.00000000000E+00 0.  1.
</event>
<event>
12    1  0.9017558E-003  0.1750390E+03  0.7818608E-02  0.1173151E+00
         21   -1    0    0  501  502  0.00000000000E+00  0.00000000000E+00  0.31427316228E+03  0.31427316228E+03  0.00000000000E+00 0. -1.
         21   -1    0    0  502  503 -0.00000000000E+00 -0.00000000000E+00 -0.12511197364E+03  0.12511197364E+03  0.00000000000E+00 0. -1.
          6    2    1    2  501    0 -0.26153974068E+02  0.83807809996E+01  0.19929521245E+03  0.26405297440E+03  0.17102959900E+03 0.  0.
         24    2    3    3    0    0 -0.54695440566E+02  0.51449566807E+01  0.45624026451E+02  0.10764961997E+03  0.80553256250E+02 0.  0.
         -6    2    1    2    0  503  0.26153974068E+02 -0.83807809996E+01 -0.10134023820E+02  0.17533216152E+03  0.17287105187E+03 0.  0.
        -24    2    5    5    0    0 -0.50027754808E+02 -0.21716096724E+02 -0.12236026906E+02  0.97820905070E+02  0.80279785788E+02 0.  0.
          5    1    3    3  501    0  0.28541466498E+02  0.32358243189E+01  0.15367118600E+03  0.15640335443E+03  0.47000000000E+01 0. -1.
        -11    1    4    4    0    0 -0.76497261904E+01  0.38477329448E+02  0.24458765198E+02  0.46230448703E+02  0.00000000000E+00 0.  1.
         12    1    4    4    0    0 -0.47045714376E+02 -0.33332372768E+02  0.21165261253E+02  0.61419171269E+02  0.00000000000E+00 0. -1.
         -5    1    5    5    0  503  0.76181728876E+02  0.13335315725E+02  0.21020030859E+01  0.77511256454E+02  0.47000000000E+01 0.  1.
         13    1    6    6    0    0 -0.32878257587E+02 -0.30159974538E+02 -0.42764650135E+02  0.61801449718E+02  0.00000000000E+00 0. -1.
        -14    1    6    6    0    0 -0.17149497222E+02  0.84438778140E+01  0.30528623230E+02  0.36019455351E+02  0.00000000000E+00 0.  1.
</event>
<event>
12    1  0.9017558E-003  0.1928728E+03  0.7818608E-02  0.1156054E+00
         21   -1    0    0  501  502  0.00000000000E+00  0.00000000000E+00  0.26513026596E+03  0.26513026596E+03  0.00000000000E+00 0. -1.
         21   -1    0    0  502  503 -0.00000000000E+00 -0.00000000000E+00 -0.14258184037E+03  0.14258184037E+03  0.00000000000E+00 0. -1.
          6    2    1    2  501    0 -0.45404012987E+02  0.73326904326E+02  0.89705125780E+02  0.21206297979E+03  0.17171295383E+03 0.  0.
         24    2    3    3    0    0  0.37086102135E+02  0.68327076980E+02  0.43894166603E+02  0.11745668324E+03  0.76324348382E+02 0.  0.
         -6    2    1    2    0  503  0.45404012987E+02 -0.73326904326E+02  0.32843299819E+02  0.19564912654E+03  0.17251532998E+03 0.  0.
        -24    2    5    5    0    0  0.79220808722E+02 -0.13833459825E+02 -0.11765073323E+02  0.11382588677E+03  0.79690742266E+02 0.  0.
          5    1    3    3  501    0 -0.82490115122E+02  0.49998273455E+01  0.45810959177E+02  0.94606296550E+02  0.47000000000E+01 0. -1.
        -11    1    4    4    0    0  0.11029831261E+02  0.59110315957E+02 -0.59894641136E+01  0.60428141710E+02  0.00000000000E+00 0.  1.
         12    1    4    4    0    0  0.26056270874E+02  0.92167610234E+01  0.49883630716E+02  0.57028541530E+02  0.00000000000E+00 0. -1.
         -5    1    5    5    0  503 -0.33816795735E+02 -0.59493444501E+02  0.44608373142E+02  0.81823239772E+02  0.47000000000E+01 0.  1.
         11    1    6    6    0    0  0.16650051068E+02 -0.13715501294E+02 -0.39793371644E+02  0.45264241992E+02  0.00000000000E+00 0. -1.
        -12    1    6    6    0    0  0.62570757654E+02 -0.11795853118E+00  0.28028298321E+02  0.68561644776E+02  0.00000000000E+00 0.  1.
</event>
<event>
12    1  0.9017558E-003  0.2028297E+03  0.7818608E-02  0.1147388E+00
         21   -1    0    0  501  502  0.00000000000E+00  0.00000000000E+00  0.17399322794E+03  0.17399322794E+03  0.00000000000E+00 0. -1.
         21   -1    0    0  502  503 -0.00000000000E+00 -0.00000000000E+00 -0.23721774776E+03  0.23721774776E+03  0.00000000000E+00 0.  1.
          6    2    1    2  501    0  0.85873701172E+02 -0.65773712143E+02 -0.19273983403E+02  0.20367410941E+03  0.17149688815E+03 0.  0.
         24    2    3    3    0    0  0.10373413238E+03 -0.33315040401E+02  0.32068290630E+02  0.14018647693E+03  0.82177922305E+02 0.  0.
         -6    2    1    2    0  503 -0.85873701172E+02  0.65773712143E+02 -0.43950536416E+02  0.20753686629E+03  0.17157921627E+03 0.  0.
        -24    2    5    5    0    0 -0.27870118194E+02  0.10071571133E+03 -0.92444798530E+01  0.13130065896E+03  0.78955713146E+02 0.  0.
          5    1    3    3  501    0 -0.17860431203E+02 -0.32458671742E+02 -0.51342274033E+02  0.63487632472E+02  0.47000000000E+01 0. -1.
        -13    1    4    4    0    0  0.26509390962E+02  0.19921944154E+02  0.32439229850E+02  0.46388956674E+02  0.00000000000E+00 0.  1.
         14    1    4    4    0    0  0.77224741413E+02 -0.53236984555E+02 -0.37093921952E+00  0.93797520259E+02  0.00000000000E+00 0. -1.
         -5    1    5    5    0  503 -0.58003582978E+02 -0.34941999187E+02 -0.34706056563E+02  0.76236207327E+02  0.47000000000E+01 0.  1.
         11    1    6    6    0    0 -0.17714806776E+02  0.10456799526E+03  0.12699759065E+02  0.10681556016E+03  0.00000000000E+00 0. -1.
        -12    1    6    6    0    0 -0.10155311418E+02 -0.38522839307E+01 -0.21944238918E+02  0.24485098799E+02  0.00000000000E+00 0.  1.
</event>
<event>
12    1  0.9017558E-003  0.2111072E+03  0.7818608E-02  0.1140905E+00
         21   -1    0    0  503  502  0.00000000000E+00  0.00000000000E+00  0.48145203247E+03  0.48145203247E+03  0.00000000000E+00 0. -1.
         21   -1    0    0  501  503 -0.00000000000E+00 -0.00000000000E+00 -0.92907380205E+02  0.92907380205E+02  0.00000000000E+00 0. -1.
          6    2    1    2  501    0  0.49747442321E+02  0.11232102697E+03  0.22162390050E+03  0.30607747017E+03  0.17168413835E+03 0.  0.
         24    2    3    3    0    0  0.32527675107E+02  0.14099139602E+03  0.21932212740E+03  0.27222634606E+03  0.71192447082E+02 0.  0.
         -6    2    1    2    0  502 -0.49747442321E+02 -0.11232102697E+03  0.16692075177E+03  0.26828194250E+03  0.17035798245E+03 0.  0.
        -24    2    5    5    0    0 -0.17286456299E+02 -0.54307139652E+02  0.17520841809E+03  0.20112464843E+03  0.80653874343E+02 0.  0.
          5    1    3    3  501    0  0.17219767213E+02 -0.28670369053E+02  0.23017730957E+01  0.33851124116E+02  0.47000000000E+01 0. -1.
        -13    1    4    4    0    0  0.80451628399E+01  0.14259145477E+02  0.82578013514E+02  0.84185368032E+02  0.00000000000E+00 0.  1.
         14    1    4    4    0    0  0.24482512268E+02  0.12673225054E+03  0.13674411389E+03  0.18804097803E+03  0.00000000000E+00 0. -1.
         -5    1    5    5    0  502 -0.32460986022E+02 -0.58013887313E+02 -0.82876663190E+01  0.67157294077E+02  0.47000000000E+01 0.  1.
         11    1    6    6    0    0 -0.41678780757E+02 -0.59153781401E+02  0.11363936899E+03  0.13472266626E+03  0.00000000000E+00 0. -1.
        -12    1    6    6    0    0  0.24392324458E+02  0.48466417489E+01  0.61569049102E+02  0.66401982170E+02  0.00000000000E+00 0.  1.
</event>
<event>
12    1  0.9017558E-003  0.1810325E+03  0.7818608E-02  0.1167052E+00
         21   -1    0    0  503  502  0.00000000000E+00  0.00000000000E+00  0.19860795676E+04  0.19860795676E+04  0.00000000000E+00 0. -1.
         21   -1    0    0  501  503 -0.00000000000E+00 -0.00000000000E+00 -0.18509460854E+02  0.18509460854E+02  0.00000000000E+00 0. -1.
          6    2    1    2  501    0  0.26165736022E+02  0.51482256656E+02  0.64370006723E+03  0.66839868279E+03  0.17050499732E+03 0.  0.
         24    2    3    3    0    0  0.22670462573E+02  0.25383198430E+02  0.63408351154E+03  0.63997429327E+03  0.79667683496E+02 0.  0.
         -6    2    1    2    0  502 -0.26165736022E+02 -0.51482256656E+02  0.13238700395E+04  0.13361903457E+04  0.17157415256E+03 0.  0.
        -24    2    5    5    0    0 -0.41495491906E+02 -0.64276589254E+02  0.13003537094E+04  0.13049845106E+04  0.78812736837E+02 0.  0.
          5    1    3    3  501    0  0.34952734487E+01  0.26099058226E+02  0.96165556913E+01  0.28424389529E+02  0.47000000000E+01 0. -1.
        -13    1    4    4    0    0  0.52030947759E+02  0.12699644205E+02  0.44403688448E+03  0.44725524621E+03  0.00000000000E+00 0.  1.
         14    1    4    4    0    0 -0.29360485185E+02  0.12683554224E+02  0.19004662706E+03  0.19271904705E+03  0.00000000000E+00 0. -1.
         -5    1    5    5    0  502  0.15329755884E+02  0.12794332598E+02  0.23516330111E+02  0.31205835095E+02  0.47000000000E+01 0.  1.
         11    1    6    6    0    0 -0.15297654283E+02 -0.15875535867E+02  0.95651116333E+03  0.95676520445E+03  0.00000000000E+00 0. -1.
        -12    1    6    6    0    0 -0.26197837622E+02 -0.48401053387E+02  0.34384254610E+03  0.34821930614E+03  0.00000000000E+00 0.  1.
</event>
<event>
12    1  0.9017558E-003  0.1846296E+03  0.7818608E-02  0.1163482E+00
         21   -1    0    0  501  502  0.00000000000E+00  0.00000000000E+00  0.68549842430E+02  0.68549842430E+02  0.00000000000E+00 0. -1.
         21   -1    0    0  502  503 -0.00000000000E+00 -0.00000000000E+00 -0.69562409543E+03  0.69562409543E+03  0.00000000000E+00 0. -1.
          6    2    1    2  501    0  0.52120408064E+02  0.42194398271E+02 -0.10877801166E+03  0.21397481737E+03  0.17162652029E+03 0.  0.
         24    2    3    3    0    0  0.16194599959E+02  0.49405656675E+02 -0.13731588546E+03  0.16729327737E+03  0.80176082940E+02 0.  0.
         -6    2    1    2    0  503 -0.52120408064E+02 -0.42194398271E+02 -0.51829624134E+03  0.55019912048E+03  0.17202085401E+03 0.  0.
        -24    2    5    5    0    0  0.12478008170E+02 -0.69374503824E+02 -0.38195100883E+03  0.39682433134E+03  0.81329295635E+02 0.  0.
          5    1    3    3  501    0  0.35925808105E+02 -0.72112584037E+01  0.28537873799E+02  0.46681540000E+02  0.47000000000E+01 0. -1.
        -11    1    4    4    0    0  0.29871744524E+02 -0.99902531613E+01 -0.68321261541E+02  0.75232446841E+02  0.00000000000E+00 0.  1.
         12    1    4    4    0    0 -0.13677144565E+02  0.59395909836E+02 -0.68994623917E+02  0.92060830531E+02  0.00000000000E+00 0. -1.
         -5    1    5    5    0  503 -0.64598416234E+02  0.27180105553E+02 -0.13634523251E+03  0.15337478915E+03  0.47000000000E+01 0.  1.
         11    1    6    6    0    0  0.46868603220E+02 -0.31742813684E+02 -0.19562635840E+03  0.20365152661E+03  0.00000000000E+00 0. -1.
        -12    1    6    6    0    0 -0.34390595050E+02 -0.37631690140E+02 -0.18632465042E+03  0.19317280473E+03  0.00000000000E+00 0.  1.
</event>
<event>
12    1  0.9017558E-003  0.1775946E+03  0.7818608E-02  0.1171005E+00
         21   -1    0    0  503  502  0.00000000000E+00  0.00000000000E+00  0.41102266724E+03  0.41102266724E+03  0.00000000000E+00 0. -1.
         21   -1    0    0  501  503 -0.00000000000E+00 -0.00000000000E+00 -0.76240288110E+02  0.76240288110E+02  0.00000000000E+00 0. -1.
          6    2    1    2  501    0 -0.22427550497E+02 -0.36006494911E+02  0.14137593222E+03  0.22699556937E+03  0.17245396953E+03 0.  0.
         24    2    3    3    0    0 -0.23215195484E+02  0.38338138092E+02  0.11956758943E+03  0.14937187031E+03  0.77503477754E+02 0.  0.
         -6    2    1    2    0  502  0.22427550497E+02  0.36006494911E+02  0.19340644692E+03  0.26026738598E+03  0.16891890303E+03 0.  0.
        -24    2    5    5    0    0  0.58441589465E+02  0.69306273149E+02  0.10821689717E+03  0.16185379130E+03  0.79164222008E+02 0.  0.
          5    1    3    3  501    0  0.78764498653E+00 -0.74344633003E+02  0.21808342789E+02  0.77623699063E+02  0.47000000000E+01 0. -1.
        -11    1    4    4    0    0  0.20198147162E+02  0.23608794053E+02  0.89010593134E+02  0.94277388570E+02  0.00000000000E+00 0.  1.
         12    1    4    4    0    0 -0.43413342646E+02  0.14729344039E+02  0.30556996294E+02  0.55094481739E+02  0.00000000000E+00 0. -1.
         -5    1    5    5    0  502 -0.36014038967E+02 -0.33299778237E+02  0.85189549742E+02  0.98413594684E+02  0.47000000000E+01 0.  1.
         11    1    6    6    0    0  0.59703848883E+02  0.11723058775E+02  0.69921544290E+02  0.92687658479E+02  0.00000000000E+00 0. -1.
        -12    1    6    6    0    0 -0.12622594178E+01  0.57583214373E+02  0.38295352884E+02  0.69166132817E+02  0.00000000000E+00 0.  1.
</event>
<event>
12    1  0.9017558E-003  0.1958796E+03  0.7818608E-02  0.1157199E+00
         21   -1    0    0  501  502  0.00000000000E+00  0.00000000000E+00  0.10057186832E+03  0.10057186832E+03  0.00000000000E+00 0.  1.
         21   -1    0    0  502  503 -0.00000000000E+00 -0.00000000000E+00 -0.68787524345E+03  0.68787524345E+03  0.00000000000E+00 0.  1.
          6    2    1    2  501    0  0.24490708301E+02 -0.38086770989E+02 -0.10056960405E+02  0.17887163995E+03  0.17275278350E+03 0.  0.
         24    2    3    3    0    0 -0.24941466289E+02  0.12892239347E+02  0.38175918847E+02  0.92901296106E+02  0.79905966375E+02 0.  0.
         -6    2    1    2    0  503 -0.24490708301E+02  0.38086770989E+02 -0.57724641472E+03  0.60957547182E+03  0.19057396366E+03 0.  0.
        -24    2    5    5    0    0 -0.30765577505E+02  0.93933882700E+02 -0.28529555653E+03  0.31222775035E+03  0.79514265598E+02 0.  0.
          5    1    3    3  501    0  0.49432174590E+02 -0.50979010336E+02 -0.48232879251E+02  0.85970343842E+02  0.47000000000E+01 0. -1.
        -11    1    4    4    0    0 -0.13025321859E+02  0.46686617321E+02  0.26335221594E+02  0.55161971891E+02  0.00000000000E+00 0.  1.
         12    1    4    4    0    0 -0.11916144429E+02 -0.33794377975E+02  0.11840697252E+02  0.37739324215E+02  0.00000000000E+00 0. -1.
         -5    1    5    5    0  503  0.62748692033E+01 -0.55847111711E+02 -0.29195085818E+03  0.29734772147E+03  0.47000000000E+01 0.  1.
         13    1    6    6    0    0  0.26061887740E+02  0.44270871589E+02 -0.11329078265E+03  0.12439426634E+03  0.00000000000E+00 0. -1.
        -14    1    6    6    0    0 -0.56827465245E+02  0.49663011111E+02 -0.17200477388E+03  0.18783348401E+03  0.00000000000E+00 0.  1.
</event>
<event>
12    1  0.9017558E-003  0.1904806E+03  0.7818608E-02  0.1158156E+00
         21   -1    0    0  501  502  0.00000000000E+00  0.00000000000E+00  0.31724111271E+03  0.31724111271E+03  0.00000000000E+00 0.  1.
         21   -1    0    0  502  503 -0.00000000000E+00 -0.00000000000E+00 -0.11439242628E+03  0.11439242628E+03  0.00000000000E+00 0.  1.
          6    2    1    2  501    0 -0.79651783156E+02 -0.22955726790E+02  0.11369586555E+03  0.22183234769E+03  0.17149772210E+03 0.  0.
         24    2    3    3    0    0 -0.59666917366E+02 -0.56061736133E+02  0.13725946629E+02  0.11454079441E+03  0.78918519293E+02 0.  0.
         -6    2    1    2    0  503  0.79651783156E+02  0.22955726790E+02  0.89152820881E+02  0.20980119130E+03  0.17087112818E+03 0.  0.
        -24    2    5    5    0    0  0.10115277940E+03  0.63083067146E+02  0.60972426896E+02  0.15605436917E+03  0.80149679700E+02 0.  0.
          5    1    3    3  501    0 -0.19984865790E+02  0.33106009342E+02  0.99969918923E+02  0.10729155328E+03  0.47000000000E+01 0. -1.
        -11    1    4    4    0    0 -0.32503643616E+02  0.90621857891E+01 -0.16758303805E+02  0.37675599610E+02  0.00000000000E+00 0.  1.
         12    1    4    4    0    0 -0.27163273751E+02 -0.65123921922E+02  0.30484250434E+02  0.76865194801E+02  0.00000000000E+00 0. -1.
         -5    1    5    5    0  503 -0.21500996242E+02 -0.40127340356E+02  0.28180393985E+02  0.53746822126E+02  0.47000000000E+01 0.  1.
         13    1    6    6    0    0  0.16331531040E+02 -0.11043556121E+00 -0.17810514914E+02  0.24164965210E+02  0.00000000000E+00 0. -1.
        -14    1    6    6    0    0  0.84821248358E+02  0.63193502707E+02  0.78782941810E+02  0.13188940396E+03  0.00000000000E+00 0.  1.
</event>
<event>
12    1  0.9017558E-003  0.3087970E+03  0.7818608E-02  0.1081005E+00
         21   -1    0    0  501  502  0.00000000000E+00  0.00000000000E+00  0.11120828888E+03  0.11120828888E+03  0.00000000000E+00 0.  1.
         21   -1    0    0  502  503 -0.00000000000E+00 -0.00000000000E+00 -0.85609308281E+03  0.85609308281E+03  0.00000000000E+00 0.  1.
          6    2    1    2  501    0 -0.12305192167E+03  0.22408941722E+03 -0.38371016533E+03  0.49211438514E+03  0.17200358933E+03 0.  0.
         24    2    3    3    0    0 -0.13089427562E+03  0.23372800312E+03 -0.38790039808E+03  0.47818409785E+03  0.80194898658E+02 0.  0.
         -6    2    1    2    0  503  0.12305192167E+03 -0.22408941722E+03 -0.36117462860E+03  0.47518698655E+03  0.17319849162E+03 0.  0.
        -24    2    5    5    0    0  0.14637566434E+03 -0.20800043107E+03 -0.27138848856E+03  0.38091878729E+03  0.82203384080E+02 0.  0.
          5    1    3    3  501    0  0.78423539444E+01 -0.96385858974E+01  0.41902327503E+01  0.13930287290E+02  0.47000000000E+01 0. -1.
        -11    1    4    4    0    0 -0.79545292691E+02  0.17048318179E+03 -0.32395991136E+03  0.37462246733E+03  0.00000000000E+00 0.  1.
         12    1    4    4    0    0 -0.51348982928E+02  0.63244821333E+02 -0.63940486725E+02  0.10356163052E+03  0.00000000000E+00 0. -1.
         -5    1    5    5    0  503 -0.23323742667E+02 -0.16088986157E+02 -0.89786140043E+02  0.94268199258E+02  0.47000000000E+01 0.  1.
         11    1    6    6    0    0  0.57718533750E+02 -0.22984768201E+02 -0.61754062738E+02  0.87597334275E+02  0.00000000000E+00 0. -1.
        -12    1    6    6    0    0  0.88657130591E+02 -0.18501566287E+03 -0.20963442582E+03  0.29332145302E+03  0.00000000000E+00 0.  1.
</event>
<event>
12    1  0.9017558E-003  0.2917059E+03  0.7818608E-02  0.1089503E+00
         21   -1    0    0  501  502  0.00000000000E+00  0.00000000000E+00  0.11359361877E+03  0.11359361877E+03  0.00000000000E+00 0. -1.
         21   -1    0    0  502  503 -0.00000000000E+00 -0.00000000000E+00 -0.81036600264E+03  0.81036600264E+03  0.00000000000E+00 0.  1.
          6    2    1    2  501    0  0.16497999820E+03 -0.16824596321E+03 -0.22034276435E+03  0.36532063914E+03  0.17141508580E+03 0.  0.
         24    2    3    3    0    0  0.41205466070E+02 -0.11081797213E+03 -0.14186144041E+03  0.20784201465E+03  0.95368345895E+02 0.  0.
         -6    2    1    2    0  503 -0.16497999820E+03  0.16824596321E+03 -0.47642961953E+03  0.55863898227E+03  0.17195123206E+03 0.  0.
        -24    2    5    5    0    0 -0.23363793668E+02  0.22432391229E+02 -0.12573736016E+03  0.15327014043E+03  0.81441839218E+02 0.  0.
          5    1    3    3  501    0  0.12377453213E+03 -0.57427991082E+02 -0.78481323935E+02  0.15747862449E+03  0.47000000000E+01 0. -1.
        -11    1    4    4    0    0  0.33296529113E+02 -0.69478797707E+01 -0.28534900074E+01  0.34133184579E+02  0.00000000000E+00 0.  1.
         12    1    4    4    0    0  0.79089369565E+01 -0.10387009235E+03 -0.13900795041E+03  0.17370883007E+03  0.00000000000E+00 0. -1.
         -5    1    5    5    0  503 -0.14161620453E+03  0.14581357198E+03 -0.35069225937E+03  0.40536884185E+03  0.47000000000E+01 0.  1.
         13    1    6    6    0    0 -0.32642351286E+02 -0.22968738194E+02 -0.71905354272E+02  0.82240294288E+02  0.00000000000E+00 0. -1.
        -14    1    6    6    0    0  0.92785576173E+01  0.45401129423E+02 -0.53832005888E+02  0.71029846137E+02  0.00000000000E+00 0.  1.
</event>
<event>
12    1  0.9017558E-003  0.3586326E+03  0.7818608E-02  0.1059194E+00
         21   -1    0    0  501  502  0.00000000000E+00  0.00000000000E+00  0.53175297932E+03  0.53175297932E+03  0.00000000000E+00 0. -1.
         21   -1    0    0  502  503 -0.00000000000E+00 -0.00000000000E+00 -0.24269695508E+03  0.24269695508E+03  0.00000000000E+00 0.  1.
          6    2    1    2  501    0 -0.55199857502E+02  0.30913564118E+03  0.11626581198E+03  0.37636225922E+03  0.17181077444E+03 0.  0.
         24    2    3    3    0    0 -0.68248793362E+02  0.22244022086E+03  0.20260539668E+02  0.24626432325E+03  0.78090190074E+02 0.  0.
         -6    2    1    2    0  503  0.55199857502E+02 -0.30913564118E+03  0.17279021226E+03  0.39808767518E+03  0.17322087276E+03 0.  0.
        -24    2    5    5    0    0  0.30585026555E+00 -0.28857115186E+03  0.13619227955E+03  0.32882189048E+03  0.79385738134E+02 0.  0.
          5    1    3    3  501    0  0.13048935860E+02  0.86695420322E+02  0.96005272314E+02  0.13009793597E+03  0.47000000000E+01 0. -1.
        -11    1    4    4    0    0 -0.68703992848E+02  0.15674436439E+03 -0.14831899294E+02  0.17178189554E+03  0.00000000000E+00 0.  1.
         12    1    4    4    0    0  0.45519948611E+00  0.65695856472E+02  0.35092438962E+02  0.74482427702E+02  0.00000000000E+00 0. -1.
         -5    1    5    5    0  503  0.54894007237E+02 -0.20564489319E+02  0.36597932704E+02  0.69265784697E+02  0.47000000000E+01 0.  1.
         11    1    6    6    0    0 -0.30908066673E+02 -0.87129553036E+02  0.21464007202E+02  0.94908225160E+02  0.00000000000E+00 0. -1.
        -12    1    6    6    0    0  0.31213916939E+02 -0.20144159882E+03  0.11472827235E+03  0.23391366532E+03  0.00000000000E+00 0.  1.
</event>
<event>
12    1  0.9017558E-003  0.1753765E+03  0.7818608E-02  0.1172525E+00
         21   -1    0    0  503  502  0.00000000000E+00  0.00000000000E+00  0.84288709855E+03  0.84288709855E+03  0.00000000000E+00 0.  1.
         21   -1    0    0  501  503 -0.00000000000E+00 -0.00000000000E+00 -0.37165336923E+02  0.37165336923E+02  0.00000000000E+00 0.  1.
          6    2    1    2  501    0  0.15928256291E+02  0.31130529573E+02  0.33686770111E+03  0.37947173245E+03  0.17116111841E+03 0.  0.
         24    2    3    3    0    0 -0.60472350208E+01  0.76757337549E+02  0.15129885487E+03  0.18705911716E+03  0.78558970912E+02 0.  0.
         -6    2    1    2    0  502 -0.15928256291E+02 -0.31130529573E+02  0.46885406051E+03  0.50058070302E+03  0.17185485433E+03 0.  0.
        -24    2    5    5    0    0 -0.25968754693E+02  0.34838072180E+02  0.37202974108E+03  0.38289592551E+03  0.79467565881E+02 0.  0.
          5    1    3    3  501    0  0.21975491312E+02 -0.45626807977E+02  0.18556884625E+03  0.19241261529E+03  0.47000000000E+01 0. -1.
        -11    1    4    4    0    0 -0.34240773186E+02  0.16566139137E+02  0.28876188105E+02  0.47756693287E+02  0.00000000000E+00 0.  1.
         12    1    4    4    0    0  0.28193538165E+02  0.60191198412E+02  0.12242266676E+03  0.13930242388E+03  0.00000000000E+00 0. -1.
         -5    1    5    5    0  502  0.10040498402E+02 -0.65968601753E+02  0.96824319430E+02  0.11768477751E+03  0.47000000000E+01 0.  1.
         11    1    6    6    0    0  0.25766160198E+02  0.27573525913E+02  0.13487953652E+03  0.14005957202E+03  0.00000000000E+00 0. -1.
        -12    1    6    6    0    0 -0.51734914890E+02  0.72645462673E+01  0.23715020457E+03  0.24283635349E+03  0.00000000000E+00 0.  1.
</event>
<event>
12    1  0.9017558E-003  0.1815692E+03  0.7818608E-02  0.1167102E+00
         21   -1    0    0  501  502  0.00000000000E+00  0.00000000000E+00  0.50860100446E+03  0.50860100446E+03  0.00000000000E+00 0. -1.
         21   -1    0    0  502  503 -0.00000000000E+00 -0.00000000000E+00 -0.64296604179E+02  0.64296604179E+02  0.00000000000E+00 0. -1.
          6    2    1    2  501    0  0.26016194051E+01 -0.20515008855E+01  0.19502619332E+03  0.26646309862E+03  0.18153894834E+03 0.  0.
         24    2    3    3    0    0  0.39973815896E+01 -0.71210278421E+02  0.95828958218E+02  0.14543803462E+03  0.82958723890E+02 0.  0.
         -6    2    1    2    0  503 -0.26016194051E+01  0.20515008855E+01  0.24927820696E+03  0.30643451002E+03  0.17818952660E+03 0.  0.
        -24    2    5    5    0    0 -0.63471812995E+02  0.67087057304E+01  0.21529642777E+03  0.23640793406E+03  0.73908603674E+02 0.  0.
          5    1    3    3  501    0 -0.13957621844E+01  0.69158777536E+02  0.99197235107E+02  0.12102506400E+03  0.47000000000E+01 0. -1.
        -11    1    4    4    0    0  0.28525170095E+02 -0.51430251046E+02  0.18049854787E+02  0.61518723243E+02  0.00000000000E+00 0.  1.
         12    1    4    4    0    0 -0.24527788505E+02 -0.19780027375E+02  0.77779103431E+02  0.83919311380E+02  0.00000000000E+00 0. -1.
         -5    1    5    5    0  503  0.60870193590E+02 -0.46572048449E+01  0.33981779188E+02  0.70026575965E+02  0.47000000000E+01 0.  1.
         11    1    6    6    0    0 -0.71662780491E+02  0.19695849569E+02  0.13003608005E+03  0.14977604185E+03  0.00000000000E+00 0. -1.
        -12    1    6    6    0    0  0.81909674963E+01 -0.12987143838E+02  0.85260347724E+02  0.86631892209E+02  0.00000000000E+00 0.  1.
</event>
<event>
12    1  0.9017558E-003  0.2346634E+03  0.7818608E-02  0.1123546E+00
         21   -1    0    0  503  502  0.00000000000E+00  0.00000000000E+00  0.51334013355E+03  0.51334013355E+03  0.00000000000E+00 0.  1.
         21   -1    0    0  501  503 -0.00000000000E+00 -0.00000000000E+00 -0.11765665169E+03  0.11765665169E+03  0.00000000000E+00 0. -1.
          6    2    1    2  501    0  0.12804253964E+03  0.94227177106E+02  0.10205188730E+03  0.25511589302E+03  0.17145226247E+03 0.  0.
         24    2    3    3    0    0  0.23750496120E+02  0.30690342100E+02 -0.10522702021E+02  0.88956668460E+02  0.79350982613E+02 0.  0.
         -6    2    1    2    0  502 -0.12804253964E+03 -0.94227177106E+02  0.29363159455E+03  0.37588089222E+03  0.17260729694E+03 0.  0.
        -24    2    5    5    0    0 -0.11722718945E+02 -0.84145938687E+02  0.12292420516E+03  0.16901128390E+03  0.78971467855E+02 0.  0.
          5    1    3    3  501    0  0.10429204352E+03  0.63536835006E+02  0.11257458932E+03  0.16615922455E+03  0.47000000000E+01 0. -1.
        -11    1    4    4    0    0 -0.51723093840E+01  0.24336333663E+02  0.29868421710E+02  0.38873288206E+02  0.00000000000E+00 0.  1.
         12    1    4    4    0    0  0.28922805504E+02  0.63540084367E+01 -0.40391123731E+02  0.50083380254E+02  0.00000000000E+00 0. -1.
         -5    1    5    5    0  502 -0.11631982069E+03 -0.10081238419E+02  0.17070738939E+03  0.20686960832E+03  0.47000000000E+01 0.  1.
         13    1    6    6    0    0 -0.45255056053E+02 -0.40257314572E+02  0.69131344545E+02  0.91911992001E+02  0.00000000000E+00 0. -1.
        -14    1    6    6    0    0  0.33532337108E+02 -0.43888624115E+02  0.53792860617E+02  0.77099291903E+02  0.00000000000E+00 0.  1.
</event>
<event>
12    1  0.9017558E-003  0.2593112E+03  0.7818608E-02  0.1111217E+00
         21   -1    0    0  503  502  0.00000000000E+00  0.00000000000E+00  0.93066004560E+03  0.93066004560E+03  0.00000000000E+00 0. -1.
         21   -1    0    0  501  503 -0.00000000000E+00 -0.00000000000E+00 -0.68729758431E+02  0.68729758431E+02  0.00000000000E+00 0. -1.
          6    2    1    2  501    0 -0.15522907061E+03 -0.93343286189E+02  0.31143894850E+03  0.39088094326E+03  0.15160692503E+03 0.  0.
         24    2    3    3    0    0 -0.16540800047E+03 -0.75410763576E+02  0.21644995136E+03  0.29356606486E+03  0.79270821284E+02 0.  0.
         -6    2    1    2    0  502  0.15522907061E+03  0.93343286189E+02  0.55049133866E+03  0.60850886077E+03  0.18556208194E+03 0.  0.
        -24    2    5    5    0    0  0.62987057223E+02  0.92304671044E+02  0.17674551916E+03  0.22351834745E+03  0.78955376177E+02 0.  0.
          5    1    3    3  501    0  0.10178929859E+02 -0.17932522613E+02  0.94988997140E+02  0.97314878400E+02  0.47000000000E+01 0. -1.
        -13    1    4    4    0    0 -0.19171501252E+02 -0.34797232483E+01  0.75897729806E+02  0.78358919874E+02  0.00000000000E+00 0.  1.
         14    1    4    4    0    0 -0.14623649922E+03 -0.71931040328E+02  0.14055222156E+03  0.21520714498E+03  0.00000000000E+00 0. -1.
         -5    1    5    5    0  502  0.92242013390E+02  0.10386151455E+01  0.37374581950E+03  0.38499051332E+03  0.47000000000E+01 0.  1.
         13    1    6    6    0    0  0.35728927817E+01 -0.99471189216E+01  0.46106792015E+02  0.47302716704E+02  0.00000000000E+00 0. -1.
        -14    1    6    6    0    0  0.59414164441E+02  0.10225178997E+03  0.13063872715E+03  0.17621563074E+03  0.00000000000E+00 0.  1.
</event>
<event>
12    1  0.9017558E-003  0.1770943E+03  0.7818608E-02  0.1171788E+00
         21   -1    0    0  503  502  0.00000000000E+00  0.00000000000E+00  0.37129814081E+02  0.37129814081E+02  0.00000000000E+00 0. -1.
         21   -1    0    0  501  503 -0.00000000000E+00 -0.00000000000E+00 -0.86338525611E+03  0.86338525611E+03  0.00000000000E+00 0. -1.
          6    2    1    2  501    0  0.12190699253E+02  0.89025651086E+01 -0.51555499875E+03  0.54512322645E+03  0.17644972785E+03 0.  0.
         24    2    3    3    0    0  0.20163372449E+02 -0.37263319280E+02 -0.47305958381E+03  0.48169765833E+03  0.80325261636E+02 0.  0.
         -6    2    1    2    0  502 -0.12190699253E+02 -0.89025651086E+01 -0.31070044327E+03  0.35539184374E+03  0.17187416425E+03 0.  0.
        -24    2    5    5    0    0 -0.30141280606E+02 -0.65566231822E+02 -0.15395142445E+03  0.18768573355E+03  0.79482488222E+02 0.  0.
          5    1    3    3  501    0 -0.79726731956E+01  0.46165884388E+02 -0.42495414945E+02  0.63425568114E+02  0.47000000000E+01 0. -1.
        -11    1    4    4    0    0 -0.22458005594E+02  0.12101695911E+02 -0.14255617205E+03  0.14482083845E+03  0.00000000000E+00 0.  1.
         12    1    4    4    0    0  0.42621378043E+02 -0.49365015190E+02 -0.33050341176E+03  0.33687681988E+03  0.00000000000E+00 0. -1.
         -5    1    5    5    0  502  0.17950581353E+02  0.56663666713E+02 -0.15674901882E+03  0.16770611020E+03  0.47000000000E+01 0.  1.
         11    1    6    6    0    0 -0.28432423843E+02 -0.60199215557E+02 -0.49199479179E+02  0.82782468136E+02  0.00000000000E+00 0. -1.
        -12    1    6    6    0    0 -0.17088567636E+01 -0.53670162652E+01 -0.10475194528E+03  0.10490326541E+03  0.00000000000E+00 0.  1.
</event>
<event>
12    1  0.9017558E-003  0.1959665E+03  0.7818608E-02  0.1155496E+00
         21   -1    0    0  501  502  0.00000000000E+00  0.00000000000E+00  0.25615926116E+03  0.25615926116E+03  0.00000000000E+00 0. -1.
         21   -1    0    0  502  503 -0.00000000000E+00 -0.00000000000E+00 -0.33317225899E+03  0.33317225899E+03  0.00000000000E+00 0. -1.
          6    2    1    2  501    0  0.35466969964E+02 -0.48622378820E+02  0.18505211190E+03  0.26209917976E+03  0.17558375276E+03 0.  0.
         24    2    3    3    0    0  0.17800860183E+01 -0.44460031116E+02  0.20381032353E+03  0.22303395492E+03  0.78902686873E+02 0.  0.
         -6    2    1    2    0  503 -0.35466969964E+02  0.48622378820E+02 -0.26206510973E+03  0.32723234039E+03  0.18649622296E+03 0.  0.
        -24    2    5    5    0    0  0.41102033519E+02  0.14412422907E+01 -0.20055187165E+03  0.21816887080E+03  0.75399924586E+02 0.  0.
          5    1    3    3  501    0  0.33686883945E+02 -0.41623477038E+01 -0.18758211632E+02  0.39065224842E+02  0.47000000000E+01 0. -1.
        -13    1    4    4    0    0 -0.34899625506E+02 -0.56095039997E+01  0.60253609141E+02  0.69856623237E+02  0.00000000000E+00 0.  1.
         14    1    4    4    0    0  0.36679711524E+02 -0.38850527117E+02  0.14355671439E+03  0.15317733168E+03  0.00000000000E+00 0. -1.
         -5    1    5    5    0  503 -0.76569003483E+02  0.47181136529E+02 -0.61513238086E+02  0.10906346959E+03  0.47000000000E+01 0.  1.
         13    1    6    6    0    0 -0.12004897681E+02  0.15101245341E+02 -0.11461552426E+03  0.11622772294E+03  0.00000000000E+00 0. -1.
        -14    1    6    6    0    0  0.53106931200E+02 -0.13660003050E+02 -0.85936347390E+02  0.10194114786E+03  0.00000000000E+00 0.  1.
</event>
<event>
12    1  0.9017558E-003  0.1784682E+03  0.7818608E-02  0.1169779E+00
         21   -1    0    0  501  502  0.00000000000E+00  0.00000000000E+00  0.11267997614E+03  0.11267997614E+03  0.00000000000E+00 0.  1.
         21   -1    0    0  502  503 -0.00000000000E+00 -0.00000000000E+00 -0.28989910180E+03  0.28989910180E+03  0.00000000000E+00 0.  1.
          6    2    1    2  501    0  0.45875875197E+02 -0.31827842473E+01 -0.51063476634E+02  0.18562964180E+03  0.17244175604E+03 0.  0.
         24    2    3    3    0    0  0.20781749068E+02 -0.59830036527E+02  0.62512913832E+01  0.10109740540E+03  0.78549935517E+02 0.  0.
         -6    2    1    2    0  503 -0.45875875197E+02  0.31827842473E+01 -0.12615564903E+03  0.21694943614E+03  0.17040271130E+03 0.  0.
        -24    2    5    5    0    0 -0.24680977994E+02  0.51228608433E+02 -0.25152752265E+02  0.10301392787E+03  0.82132133739E+02 0.  0.
          5    1    3    3  501    0  0.25094126130E+02  0.56647252279E+02 -0.57314768017E+02  0.84532236394E+02  0.47000000000E+01 0. -1.
        -11    1    4    4    0    0  0.13060539838E+02 -0.10786717050E+01  0.33428740458E+02  0.35905736619E+02  0.00000000000E+00 0.  1.
         12    1    4    4    0    0  0.77212092302E+01 -0.58751364822E+02 -0.27177449075E+02  0.65191668782E+02  0.00000000000E+00 0. -1.
         -5    1    5    5    0  503 -0.21194897204E+02 -0.48045824185E+02 -0.10100289676E+03  0.11393550826E+03  0.47000000000E+01 0.  1.
         13    1    6    6    0    0 -0.11825947070E+02  0.22079097820E+02  0.30146789175E+02  0.39193985281E+02  0.00000000000E+00 0. -1.
        -14    1    6    6    0    0 -0.12855030924E+02  0.29149510612E+02 -0.55299541440E+02  0.63819942592E+02  0.00000000000E+00 0.  1.
</event>
<event>
12    1  0.9017558E-003  0.1856610E+03  0.7818608E-02  0.1162568E+00
         21   -1    0    0  501  502  0.00000000000E+00  0.00000000000E+00  0.18064272007E+03  0.18064272007E+03  0.00000000000E+00 0. -1.
         21   -1    0    0  502  503 -0.00000000000E+00 -0.00000000000E+00 -0.24334238096E+03  0.24334238096E+03  0.00000000000E+00 0. -1.
          6    2    1    2  501    0  0.48137545694E+02  0.49531014980E+02 -0.13035492389E+03  0.22638134985E+03  0.17171361223E+03 0.  0.
         24    2    3    3    0    0 -0.16697282879E+02 -0.10485633471E+02 -0.18740692445E+02  0.83954597628E+02  0.79425519480E+02 0.  0.
         -6    2    1    2    0  503 -0.48137545694E+02 -0.49531014980E+02  0.67655263000E+02  0.19760375118E+03  0.17233532174E+03 0.  0.
        -24    2    5    5    0    0 -0.76035955736E+01 -0.92245442588E+02  0.25967811855E+02  0.12530259613E+03  0.80370249481E+02 0.  0.
          5    1    3    3  501    0  0.64834828573E+02  0.60016648452E+02 -0.11161423144E+03  0.14242675222E+03  0.47000000000E+01 0. -1.
        -13    1    4    4    0    0  0.29993622453E+02 -0.17338285914E+02 -0.81054394565E+01  0.35579933883E+02  0.00000000000E+00 0.  1.
         14    1    4    4    0    0 -0.46690905333E+02  0.68526524430E+01 -0.10635252989E+02  0.48374663745E+02  0.00000000000E+00 0. -1.
         -5    1    5    5    0  503 -0.40533950120E+02  0.42714427608E+02  0.41687451145E+02  0.72301155047E+02  0.47000000000E+01 0.  1.
         13    1    6    6    0    0 -0.21919626577E+02 -0.75951084558E+02  0.49523066788E+02  0.93282213840E+02  0.00000000000E+00 0. -1.
        -14    1    6    6    0    0  0.14316031004E+02 -0.16294358030E+02 -0.23555254933E+02  0.32020382295E+02  0.00000000000E+00 0.  1.
</event>
<event>
12    1  0.9017558E-003  0.1853217E+03  0.7818608E-02  0.1162849E+00
         21   -1    0    0  503  502  0.00000000000E+00  0.00000000000E+00  0.91631814483E+02  0.91631814483E+02  0.00000000000E+00 0. -1.
         21   -1    0    0  501  503 -0.00000000000E+00 -0.00000000000E+00 -0.49229687232E+03  0.49229687232E+03  0.00000000000E+00 0. -1.
          6    2    1    2  501    0 -0.67843558193E+02 -0.59309648329E+01 -0.34366092875E+03  0.39044455217E+03  0.17235483642E+03 0.  0.
         24    2    3    3    0    0 -0.10605709197E+03  0.16686092846E+02 -0.20485246267E+03  0.24463067862E+03  0.79706367447E+02 0.  0.
         -6    2    1    2    0  502  0.67843558193E+02  0.59309648329E+01 -0.57004129089E+02  0.19348413464E+03  0.17189739640E+03 0.  0.
        -24    2    5    5    0    0  0.95507119240E+02  0.76588965202E+01  0.65047315752E+01  0.12403110201E+03  0.78492892747E+02 0.  0.
          5    1    3    3  501    0  0.38213533779E+02 -0.22617057679E+02 -0.13880846608E+03  0.14581387354E+03  0.47000000000E+01 0. -1.
        -13    1    4    4    0    0 -0.29477984521E+02  0.42674789707E+01 -0.49390787156E+01  0.30192009650E+02  0.00000000000E+00 0.  1.
         14    1    4    4    0    0 -0.76579107452E+02  0.12418613876E+02 -0.19991338395E+03  0.21443866897E+03  0.00000000000E+00 0. -1.
         -5    1    5    5    0  502 -0.27663561047E+02 -0.17279316873E+01 -0.63508860664E+02  0.69453032624E+02  0.47000000000E+01 0.  1.
         13    1    6    6    0    0  0.64850442785E+02  0.17948717073E+02  0.39340819239E+02  0.77945086005E+02  0.00000000000E+00 0. -1.
        -14    1    6    6    0    0  0.30656676456E+02 -0.10289820553E+02 -0.32836087664E+02  0.46086016007E+02  0.00000000000E+00 0.  1.
</event>
<event>
12    1  0.9017558E-003  0.1844095E+03  0.7818608E-02  0.1164149E+00
         21   -1    0    0  501  502  0.00000000000E+00  0.00000000000E+00  0.23243127459E+03  0.23243127459E+03  0.00000000000E+00 0.  1.
         21   -1    0    0  502  503 -0.00000000000E+00 -0.00000000000E+00 -0.18706050048E+03  0.18706050048E+03  0.00000000000E+00 0.  1.
          6    2    1    2  501    0  0.60849560064E+02 -0.34968499157E+02  0.12286657375E+03  0.22159206615E+03  0.17053264773E+03 0.  0.
         24    2    3    3    0    0 -0.15696001617E+02  0.70066727052E+01  0.10298543660E+03  0.13193445253E+03  0.80655078472E+02 0.  0.
         -6    2    1    2    0  503 -0.60849560064E+02  0.34968499157E+02 -0.77495799645E+02  0.19789970892E+03  0.16802747078E+03 0.  0.
        -24    2    5    5    0    0  0.83064117176E+01 -0.29592842538E+02 -0.29680575442E+02  0.91790798173E+02  0.81239653284E+02 0.  0.
          5    1    3    3  501    0  0.76545561680E+02 -0.41975171862E+02  0.19881137147E+02  0.89657613620E+02  0.47000000000E+01 0. -1.
        -13    1    4    4    0    0 -0.23036608476E+02 -0.29874951919E+02  0.24718504015E+02  0.45102134351E+02  0.00000000000E+00 0.  1.
         14    1    4    4    0    0  0.73406068595E+01  0.36881624624E+02  0.78266932585E+02  0.86832318178E+02  0.00000000000E+00 0. -1.
         -5    1    5    5    0  503 -0.69155971781E+02  0.64561341695E+02 -0.47815224203E+02  0.10610891075E+03  0.47000000000E+01 0.  1.
         11    1    6    6    0    0  0.43337352686E+01 -0.35346143418E+02 -0.55000996589E+02  0.65522826111E+02  0.00000000000E+00 0. -1.
        -12    1    6    6    0    0  0.39726764489E+01  0.57533008799E+01  0.25320421147E+02  0.26267972062E+02  0.00000000000E+00 0.  1.
</event>
<event>
12    1  0.9017558E-003  0.1776982E+03  0.7818608E-02  0.1170059E+00
         21   -1    0    0  501  502  0.00000000000E+00  0.00000000000E+00  0.19497679730E+04  0.19497679730E+04  0.00000000000E+00 0. -1.
         21   -1    0    0  502  503 -0.00000000000E+00 -0.00000000000E+00 -0.18953464189E+02  0.18953464189E+02  0.00000000000E+00 0. -1.
          6    2    1    2  501    0 -0.35704821494E+02  0.23491928079E+02  0.13412559169E+04  0.13529760089E+04  0.17248171261E+03 0.  0.
         24    2    3    3    0    0  0.46414780273E+02  0.25524748199E+02  0.68921267708E+03  0.69576201187E+03  0.79150605263E+02 0.  0.
         -6    2    1    2    0  503  0.35704821494E+02 -0.23491928079E+02  0.58955859192E+03  0.61574542825E+03  0.17244243721E+03 0.  0.
        -24    2    5    5    0    0  0.46681756102E+02  0.46449066503E+02  0.38251545108E+03  0.39688202797E+03  0.82828568014E+02 0.  0.
          5    1    3    3  501    0 -0.82119601767E+02 -0.20328201195E+01  0.65204323982E+03  0.65721399707E+03  0.47000000000E+01 0. -1.
        -13    1    4    4    0    0  0.43865485836E+02 -0.11346780013E+02  0.19610675903E+03  0.20127292714E+03  0.00000000000E+00 0.  1.
         14    1    4    4    0    0  0.25492944371E+01  0.36871528212E+02  0.49310591806E+03  0.49448908473E+03  0.00000000000E+00 0. -1.
         -5    1    5    5    0  503 -0.10976934608E+02 -0.69940994582E+02  0.20704314084E+03  0.21886340029E+03  0.47000000000E+01 0.  1.
         13    1    6    6    0    0  0.58083036482E+02  0.41063822401E+01  0.26812121119E+03  0.27437107244E+03  0.00000000000E+00 0. -1.
        -14    1    6    6    0    0 -0.11401280380E+02  0.42342684263E+02  0.11439423989E+03  0.12251095553E+03  0.00000000000E+00 0.  1.
</event>
<event>
12    1  0.9017558E-003  0.1752291E+03  0.7818608E-02  0.1172712E+00
         21   -1    0    0  503  502  0.00000000000E+00  0.00000000000E+00  0.35360073998E+03  0.35360073998E+03  0.00000000000E+00 0. -1.
         21   -1    0    0  501  503 -0.00000000000E+00 -0.00000000000E+00 -0.86424127890E+02  0.86424127890E+02  0.00000000000E+00 0. -1.
          6    2    1    2  501    0 -0.66714408141E+01  0.32410626203E+02  0.13460505136E+03  0.22029669492E+03  0.17122253685E+03 0.  0.
         24    2    3    3    0    0  0.62927543473E+00 -0.26514082399E+02  0.16162704562E+02  0.87721805674E+02  0.82039561304E+02 0.  0.
         -6    2    1    2    0  502  0.66714408141E+01 -0.32410626203E+02  0.13257156073E+03  0.21972817295E+03  0.17207642042E+03 0.  0.
        -24    2    5    5    0    0  0.46596305009E+02 -0.70305569407E+02  0.10059124170E+03  0.15589360312E+03  0.84084058275E+02 0.  0.
          5    1    3    3  501    0 -0.73007162489E+01  0.58924708602E+02  0.11844234680E+03  0.13257488924E+03  0.47000000000E+01 0. -1.
        -11    1    4    4    0    0 -0.11905459830E+02  0.17674566199E+01  0.44299237202E+02  0.45905188087E+02  0.00000000000E+00 0.  1.
         12    1    4    4    0    0  0.12534735265E+02 -0.28281539019E+02 -0.28136532640E+02  0.41816617587E+02  0.00000000000E+00 0. -1.
         -5    1    5    5    0  502 -0.39924864195E+02  0.37894943203E+02  0.31980319026E+02  0.63834569838E+02  0.47000000000E+01 0.  1.
         11    1    6    6    0    0  0.48482986325E+02 -0.25253517392E+02  0.96124377569E+02  0.11058135497E+03  0.00000000000E+00 0. -1.
        -12    1    6    6    0    0 -0.18866813164E+01 -0.45052052014E+02  0.44668641314E+01  0.45312248148E+02  0.00000000000E+00 0.  1.
</event>
<event>
12    1  0.9017558E-003  0.2077071E+03  0.7818608E-02  0.1143767E+00
         21   -1    0    0  503  502  0.00000000000E+00  0.00000000000E+00  0.13624114741E+03  0.13624114741E+03  0.00000000000E+00 0. -1.
         21   -1    0    0  501  503 -0.00000000000E+00 -0.00000000000E+00 -0.31428143383E+03  0.31428143383E+03  0.00000000000E+00 0.  1.
          6    2    1    2  501    0 -0.28897279500E+02 -0.11311933945E+03 -0.80321569989E+02  0.22097697018E+03  0.16955302717E+03 0.  0.
         24    2    3    3    0    0 -0.44199616126E+02 -0.12496385875E+03 -0.18689201391E+02  0.15620743256E+03  0.80510270648E+02 0.  0.
         -6    2    1    2    0  502  0.28897279500E+02  0.11311933945E+03 -0.97718716431E+02  0.22954561106E+03  0.17178824842E+03 0.  0.
        -24    2    5    5    0    0  0.45546797250E+02  0.10569433706E+03 -0.13041251458E+03  0.19181880972E+03  0.80877859636E+02 0.  0.
          5    1    3    3  501    0  0.15302336626E+02  0.11844519304E+02 -0.61632368598E+02  0.64769537614E+02  0.47000000000E+01 0. -1.
        -11    1    4    4    0    0  0.13948069275E+02 -0.71556175641E+02 -0.24832256325E+02  0.77016075355E+02  0.00000000000E+00 0.  1.
         12    1    4    4    0    0 -0.58147685401E+02 -0.53407683112E+02  0.61430549339E+01  0.79191357210E+02  0.00000000000E+00 0. -1.
         -5    1    5    5    0  502 -0.16649517750E+02  0.74250023873E+01  0.32693798144E+02  0.37726801333E+02  0.47000000000E+01 0.  1.
         13    1    6    6    0    0  0.24940948013E+02  0.27680502245E+02  0.13825297079E+01  0.37285016839E+02  0.00000000000E+00 0. -1.
        -14    1    6    6    0    0  0.20605849237E+02  0.78013834816E+02 -0.13179504428E+03  0.15453379288E+03  0.00000000000E+00 0.  1.
</event>
<event>
12    1  0.9017558E-003  0.2478676E+03  0.7818608E-02  0.1115305E+00
         21   -1    0    0  501  502  0.00000000000E+00  0.00000000000E+00  0.12337485355E+03  0.12337485355E+03  0.00000000000E+00 0. -1.
         21   -1    0    0  502  503 -0.00000000000E+00 -0.00000000000E+00 -0.98718953234E+03  0.98718953234E+03  0.00000000000E+00 0.  1.
          6    2    1    2  501    0  0.17265156816E+03 -0.96122618895E+01 -0.39575621158E+02  0.25100717250E+03  0.17758775659E+03 0.  0.
         24    2    3    3    0    0  0.19140169708E+03 -0.18982378120E+02 -0.39345005565E+01  0.20939292145E+03  0.82673907217E+02 0.  0.
         -6    2    1    2    0  503 -0.17265156816E+03  0.96122618895E+01 -0.82423905763E+03  0.85955721339E+03  0.17195237535E+03 0.  0.
        -24    2    5    5    0    0 -0.18302580293E+03  0.43165234625E+02 -0.61118940377E+03  0.64358112272E+03  0.72680755531E+02 0.  0.
          5    1    3    3  501    0 -0.18750128923E+02  0.93701162304E+01 -0.35641120601E+02  0.41614251051E+02  0.47000000000E+01 0. -1.
        -13    1    4    4    0    0  0.20646517895E+02 -0.31967173417E+02 -0.25306414181E+01  0.38138996099E+02  0.00000000000E+00 0.  1.
         14    1    4    4    0    0  0.17075517919E+03  0.12984795297E+02 -0.14038591384E+01  0.17125392535E+03  0.00000000000E+00 0. -1.
         -5    1    5    5    0  503  0.10374234776E+02 -0.33552972736E+02 -0.21304965387E+03  0.21597609067E+03  0.47000000000E+01 0.  1.
         11    1    6    6    0    0 -0.55115238648E+02  0.48734992804E+02 -0.22230525395E+03  0.23416322296E+03  0.00000000000E+00 0. -1.
        -12    1    6    6    0    0 -0.12791056429E+03 -0.55697581787E+01 -0.38888414982E+03  0.40941789976E+03  0.00000000000E+00 0.  1.
</event>
<event>
12    1  0.9017558E-003  0.2000998E+03  0.7818608E-02  0.1149692E+00
         21   -1    0    0  501  502  0.00000000000E+00  0.00000000000E+00  0.43059107906E+02  0.43059107906E+02  0.00000000000E+00 0.  1.
         21   -1    0    0  502  503 -0.00000000000E+00 -0.00000000000E+00 -0.22578216286E+04  0.22578216286E+04  0.00000000000E+00 0.  1.
          6    2    1    2  501    0 -0.89746666907E+02 -0.47516435150E+02 -0.22462355552E+03  0.30070748775E+03  0.17221200789E+03 0.  0.
         24    2    3    3    0    0 -0.54771747411E+02  0.59148503963E+00 -0.22009815302E+03  0.24087283018E+03  0.81093952834E+02 0.  0.
         -6    2    1    2    0  503  0.89746666907E+02  0.47516435150E+02 -0.19901389651E+04  0.20001732487E+04  0.17241707724E+03 0.  0.
        -24    2    5    5    0    0  0.58272971374E+01  0.99476357983E+01 -0.14492043977E+04  0.14514600527E+04  0.80062383479E+02 0.  0.
          5    1    3    3  501    0 -0.34974919496E+02 -0.48107920190E+02 -0.45254025033E+01  0.59834657570E+02  0.47000000000E+01 0. -1.
        -11    1    4    4    0    0 -0.68660214498E+02  0.30664648967E+01 -0.10883845968E+03  0.12872233127E+03  0.00000000000E+00 0.  1.
         12    1    4    4    0    0  0.13888467087E+02 -0.24749798571E+01 -0.11125969334E+03  0.11215049891E+03  0.00000000000E+00 0. -1.
         -5    1    5    5    0  503  0.83919369770E+02  0.37568799352E+02 -0.54093456740E+03  0.54871319605E+03  0.47000000000E+01 0.  1.
         11    1    6    6    0    0  0.19951395568E+02 -0.12126057821E+02 -0.12821633686E+04  0.12823759211E+04  0.00000000000E+00 0. -1.
        -12    1    6    6    0    0 -0.14124098431E+02  0.22073693620E+02 -0.16704102917E+03  0.16908413153E+03  0.00000000000E+00 0.  1.
</event>
<event>
12    1  0.9017558E-003  0.1919624E+03  0.7818608E-02  0.1157452E+00
         21   -1    0    0  503  502  0.00000000000E+00  0.00000000000E+00  0.10134495159E+03  0.10134495159E+03  0.00000000000E+00 0.  1.
         21   -1    0    0  501  503 -0.00000000000E+00 -0.00000000000E+00 -0.35857572632E+03  0.35857572632E+03  0.00000000000E+00 0.  1.
          6    2    1    2  501    0  0.81591376884E+02 -0.25816474820E+02 -0.14334685995E+03  0.23957853558E+03  0.17183104871E+03 0.  0.
         24    2    3    3    0    0  0.22366443011E+02 -0.78611779678E+02 -0.60383220725E+02  0.12468731555E+03  0.72254575200E+02 0.  0.
         -6    2    1    2    0  502 -0.81591376884E+02  0.25816474820E+02 -0.11388391479E+03  0.22034214232E+03  0.16809958501E+03 0.  0.
        -24    2    5    5    0    0  0.10163731479E+02 -0.25426444278E+02 -0.58173111308E+02  0.10130172778E+03  0.78282333043E+02 0.  0.
          5    1    3    3  501    0  0.59224933873E+02  0.52795304858E+02 -0.82963639221E+02  0.11489122003E+03  0.47000000000E+01 0. -1.
        -13    1    4    4    0    0  0.35482234766E+02 -0.29097055988E+02 -0.50584776318E+00  0.45889906659E+02  0.00000000000E+00 0.  1.
         14    1    4    4    0    0 -0.13115791756E+02 -0.49514723690E+02 -0.59877372962E+02  0.78797408893E+02  0.00000000000E+00 0. -1.
         -5    1    5    5    0  502 -0.91755108363E+02  0.51242919098E+02 -0.55710803478E+02  0.11904041453E+03  0.47000000000E+01 0.  1.
         11    1    6    6    0    0  0.28581601925E+02 -0.37908519704E+02 -0.10399943382E+02  0.48601673398E+02  0.00000000000E+00 0. -1.
        -12    1    6    6    0    0 -0.18417870446E+02  0.12482075426E+02 -0.47773167926E+02  0.52700054386E+02  0.00000000000E+00 0.  1.
</event>
<event>
12    1  0.9017558E-003  0.2203008E+03  0.7818608E-02  0.1135216E+00
         21   -1    0    0  501  502  0.00000000000E+00  0.00000000000E+00  0.16129859770E+03  0.16129859770E+03  0.00000000000E+00 0. -1.
         21   -1    0    0  502  503 -0.00000000000E+00 -0.00000000000E+00 -0.30631412854E+03  0.30631412854E+03  0.00000000000E+00 0.  1.
          6    2    1    2  501    0 -0.73256612903E+02 -0.11833457880E+03 -0.19518243047E+02  0.22116373282E+03  0.17077128280E+03 0.  0.
         24    2    3    3    0    0 -0.96181024039E+02 -0.34639761566E+02  0.85725293514E+01  0.12983174197E+03  0.79574433692E+02 0.  0.
         -6    2    1    2    0  503  0.73256612903E+02  0.11833457880E+03 -0.12549728780E+03  0.24644899342E+03  0.16005603156E+03 0.  0.
        -24    2    5    5    0    0  0.73042325910E+02  0.14478705500E+03 -0.12523774941E+03  0.21958011224E+03  0.78945925435E+02 0.  0.
          5    1    3    3  501    0  0.22924411136E+02 -0.83694817234E+02 -0.28090772398E+02  0.91331990845E+02  0.47000000000E+01 0. -1.
        -13    1    4    4    0    0 -0.94502652590E+02 -0.54604310773E+02  0.36693987106E+01  0.10920552453E+03  0.00000000000E+00 0.  1.
         14    1    4    4    0    0 -0.16783714494E+01  0.19964549207E+02  0.49031306408E+01  0.20626217439E+02  0.00000000000E+00 0. -1.
         -5    1    5    5    0  503  0.21428699282E+00 -0.26452476200E+02 -0.25953839006E+00  0.26868881186E+02  0.47000000000E+01 0.  1.
         13    1    6    6    0    0  0.14350792700E+02  0.51620626740E+01  0.85581482093E+01  0.17488111474E+02  0.00000000000E+00 0. -1.
        -14    1    6    6    0    0  0.58691533211E+02  0.13962499233E+03 -0.13379589762E+03  0.20209200076E+03  0.00000000000E+00 0.  1.
</event>
<event>
12    1  0.9017558E-003  0.1801843E+03  0.7818608E-02  0.1168315E+00
         21   -1    0    0  501  502  0.00000000000E+00  0.00000000000E+00  0.84633836109E+03  0.84633836109E+03  0.00000000000E+00 0.  1.
         21   -1    0    0  502  503 -0.00000000000E+00 -0.00000000000E+00 -0.37869326453E+02  0.37869326453E+02  0.00000000000E+00 0.  1.
          6    2    1    2  501    0  0.10483041072E+02 -0.43260956682E+02  0.43118868381E+03  0.46732223502E+03  0.17459950107E+03 0.  0.
         24    2    3    3    0    0 -0.52652497727E+02 -0.56140282270E+02  0.21672042786E+03  0.24333407440E+03  0.79496610638E+02 0.  0.
         -6    2    1    2    0  503 -0.10483041072E+02  0.43260956682E+02  0.37728035083E+03  0.41688545253E+03  0.17167298239E+03 0.  0.
        -24    2    5    5    0    0 -0.49049775217E+02  0.39516558911E+02  0.12045710468E+03  0.15711308437E+03  0.78785584555E+02 0.  0.
          5    1    3    3  501    0  0.63135538798E+02  0.12879325588E+02  0.21446825595E+03  0.22398816062E+03  0.47000000000E+01 0. -1.
        -11    1    4    4    0    0 -0.29280758410E+02 -0.67758697413E+02  0.19772290584E+03  0.21105201109E+03  0.00000000000E+00 0.  1.
         12    1    4    4    0    0 -0.23371739317E+02  0.11618415143E+02  0.18997522015E+02  0.32282063314E+02  0.00000000000E+00 0. -1.
         -5    1    5    5    0  503  0.38566734145E+02  0.37443977710E+01  0.25682324615E+03  0.25977236816E+03  0.47000000000E+01 0.  1.
         13    1    6    6    0    0 -0.38378461985E+02  0.22727132840E+02  0.12822150559E+03  0.13575781159E+03  0.00000000000E+00 0. -1.
        -14    1    6    6    0    0 -0.10671313232E+02  0.16789426071E+02 -0.77644009096E+01  0.21355272777E+02  0.00000000000E+00 0.  1.
</event>
<event>
12    1  0.9017558E-003  0.1808479E+03  0.7818608E-02  0.1167224E+00
         21   -1    0    0  501  502  0.00000000000E+00  0.00000000000E+00  0.18949551260E+03  0.18949551260E+03  0.00000000000E+00 0. -1.
         21   -1    0    0  502  503 -0.00000000000E+00 -0.00000000000E+00 -0.17279646885E+03  0.17279646885E+03  0.00000000000E+00 0. -1.
          6    2    1    2  501    0  0.40955764310E+02 -0.38984331311E+02 -0.64369208552E+01  0.17997018288E+03  0.17073570235E+03 0.  0.
         24    2    3    3    0    0  0.54072800485E+02  0.12799452145E+02  0.42868782740E+02  0.10712267589E+03  0.80931090620E+02 0.  0.
         -6    2    1    2    0  503 -0.40955764310E+02  0.38984331311E+02  0.23135964603E+02  0.18232179857E+03  0.17178129310E+03 0.  0.
        -24    2    5    5    0    0 -0.66738958885E+02  0.16343368120E+02 -0.37754175213E+02  0.11227120640E+03  0.80363248603E+02 0.  0.
          5    1    3    3  501    0 -0.13117036175E+02 -0.51783783456E+02 -0.49305703595E+02  0.72847506986E+02  0.47000000000E+01 0. -1.
        -11    1    4    4    0    0 -0.17912261841E+02  0.10679141224E+02 -0.39506957583E+01  0.21225013040E+02  0.00000000000E+00 0.  1.
         12    1    4    4    0    0  0.71985062326E+02  0.21203109211E+01  0.46819478499E+02  0.85897662851E+02  0.00000000000E+00 0. -1.
         -5    1    5    5    0  503  0.25783194576E+02  0.22640963191E+02  0.60890139815E+02  0.70050592171E+02  0.47000000000E+01 0.  1.
         11    1    6    6    0    0 -0.49541218817E+02  0.95458401040E+01  0.17971188491E+02  0.53557623556E+02  0.00000000000E+00 0. -1.
        -12    1    6    6    0    0 -0.17197740069E+02  0.67975280163E+01 -0.55725363704E+02  0.58713582845E+02  0.00000000000E+00 0.  1.
</event>
<event>
12    1  0.9017558E-003  0.2181060E+03  0.7818608E-02  0.1135450E+00
         21   -1    0    0  501  502  0.00000000000E+00  0.00000000000E+00  0.85244773571E+02  0.85244773571E+02  0.00000000000E+00 0.  1.
         21   -1    0    0  502  503 -0.00000000000E+00 -0.00000000000E+00 -0.70320345049E+03  0.70320345049E+03  0.00000000000E+00 0. -1.
          6    2    1    2  501    0 -0.12988428453E+03 -0.33235907895E+02 -0.12908004539E+03  0.25344009191E+03  0.17203391853E+03 0.  0.
         24    2    3    3    0    0 -0.88945158216E+02 -0.84814525701E+02 -0.61610203718E+02  0.15904392984E+03  0.79965051587E+02 0.  0.
         -6    2    1    2    0  503  0.12988428453E+03  0.33235907895E+02 -0.48887863153E+03  0.53500813216E+03  0.17104628663E+03 0.  0.
        -24    2    5    5    0    0  0.55171843955E+02 -0.45278567732E+02 -0.27521760662E+03  0.29538427019E+03  0.80081552313E+02 0.  0.
          5    1    3    3  501    0 -0.40939126312E+02  0.51578617806E+02 -0.67469841676E+02  0.94396162071E+02  0.47000000000E+01 0. -1.
        -11    1    4    4    0    0 -0.78003308455E+02 -0.56644773046E+02 -0.78593245016E+02  0.12437863404E+03  0.00000000000E+00 0.  1.
         12    1    4    4    0    0 -0.10941849760E+02 -0.28169752655E+02  0.16983041298E+02  0.34665295795E+02  0.00000000000E+00 0. -1.
         -5    1    5    5    0  503  0.74712440573E+02  0.78514475628E+02 -0.21366102490E+03  0.23962386196E+03  0.47000000000E+01 0.  1.
         11    1    6    6    0    0  0.72047039512E+02 -0.16651811211E+02 -0.19552883722E+03  0.20904445677E+03  0.00000000000E+00 0. -1.
        -12    1    6    6    0    0 -0.16875195557E+02 -0.28626756521E+02 -0.79688769400E+02  0.86339813427E+02  0.00000000000E+00 0.  1.
</event>
<event>
12    1  0.9017558E-003  0.2429100E+03  0.7818608E-02  0.1118003E+00
         21   -1    0    0  503  502  0.00000000000E+00  0.00000000000E+00  0.13169257245E+03  0.13169257245E+03  0.00000000000E+00 0. -1.
         21   -1    0    0  501  503 -0.00000000000E+00 -0.00000000000E+00 -0.57234095259E+03  0.57234095259E+03  0.00000000000E+00 0.  1.
          6    2    1    2  501    0  0.71545810881E+02  0.15478839195E+03 -0.38506515908E+03  0.45484529356E+03  0.17184532287E+03 0.  0.
         24    2    3    3    0    0  0.79975908467E+02  0.10841019436E+03 -0.37524333083E+03  0.40646593776E+03  0.79108059347E+02 0.  0.
         -6    2    1    2    0  502 -0.71545810881E+02 -0.15478839195E+03 -0.55583221053E+02  0.24918823148E+03  0.17299430890E+03 0.  0.
        -24    2    5    5    0    0 -0.10311512284E+03 -0.14178431878E+03 -0.12465383246E+02  0.19398890800E+03  0.82102308350E+02 0.  0.
          5    1    3    3  501    0 -0.84300975862E+01  0.46378197591E+02 -0.98218282590E+01  0.48379355798E+02  0.47000000000E+01 0. -1.
        -13    1    4    4    0    0  0.67713407524E+02  0.11854177153E+03 -0.30061915228E+03  0.33016530992E+03  0.00000000000E+00 0.  1.
         14    1    4    4    0    0  0.12262500943E+02 -0.10131577172E+02 -0.74624178541E+02  0.76300627837E+02  0.00000000000E+00 0. -1.
         -5    1    5    5    0  502  0.31569311956E+02 -0.13004073163E+02 -0.43117837806E+02  0.55199323486E+02  0.47000000000E+01 0.  1.
         11    1    6    6    0    0 -0.48281547015E+02 -0.12825339591E+03 -0.11185631641E+02  0.13749603521E+03  0.00000000000E+00 0. -1.
        -12    1    6    6    0    0 -0.54833575822E+02 -0.13530922874E+02 -0.12797516059E+01  0.56492872785E+02  0.00000000000E+00 0.  1.
</event>
<event>
12    1  0.9017558E-003  0.1831323E+03  0.7818608E-02  0.1165527E+00
         21   -1    0    0  501  502  0.00000000000E+00  0.00000000000E+00  0.26544732954E+03  0.26544732954E+03  0.00000000000E+00 0. -1.
         21   -1    0    0  502  503 -0.00000000000E+00 -0.00000000000E+00 -0.13640987440E+03  0.13640987440E+03  0.00000000000E+00 0. -1.
          6    2    1    2  501    0 -0.27693664900E+02 -0.48143795764E+02  0.12397698783E+03  0.21865501820E+03  0.17133289038E+03 0.  0.
         24    2    3    3    0    0  0.76608111149E+01  0.30915532267E+02  0.26524129859E+02  0.88196343325E+02  0.77849902690E+02 0.  0.
         -6    2    1    2    0  503  0.27693664900E+02  0.48143795764E+02  0.50604673086E+01  0.18320218575E+03  0.17450692934E+03 0.  0.
        -24    2    5    5    0    0 -0.24135596649E+02 -0.13247525916E+02 -0.36619286749E+02  0.92568535108E+02  0.80435922084E+02 0.  0.
          5    1    3    3  501    0 -0.35354476015E+02 -0.79059328031E+02  0.97452857972E+02  0.13045867487E+03  0.47000000000E+01 0. -1.
        -11    1    4    4    0    0  0.33209861287E+02  0.15574212906E+02  0.41044118550E+02  0.55046077625E+02  0.00000000000E+00 0.  1.
         12    1    4    4    0    0 -0.25549050172E+02  0.15341319361E+02 -0.14519988691E+02  0.33150265700E+02  0.00000000000E+00 0. -1.
         -5    1    5    5    0  503  0.51829261549E+02  0.61391321679E+02  0.41679754057E+02  0.90633650641E+02  0.47000000000E+01 0.  1.
         11    1    6    6    0    0  0.16463523121E+01 -0.23746833421E+02 -0.54507696207E+02  0.59478664403E+02  0.00000000000E+00 0. -1.
        -12    1    6    6    0    0 -0.25781948961E+02  0.10499307505E+02  0.17888409458E+02  0.33089870704E+02  0.00000000000E+00 0.  1.
</event>
<event>
12    1  0.9017558E-003  0.3031536E+03  0.7818608E-02  0.1085021E+00
         21   -1    0    0  501  502  0.00000000000E+00  0.00000000000E+00  0.23220951885E+03  0.23220951885E+03  0.00000000000E+00 0. -1.
         21   -1    0    0  502  503 -0.00000000000E+00 -0.00000000000E+00 -0.52563993311E+03  0.52563993311E+03  0.00000000000E+00 0. -1.
          6    2    1    2  501    0 -0.23585098327E+02  0.23630691670E+03  0.53324994264E+02  0.29726134086E+03  0.17065618656E+03 0.  0.
         24    2    3    3    0    0 -0.35170411702E+02  0.35346090371E+02 -0.70008333530E+01  0.87069122443E+02  0.71033206682E+02 0.  0.
         -6    2    1    2    0  503  0.23585098327E+02 -0.23630691670E+03 -0.34675540852E+03  0.46058811110E+03  0.18842738390E+03 0.  0.
        -24    2    5    5    0    0  0.57581155632E+02 -0.58488850587E+02 -0.18620347138E+03  0.21856742795E+03  0.79771252229E+02 0.  0.
          5    1    3    3  501    0  0.11585313375E+02  0.20096082633E+03  0.60325827617E+02  0.21019221842E+03  0.47000000000E+01 0. -1.
        -13    1    4    4    0    0 -0.32813305124E+02  0.47131912461E+02  0.17283022129E+02  0.59973602687E+02  0.00000000000E+00 0.  1.
         14    1    4    4    0    0 -0.23571065782E+01 -0.11785822090E+02 -0.24283855482E+02  0.27095519756E+02  0.00000000000E+00 0. -1.
         -5    1    5    5    0  503 -0.33996057305E+02 -0.17781806612E+03 -0.16055193714E+03  0.24202068314E+03  0.47000000000E+01 0.  1.
         13    1    6    6    0    0  0.73828596652E+02 -0.51022215802E+02 -0.11912470789E+03  0.14914631815E+03  0.00000000000E+00 0. -1.
        -14    1    6    6    0    0 -0.16247441019E+02 -0.74666347851E+01 -0.67078763493E+02  0.69421109804E+02  0.00000000000E+00 0.  1.
</event>
<event>
12    1  0.9017558E-003  0.2138442E+03  0.7818608E-02  0.1138597E+00
         21   -1    0    0  503  502  0.00000000000E+00  0.00000000000E+00  0.21326323026E+03  0.21326323026E+03  0.00000000000E+00 0. -1.
         21   -1    0    0  501  503 -0.00000000000E+00 -0.00000000000E+00 -0.32079480431E+03  0.32079480431E+03  0.00000000000E+00 0. -1.
          6    2    1    2  501    0  0.11301558229E+03  0.57938382925E+02 -0.20769256119E+03  0.29810323872E+03  0.17204639754E+03 0.  0.
         24    2    3    3    0    0  0.14004144056E+02 -0.17223540597E+02 -0.41420111831E+02  0.90446798742E+02  0.77280213102E+02 0.  0.
         -6    2    1    2    0  502 -0.11301558229E+03 -0.57938382925E+02  0.10016098714E+03  0.23595479586E+03  0.17179366777E+03 0.  0.
        -24    2    5    5    0    0 -0.12928758319E+03 -0.85754076086E+02  0.10384533222E+03  0.20318048888E+03  0.80183647361E+02 0.  0.
          5    1    3    3  501    0  0.99011438230E+02  0.75161923521E+02 -0.16627244936E+03  0.20765643998E+03  0.47000000000E+01 0. -1.
        -13    1    4    4    0    0  0.27178360680E+02 -0.26920660553E+02  0.73961139655E+01  0.38962645645E+02  0.00000000000E+00 0.  1.
         14    1    4    4    0    0 -0.13174216624E+02  0.96971199561E+01 -0.48816225797E+02  0.51484153097E+02  0.00000000000E+00 0. -1.
         -5    1    5    5    0  502  0.16272000901E+02  0.27815693161E+02 -0.36843450832E+01  0.32774306980E+02  0.47000000000E+01 0.  1.
         11    1    6    6    0    0 -0.18101936502E+02 -0.14072210687E+02  0.59323073325E+02  0.63599797543E+02  0.00000000000E+00 0. -1.
        -12    1    6    6    0    0 -0.11118564668E+03 -0.71681865399E+02  0.44522258896E+02  0.13958069133E+03  0.00000000000E+00 0.  1.
</event>
<event>
12    1  0.9017558E-003  0.2559976E+03  0.7818608E-02  0.1109668E+00
         21   -1    0    0  501  502  0.00000000000E+00  0.00000000000E+00  0.14579481037E+04  0.14579481037E+04  0.00000000000E+00 0. -1.
         21   -1    0    0  502  503 -0.00000000000E+00 -0.00000000000E+00 -0.74537323983E+02  0.74537323983E+02  0.00000000000E+00 0.  1.
          6    2    1    2  501    0 -0.71796426134E+02 -0.17416189644E+03  0.11758707411E+04  0.12034146325E+04  0.17334268026E+03 0.  0.
         24    2    3    3    0    0  0.69848070535E+01 -0.15214938120E+03  0.86542217992E+03  0.88233608648E+03  0.79769657681E+02 0.  0.
         -6    2    1    2    0  503  0.71796426134E+02  0.17416189644E+03  0.20754003859E+03  0.32907079522E+03  0.17241701677E+03 0.  0.
        -24    2    5    5    0    0  0.94675036644E+02  0.18869991580E+03  0.19756669621E+03  0.29980746691E+03  0.79252110219E+02 0.  0.
          5    1    3    3  501    0 -0.78781233187E+02 -0.22012515245E+02  0.31044856121E+03  0.32107854598E+03  0.47000000000E+01 0. -1.
        -11    1    4    4    0    0 -0.21981984785E+02 -0.89594429972E+01  0.80190248284E+02  0.83629870225E+02  0.00000000000E+00 0.  1.
         12    1    4    4    0    0  0.28966791839E+02 -0.14318993820E+03  0.78523193164E+03  0.79870621626E+03  0.00000000000E+00 0. -1.
         -5    1    5    5    0  503 -0.22878610510E+02 -0.14538019362E+02  0.99733423760E+01  0.29263328314E+02  0.47000000000E+01 0.  1.
         11    1    6    6    0    0  0.67550203081E+02  0.50614941470E+02  0.65835744697E+02  0.10704787488E+03  0.00000000000E+00 0. -1.
        -12    1    6    6    0    0  0.27124833564E+02  0.13808497433E+03  0.13173095151E+03  0.19275959203E+03  0.00000000000E+00 0.  1.
</event>
<event>
12    1  0.9017558E-003  0.2751227E+03  0.7818608E-02  0.1098582E+00
         21   -1    0    0  503  502  0.00000000000E+00  0.00000000000E+00  0.96037608253E+03  0.96037608253E+03  0.00000000000E+00 0.  1.
         21   -1    0    0  501  503 -0.00000000000E+00 -0.00000000000E+00 -0.11354144034E+03  0.11354144034E+03  0.00000000000E+00 0. -1.
          6    2    1    2  501    0 -0.21307055958E+03  0.31663039382E+02  0.12397232723E+03  0.30046910895E+03  0.16885181695E+03 0.  0.
         24    2    3    3    0    0 -0.23538566203E+03  0.35263217940E+02  0.10924642981E+03  0.27308540690E+03  0.77401244228E+02 0.  0.
         -6    2    1    2    0  502  0.21307055958E+03 -0.31663039382E+02  0.72286231496E+03  0.77344841393E+03  0.17114587695E+03 0.  0.
        -24    2    5    5    0    0  0.19532365518E+03 -0.62708999315E+02  0.48274851745E+03  0.53064081520E+03  0.80310614445E+02 0.  0.
          5    1    3    3  501    0  0.22315102446E+02 -0.36001785575E+01  0.14725897414E+02  0.27383702041E+02  0.47000000000E+01 0. -1.
        -13    1    4    4    0    0 -0.13663332137E+03 -0.15555897111E+02  0.76175834610E+02  0.15720498791E+03  0.00000000000E+00 0.  1.
         14    1    4    4    0    0 -0.98752340659E+02  0.50819115051E+02  0.33070595203E+02  0.11588041900E+03  0.00000000000E+00 0. -1.
         -5    1    5    5    0  502  0.17746904403E+02  0.31045959933E+02  0.24011379751E+03  0.24280759873E+03  0.47000000000E+01 0.  1.
         13    1    6    6    0    0  0.13227263123E+03 -0.21519795878E+01  0.27138317728E+03  0.30190976946E+03  0.00000000000E+00 0. -1.
        -14    1    6    6    0    0  0.63051023954E+02 -0.60557019727E+02  0.21136534017E+03  0.22873104574E+03  0.00000000000E+00 0.  1.
</event>
<event>
12    1  0.9017558E-003  0.1824035E+03  0.7818608E-02  0.1165499E+00
         21   -1    0    0  503  502  0.00000000000E+00  0.00000000000E+00  0.10303682913E+03  0.10303682913E+03  0.00000000000E+00 0.  1.
         21   -1    0    0  501  503 -0.00000000000E+00 -0.00000000000E+00 -0.36412901756E+03  0.36412901756E+03  0.00000000000E+00 0.  1.
          6    2    1    2  501    0 -0.56182931500E+02  0.21521817209E+02 -0.20915619674E+03  0.27751997241E+03  0.17219555756E+03 0.  0.
         24    2    3    3    0    0 -0.37767658244E+02 -0.28040145668E+02 -0.20432866905E+03  0.22421982722E+03  0.79446083265E+02 0.  0.
         -6    2    1    2    0  502  0.56182931500E+02 -0.21521817209E+02 -0.51935991693E+02  0.18964587429E+03  0.17218739789E+03 0.  0.
        -24    2    5    5    0    0 -0.32945882865E+02  0.12085330178E+02 -0.22165509357E+02  0.89737128303E+02  0.79561020530E+02 0.  0.
          5    1    3    3  501    0 -0.18415273256E+02  0.49561962877E+02 -0.48275276910E+01  0.53300145186E+02  0.47000000000E+01 0. -1.
        -13    1    4    4    0    0 -0.43726912684E+02 -0.51687883043E+02 -0.14287754905E+03  0.15810652792E+03  0.00000000000E+00 0.  1.
         14    1    4    4    0    0  0.59592544399E+01  0.23647737375E+02 -0.61451119992E+02  0.66113299302E+02  0.00000000000E+00 0. -1.
         -5    1    5    5    0  502  0.89128814366E+02 -0.33607147386E+02 -0.29770482336E+02  0.99908745984E+02  0.47000000000E+01 0.  1.
         11    1    6    6    0    0 -0.13610268442E+02  0.25941853857E+01 -0.51507209421E+02  0.53338183576E+02  0.00000000000E+00 0. -1.
        -12    1    6    6    0    0 -0.19335614424E+02  0.94911447920E+01  0.29341700064E+02  0.36398944727E+02  0.00000000000E+00 0.  1.
</event>
<event>
12    1  0.9017558E-003  0.1769243E+03  0.7818608E-02  0.1171275E+00
         21   -1    0    0  503  502  0.00000000000E+00  0.00000000000E+00  0.19928757054E+03  0.19928757054E+03  0.00000000000E+00 0. -1.
         21   -1    0    0  501  503 -0.00000000000E+00 -0.00000000000E+00 -0.15643368477E+03  0.15643368477E+03  0.00000000000E+00 0. -1.
          6    2    1    2  501    0  0.56522899792E+00 -0.37276860661E+02  0.35567491998E+02  0.17864693376E+03  0.17105495207E+03 0.  0.
         24    2    3    3    0    0  0.14636312124E+02 -0.76281841595E+02  0.63838927539E+02  0.12824110090E+03  0.79606722719E+02 0.  0.
         -6    2    1    2    0  502 -0.56522899792E+00  0.37276860661E+02  0.72863937754E+01  0.17707432155E+03  0.17295184299E+03 0.  0.
        -24    2    5    5    0    0  0.62027456901E+01  0.76189995839E+02  0.49007658646E+02  0.11943066177E+03  0.77579268131E+02 0.  0.
          5    1    3    3  501    0 -0.14071083126E+02  0.39004980935E+02 -0.28271435541E+02  0.50405832853E+02  0.47000000000E+01 0. -1.
        -13    1    4    4    0    0  0.18759544586E+02 -0.20858987285E+02 -0.14976893829E+02  0.31801339790E+02  0.00000000000E+00 0.  1.
         14    1    4    4    0    0 -0.41232324623E+01 -0.55422854311E+02  0.78815821368E+02  0.96439761115E+02  0.00000000000E+00 0. -1.
         -5    1    5    5    0  502 -0.67679746880E+01 -0.38913135178E+02 -0.41721264871E+02  0.57643659783E+02  0.47000000000E+01 0.  1.
         11    1    6    6    0    0  0.32970210599E+02  0.34427032673E+02 -0.27409353431E+01  0.47746917096E+02  0.00000000000E+00 0. -1.
        -12    1    6    6    0    0 -0.26767464909E+02  0.41762963165E+02  0.51748593989E+02  0.71683744670E+02  0.00000000000E+00 0.  1.
</event>
<event>
12    1  0.9017558E-003  0.2922390E+03  0.7818608E-02  0.1090638E+00
         21   -1    0    0  501  502  0.00000000000E+00  0.00000000000E+00  0.65335715242E+02  0.65335715242E+02  0.00000000000E+00 0. -1.
         21   -1    0    0  502  503 -0.00000000000E+00 -0.00000000000E+00 -0.12783234061E+04  0.12783234061E+04  0.00000000000E+00 0.  1.
          6    2    1    2  501    0 -0.21757675834E+03  0.45917191649E+02 -0.70186500039E+03  0.76027502965E+03  0.18961963950E+03 0.  0.
         24    2    3    3    0    0 -0.11227775582E+03 -0.41814397761E+00 -0.56371977790E+03  0.58043889381E+03  0.80764176173E+02 0.  0.
         -6    2    1    2    0  503  0.21757675834E+03 -0.45917191649E+02 -0.51112269050E+03  0.58338409171E+03  0.17217014685E+03 0.  0.
        -24    2    5    5    0    0  0.22873851762E+03 -0.36595903685E+02 -0.38540001263E+03  0.45673594522E+03  0.80087354265E+02 0.  0.
          5    1    3    3  501    0 -0.10529900252E+03  0.46335335626E+02 -0.13814522249E+03  0.17983613585E+03  0.47000000000E+01 0. -1.
        -11    1    4    4    0    0 -0.10462777551E+03  0.75221983371E+01 -0.32594630559E+03  0.34240991370E+03  0.00000000000E+00 0.  1.
         12    1    4    4    0    0 -0.76499803158E+01 -0.79403423147E+01 -0.23777347231E+03  0.23802898011E+03  0.00000000000E+00 0. -1.
         -5    1    5    5    0  503 -0.11161759281E+02 -0.93212879635E+01 -0.12572267787E+03  0.12664814649E+03  0.47000000000E+01 0.  1.
         13    1    6    6    0    0  0.78191641888E+02 -0.24241871940E+02 -0.72790401068E+02  0.10954471098E+03  0.00000000000E+00 0. -1.
        -14    1    6    6    0    0  0.15054687574E+03 -0.12354031745E+02 -0.31260961156E+03  0.34719123424E+03  0.00000000000E+00 0.  1.
</event>
<event>
12    1  0.9017558E-003  0.1798303E+03  0.7818608E-02  0.1168245E+00
         21   -1    0    0  501  502  0.00000000000E+00  0.00000000000E+00  0.43974173141E+02  0.43974173141E+02  0.00000000000E+00 0. -1.
         21   -1    0    0  502  503 -0.00000000000E+00 -0.00000000000E+00 -0.93684649034E+03  0.93684649034E+03  0.00000000000E+00 0. -1.
          6    2    1    2  501    0 -0.38619917342E+02  0.32638086109E+02 -0.21530312968E+03  0.27979360783E+03  0.17138343750E+03 0.  0.
         24    2    3    3    0    0 -0.42653558353E+02  0.84540296873E+02 -0.17631205801E+03  0.21458238631E+03  0.77416218442E+02 0.  0.
         -6    2    1    2    0  503  0.38619917342E+02 -0.32638086109E+02 -0.67756918752E+03  0.70102705566E+03  0.17257516104E+03 0.  0.
        -24    2    5    5    0    0  0.51007374456E+02 -0.80074469490E+02 -0.55950090785E+03  0.57309790250E+03  0.79914123028E+02 0.  0.
          5    1    3    3  501    0  0.40336410106E+01 -0.51902210764E+02 -0.38991071674E+02  0.65211221521E+02  0.47000000000E+01 0. -1.
        -11    1    4    4    0    0 -0.63394757098E+02  0.63975623715E+02 -0.15153920289E+03  0.17628359444E+03  0.00000000000E+00 0.  1.
         12    1    4    4    0    0  0.20741198745E+02  0.20564673158E+02 -0.24772855125E+02  0.38298791868E+02  0.00000000000E+00 0. -1.
         -5    1    5    5    0  503 -0.12387457114E+02  0.47436383381E+02 -0.11806827967E+03  0.12792915315E+03  0.47000000000E+01 0.  1.
         13    1    6    6    0    0  0.29434668047E+02 -0.62286118047E+02 -0.52089073392E+03  0.52542660464E+03  0.00000000000E+00 0. -1.
        -14    1    6    6    0    0  0.21572706409E+02 -0.17788351443E+02 -0.38610173925E+02  0.47671297858E+02  0.00000000000E+00 0.  1.
</event>
<event>
12    1  0.9017558E-003  0.2091304E+03  0.7818608E-02  0.1142453E+00
         21   -1    0    0  503  502  0.00000000000E+00  0.00000000000E+00  0.97549297816E+02  0.97549297816E+02  0.00000000000E+00 0.  1.
         21   -1    0    0  501  503 -0.00000000000E+00 -0.00000000000E+00 -0.52461389001E+03  0.52461389001E+03  0.00000000000E+00 0. -1.
          6    2    1    2  501    0  0.58032836620E+02 -0.10598796075E+03 -0.33334295177E+03  0.39299235752E+03  0.16948218675E+03 0.  0.
         24    2    3    3    0    0  0.88505875122E+02 -0.12021348356E+03 -0.30358930045E+03  0.34784436375E+03  0.80899113004E+02 0.  0.
         -6    2    1    2    0  502 -0.58032836620E+02  0.10598796075E+03 -0.93721640425E+02  0.22917083031E+03  0.17068762588E+03 0.  0.
        -24    2    5    5    0    0 -0.94054830586E+02  0.93131272821E+02 -0.10702709821E+03  0.18840315094E+03  0.80753962134E+02 0.  0.
          5    1    3    3  501    0 -0.30473038502E+02  0.14225522808E+02 -0.29753651325E+02  0.45147993774E+02  0.47000000000E+01 0. -1.
        -13    1    4    4    0    0  0.67135539015E+02 -0.42050835334E+02 -0.92782574789E+02  0.12200024400E+03  0.00000000000E+00 0.  1.
         14    1    4    4    0    0  0.21370336106E+02 -0.78162648229E+02 -0.21080672566E+03  0.22584411975E+03  0.00000000000E+00 0. -1.
         -5    1    5    5    0  502  0.36021993966E+02  0.12856687933E+02  0.13305457782E+02  0.40767679363E+02  0.47000000000E+01 0.  1.
         13    1    6    6    0    0 -0.43112395015E+02  0.94724126805E+02 -0.70816829023E+02  0.12588233425E+03  0.00000000000E+00 0. -1.
        -14    1    6    6    0    0 -0.50942435571E+02 -0.15928539833E+01 -0.36210269184E+02  0.62520816694E+02  0.00000000000E+00 0.  1.
</event>
<event>
12    1  0.9017558E-003  0.3860467E+03  0.7818608E-02  0.1048758E+00
         21   -1    0    0  501  502  0.00000000000E+00  0.00000000000E+00  0.33791460011E+03  0.33791460011E+03  0.00000000000E+00 0.  1.
         21   -1    0    0  502  503 -0.00000000000E+00 -0.00000000000E+00 -0.44060604182E+03  0.44060604182E+03  0.00000000000E+00 0. -1.
          6    2    1    2  501    0 -0.43753770840E+02 -0.34256676344E+03 -0.55051482722E+02  0.38954556280E+03  0.17160623493E+03 0.  0.
         24    2    3    3    0    0  0.25831080261E+02 -0.17310431171E+03 -0.70548780616E+02  0.20563843870E+03  0.81717131539E+02 0.  0.
         -6    2    1    2    0  503  0.43753770840E+02  0.34256676344E+03 -0.47639958989E+02  0.38897507913E+03  0.17252729238E+03 0.  0.
        -24    2    5    5    0    0  0.91108938126E+02  0.21987228686E+03 -0.69553604580E+02  0.25556314445E+03  0.61888252162E+02 0.  0.
          5    1    3    3  501    0 -0.69584851101E+02 -0.16946245173E+03  0.15497297893E+02  0.18390712409E+03  0.47000000000E+01 0. -1.
        -11    1    4    4    0    0  0.35242109140E+02 -0.17240379898E+03 -0.49855991614E+02  0.18289531448E+03  0.00000000000E+00 0.  1.
         12    1    4    4    0    0 -0.94110288795E+01 -0.70051272559E+00 -0.20692789001E+02  0.22743124220E+02  0.00000000000E+00 0. -1.
         -5    1    5    5    0  503 -0.47355167285E+02  0.12269447658E+03  0.21913645591E+02  0.13341193468E+03  0.47000000000E+01 0.  1.
         11    1    6    6    0    0  0.29735686321E+02  0.20749687732E+02 -0.12276605293E+01  0.36280404247E+02  0.00000000000E+00 0. -1.
        -12    1    6    6    0    0  0.61373251805E+02  0.19912259913E+03 -0.68325944051E+02  0.21928274020E+03  0.00000000000E+00 0.  1.
</event>
<event>
12    1  0.9017558E-003  0.3107659E+03  0.7818608E-02  0.1080116E+00
         21   -1    0    0  503  502  0.00000000000E+00  0.00000000000E+00  0.28827245326E+03  0.28827245326E+03  0.00000000000E+00 0.  1.
         21   -1    0    0  501  503 -0.00000000000E+00 -0.00000000000E+00 -0.33463697954E+03  0.33463697954E+03  0.00000000000E+00 0.  1.
          6    2    1    2  501    0  0.10356365406E+03  0.23599396929E+03 -0.38936200920E+02  0.31319553819E+03  0.17365722967E+03 0.  0.
         24    2    3    3    0    0  0.12688193125E+03  0.23831187502E+03 -0.50836081595E+02  0.28649700081E+03  0.81268997970E+02 0.  0.
         -6    2    1    2    0  502 -0.10356365406E+03 -0.23599396929E+03 -0.74283253614E+01  0.30971389460E+03  0.17160691276E+03 0.  0.
        -24    2    5    5    0    0 -0.89174939318E+01 -0.16818959545E+03 -0.34584018911E+02  0.19006921051E+03  0.81012275017E+02 0.  0.
          5    1    3    3  501    0 -0.23318277193E+02 -0.23179057204E+01  0.11899880675E+02  0.26698537381E+02  0.47000000000E+01 0. -1.
        -13    1    4    4    0    0  0.32462535087E+02  0.14325668545E+03 -0.39104794335E+02  0.15200486522E+03  0.00000000000E+00 0.  1.
         14    1    4    4    0    0  0.94419396165E+02  0.95055189563E+02 -0.11731287260E+02  0.13449213559E+03  0.00000000000E+00 0. -1.
         -5    1    5    5    0  502 -0.94646160127E+02 -0.67804373841E+02  0.27155693549E+02  0.11964468409E+03  0.47000000000E+01 0.  1.
         13    1    6    6    0    0  0.15290574279E+02 -0.11780854022E+03  0.90766602103E+01  0.11914293756E+03  0.00000000000E+00 0. -1.
        -14    1    6    6    0    0 -0.24208068211E+02 -0.50381055232E+02 -0.43660679121E+02  0.70926272947E+02  0.00000000000E+00 0.  1.
</event>
<event>
12    1  0.9017558E-003  0.1974975E+03  0.7818608E-02  0.1152145E+00
         21   -1    0    0  501  502  0.00000000000E+00  0.00000000000E+00  0.63671281828E+03  0.63671281828E+03  0.00000000000E+00 0.  1.
         21   -1    0    0  502  503 -0.00000000000E+00 -0.00000000000E+00 -0.84819258761E+02  0.84819258761E+02  0.00000000000E+00 0. -1.
          6    2    1    2  501    0 -0.64632189403E+02  0.73177661558E+02  0.46703451251E+03  0.50657555418E+03  0.17019185103E+03 0.  0.
         24    2    3    3    0    0 -0.99110796564E+02  0.63999238360E+02  0.25849243185E+03  0.29495110566E+03  0.79113620194E+02 0.  0.
         -6    2    1    2    0  503  0.64632189403E+02 -0.73177661558E+02  0.84859047011E+02  0.21495652286E+03  0.17167690236E+03 0.  0.
        -24    2    5    5    0    0  0.87050161420E+02 -0.10355050827E+03  0.56172398672E+02  0.16731107104E+03  0.80853062733E+02 0.  0.
          5    1    3    3  501    0  0.34478607161E+02  0.91784231978E+01  0.20854208066E+03  0.21162444852E+03  0.47000000000E+01 0. -1.
        -13    1    4    4    0    0 -0.86044754434E+02  0.57244318416E+02  0.26036271530E+03  0.28012382133E+03  0.00000000000E+00 0.  1.
         14    1    4    4    0    0 -0.13066042131E+02  0.67549199442E+01 -0.18702834533E+01  0.14827284330E+02  0.00000000000E+00 0. -1.
         -5    1    5    5    0  503 -0.22417972016E+02  0.30372846713E+02  0.28686648339E+02  0.47645451825E+02  0.47000000000E+01 0.  1.
         11    1    6    6    0    0  0.51197265476E+02 -0.71981375226E+02  0.75085757368E+02  0.11593252059E+03  0.00000000000E+00 0. -1.
        -12    1    6    6    0    0  0.35852895944E+02 -0.31569133044E+02 -0.18913358696E+02  0.51378550445E+02  0.00000000000E+00 0.  1.
</event>
<event>
12    1  0.9017558E-003  0.4177285E+03  0.7818608E-02  0.1037875E+00
         21   -1    0    0  501  502  0.00000000000E+00  0.00000000000E+00  0.17460356161E+04  0.17460356161E+04  0.00000000000E+00 0. -1.
         21   -1    0    0  502  503 -0.00000000000E+00 -0.00000000000E+00 -0.16392298254E+03  0.16392298254E+03  0.00000000000E+00 0.  1.
          6    2    1    2  501    0 -0.32980795512E+03  0.18862351776E+03  0.13881303311E+04  0.14493869793E+04  0.17165279161E+03 0.  0.
         24    2    3    3    0    0 -0.19342363894E+03  0.82818137805E+02  0.99208844086E+03  0.10173375273E+04  0.80402872587E+02 0.  0.
         -6    2    1    2    0  503  0.32980795512E+03 -0.18862351776E+03  0.19398230239E+03  0.46057161929E+03  0.17362305187E+03 0.  0.
        -24    2    5    5    0    0  0.18677487691E+03 -0.17741205655E+03  0.96289664480E+02  0.28693377829E+03  0.81849869776E+02 0.  0.
          5    1    3    3  501    0 -0.13638431619E+03  0.10580537996E+03  0.39604189028E+03  0.43204945201E+03  0.47000000000E+01 0. -1.
        -11    1    4    4    0    0 -0.12930240025E+03  0.94389581649E+02  0.70381359037E+03  0.72179087956E+03  0.00000000000E+00 0.  1.
         12    1    4    4    0    0 -0.64121238689E+02 -0.11571443844E+02  0.28827485049E+03  0.29554664774E+03  0.00000000000E+00 0. -1.
         -5    1    5    5    0  503  0.14303307821E+03 -0.11211461208E+02  0.97692637908E+02  0.17363784100E+03  0.47000000000E+01 0.  1.
         13    1    6    6    0    0  0.51351063558E+02 -0.88799732324E+02  0.66851394234E+02  0.12243950792E+03  0.00000000000E+00 0. -1.
        -14    1    6    6    0    0  0.13542381335E+03 -0.88612324230E+02  0.29438270246E+02  0.16449427037E+03  0.00000000000E+00 0.  1.
</event>
<event>
12    1  0.9017558E-003  0.2257112E+03  0.7818608E-02  0.1129776E+00
         21   -1    0    0  501  502  0.00000000000E+00  0.00000000000E+00  0.11226526482E+03  0.11226526482E+03  0.00000000000E+00 0.  1.
         21   -1    0    0  502  503 -0.00000000000E+00 -0.00000000000E+00 -0.54852479779E+03  0.54852479779E+03  0.00000000000E+00 0.  1.
          6    2    1    2  501    0  0.12632156003E+03 -0.74392668050E+02 -0.80355668088E+02  0.23958834055E+03  0.17162206719E+03 0.  0.
         24    2    3    3    0    0  0.15343867835E+03 -0.89579046883E+02 -0.65390305850E+02  0.20477431644E+03  0.78030730603E+02 0.  0.
         -6    2    1    2    0  503 -0.12632156003E+03  0.74392668050E+02 -0.35590386488E+03  0.42120172205E+03  0.17103193864E+03 0.  0.
        -24    2    5    5    0    0 -0.59516528925E+02  0.62783575238E+02 -0.33014411872E+03  0.34851515012E+03  0.70595157083E+02 0.  0.
          5    1    3    3  501    0 -0.27117118324E+02  0.15186378833E+02 -0.14965362238E+02  0.34814024117E+02  0.47000000000E+01 0. -1.
        -11    1    4    4    0    0  0.11298877466E+03 -0.78378016030E+02 -0.13705048118E+02  0.13819336070E+03  0.00000000000E+00 0.  1.
         12    1    4    4    0    0  0.40449903688E+02 -0.11201030853E+02 -0.51685257731E+02  0.66580955740E+02  0.00000000000E+00 0. -1.
         -5    1    5    5    0  503 -0.66805031102E+02  0.11609092812E+02 -0.25759746157E+02  0.72686571927E+02  0.47000000000E+01 0.  1.
         11    1    6    6    0    0 -0.79552290329E+01  0.51088746105E+02 -0.10238274238E+03  0.11469774010E+03  0.00000000000E+00 0. -1.
        -12    1    6    6    0    0 -0.51561299892E+02  0.11694829133E+02 -0.22776137634E+03  0.23381741002E+03  0.00000000000E+00 0.  1.
</event>
<event>
12    1  0.9017558E-003  0.2723453E+03  0.7818608E-02  0.1100639E+00
         21   -1    0    0  503  502  0.00000000000E+00  0.00000000000E+00  0.15512430958E+03  0.15512430958E+03  0.00000000000E+00 0.  1.
         21   -1    0    0  501  503 -0.00000000000E+00 -0.00000000000E+00 -0.47731968482E+03  0.47731968482E+03  0.00000000000E+00 0. -1.
          6    2    1    2  501    0  0.91658209100E+02 -0.18457028002E+03 -0.19975368883E+03  0.33384066902E+03  0.17053046803E+03 0.  0.
         24    2    3    3    0    0  0.12021826805E+03 -0.17127954257E+03 -0.19317570251E+03  0.30131866765E+03  0.98422425073E+02 0.  0.
         -6    2    1    2    0  502 -0.91658209100E+02  0.18457028002E+03 -0.12244168641E+03  0.29860332538E+03  0.17805775410E+03 0.  0.
        -24    2    5    5    0    0 -0.93286800122E+01  0.63950601956E+02 -0.11378139372E+03  0.15223273829E+03  0.77793941217E+02 0.  0.
          5    1    3    3  501    0 -0.28560058948E+02 -0.13290737448E+02 -0.65779863194E+01  0.32522001369E+02  0.47000000000E+01 0. -1.
        -11    1    4    4    0    0  0.84172934504E+02 -0.17576186588E+03 -0.16504081641E+03  0.25537381910E+03  0.00000000000E+00 0.  1.
         12    1    4    4    0    0  0.36045333544E+02  0.44823233039E+01 -0.28134886097E+02  0.45944848549E+02  0.00000000000E+00 0. -1.
         -5    1    5    5    0  502 -0.82329529088E+02  0.12061967806E+03 -0.86602926940E+01  0.14637058709E+03  0.47000000000E+01 0.  1.
         11    1    6    6    0    0  0.28417408877E+00  0.80787632363E+02 -0.82785264295E+02  0.11567247850E+03  0.00000000000E+00 0. -1.
        -12    1    6    6    0    0 -0.96128541010E+01 -0.16837030407E+02 -0.30996129423E+02  0.36560259792E+02  0.00000000000E+00 0.  1.
</event>
<event>
12    1  0.9017558E-003  0.1966687E+03  0.7818608E-02  0.1152923E+00
         21   -1    0    0  501  502  0.00000000000E+00  0.00000000000E+00  0.25944524577E+03  0.25944524577E+03  0.00000000000E+00 0.  1.
         21   -1    0    0  502  503 -0.00000000000E+00 -0.00000000000E+00 -0.16282423195E+03  0.16282423195E+03  0.00000000000E+00 0.  1.
          6    2    1    2  501    0 -0.91589921251E+02 -0.15635782340E+02  0.11244245424E+03  0.22654329746E+03  0.17333599956E+03 0.  0.
         24    2    3    3    0    0 -0.62038350302E+02  0.58712421291E+02  0.76779035058E+02  0.13882260323E+03  0.77979417927E+02 0.  0.
         -6    2    1    2    0  503  0.91589921251E+02  0.15635782340E+02 -0.15821440427E+02  0.19572618026E+03  0.17153783343E+03 0.  0.
        -24    2    5    5    0    0  0.13018968924E+03  0.23382618415E+02 -0.18146550777E+02  0.15600903414E+03  0.80705758157E+02 0.  0.
          5    1    3    3  501    0 -0.29551570949E+02 -0.74348203631E+02  0.35663419182E+02  0.87720694231E+02  0.47000000000E+01 0. -1.
        -13    1    4    4    0    0  0.15907783443E+02  0.24196135234E+02  0.10355838055E+02  0.30753112301E+02  0.00000000000E+00 0.  1.
         14    1    4    4    0    0 -0.77946133745E+02  0.34516286057E+02  0.66423197003E+02  0.10806949093E+03  0.00000000000E+00 0. -1.
         -5    1    5    5    0  503 -0.38599767987E+02 -0.77468360754E+01  0.23251103500E+01  0.39717146121E+02  0.47000000000E+01 0.  1.
         13    1    6    6    0    0 -0.31373619819E+01  0.20304657070E+02  0.36787606541E+01  0.20872360166E+02  0.00000000000E+00 0. -1.
        -14    1    6    6    0    0  0.13332705122E+03  0.30779613448E+01 -0.21825311431E+02  0.13513667397E+03  0.00000000000E+00 0.  1.
</event>
<event>
12    1  0.9017558E-003  0.1770353E+03  0.7818608E-02  0.1171619E+00
         21   -1    0    0  501  502  0.00000000000E+00  0.00000000000E+00  0.40718608001E+03  0.40718608001E+03  0.00000000000E+00 0. -1.
         21   -1    0    0  502  503 -0.00000000000E+00 -0.00000000000E+00 -0.77325273020E+02  0.77325273020E+02  0.00000000000E+00 0. -1.
          6    2    1    2  501    0  0.20514149425E+02 -0.16730309815E+02  0.20159911974E+03  0.26589623243E+03  0.17134137780E+03 0.  0.
         24    2    3    3    0    0 -0.11952349238E+02 -0.33552910604E+02  0.30822392945E+02  0.91185460446E+02  0.78077601319E+02 0.  0.
         -6    2    1    2    0  503 -0.20514149425E+02  0.16730309815E+02  0.12826168726E+03  0.21861512061E+03  0.17504507119E+03 0.  0.
        -24    2    5    5    0    0  0.55444331725E+01 -0.21118087075E+02 -0.11593766232E+01  0.81198045067E+02  0.78198874849E+02 0.  0.
          5    1    3    3  501    0  0.32466498663E+02  0.16822600789E+02  0.17077672679E+03  0.17471077198E+03  0.47000000000E+01 0. -1.
        -13    1    4    4    0    0  0.28786750545E+02 -0.33089303091E+01 -0.45539054898E+01  0.29331963486E+02  0.00000000000E+00 0.  1.
         14    1    4    4    0    0 -0.40739099784E+02 -0.30243980295E+02  0.35376298435E+02  0.61853496960E+02  0.00000000000E+00 0. -1.
         -5    1    5    5    0  503 -0.26058582597E+02  0.37848396889E+02  0.12942106388E+03  0.13741707554E+03  0.47000000000E+01 0.  1.
         13    1    6    6    0    0 -0.14701969738E+01 -0.50411805950E+02  0.41817227489E+01  0.50606308533E+02  0.00000000000E+00 0. -1.
        -14    1    6    6    0    0  0.70146301463E+01  0.29293718875E+02 -0.53410993721E+01  0.30591736533E+02  0.00000000000E+00 0.  1.
</event>
<event>
12    1  0.9017558E-003  0.1822271E+03  0.7818608E-02  0.1165985E+00
         21   -1    0    0  501  502  0.00000000000E+00  0.00000000000E+00  0.50120806309E+02  0.50120806309E+02  0.00000000000E+00 0.  1.
         21   -1    0    0  502  503 -0.00000000000E+00 -0.00000000000E+00 -0.16291763192E+04  0.16291763192E+04  0.00000000000E+00 0.  1.
          6    2    1    2  501    0  0.53766440929E+02 -0.15260196998E+02 -0.13996835620E+03  0.22871842124E+03  0.17203857619E+03 0.  0.
         24    2    3    3    0    0  0.95229243863E+02 -0.40948440353E+02 -0.91035548199E+02  0.15946844238E+03  0.79983307168E+02 0.  0.
         -6    2    1    2    0  503 -0.53766440929E+02  0.15260196998E+02 -0.14390871567E+04  0.14505787043E+04  0.17344459901E+03 0.  0.
        -24    2    5    5    0    0 -0.24975691737E+02 -0.63039904728E+02 -0.76666320965E+03  0.77298305218E+03  0.71641518399E+02 0.  0.
          5    1    3    3  501    0 -0.41462802933E+02  0.25688243355E+02 -0.48932807997E+02  0.69249978861E+02  0.47000000000E+01 0. -1.
        -13    1    4    4    0    0  0.59870148143E+02  0.44562286722E+01 -0.11229256298E+02  0.61076908973E+02  0.00000000000E+00 0.  1.
         14    1    4    4    0    0  0.35359095719E+02 -0.45404669025E+02 -0.79806291901E+02  0.98391533408E+02  0.00000000000E+00 0. -1.
         -5    1    5    5    0  503 -0.28790749192E+02  0.78300101726E+02 -0.67242394709E+03  0.67759565213E+03  0.47000000000E+01 0.  1.
         13    1    6    6    0    0 -0.47124699038E+02 -0.53380981694E+02 -0.47329161202E+03  0.47861802773E+03  0.00000000000E+00 0. -1.
        -14    1    6    6    0    0  0.22149007302E+02 -0.96589230342E+01 -0.29337159764E+03  0.29436502445E+03  0.00000000000E+00 0.  1.
</event>
<event>
12    1  0.9017558E-003  0.1794556E+03  0.7818608E-02  0.1168506E+00
         21   -1    0    0  503  502  0.00000000000E+00  0.00000000000E+00  0.27540462240E+03  0.27540462240E+03  0.00000000000E+00 0.  1.
         21   -1    0    0  501  503 -0.00000000000E+00 -0.00000000000E+00 -0.14544678499E+03  0.14544678499E+03  0.00000000000E+00 0.  1.
          6    2    1    2  501    0  0.44439770573E+02  0.19206337623E+02 -0.29053277553E+02  0.18108307302E+03  0.17205583333E+03 0.  0.
         24    2    3    3    0    0  0.60849686513E+01  0.14681377028E+02 -0.81652901588E+02  0.11565848630E+03  0.80356203492E+02 0.  0.
         -6    2    1    2    0  502 -0.44439770573E+02 -0.19206337623E+02  0.15901111496E+03  0.23976833438E+03  0.17280203377E+03 0.  0.
        -24    2    5    5    0    0 -0.37559378060E+02  0.99033553895E+01  0.10508347902E+02  0.88210174412E+02  0.78497300373E+02 0.  0.
          5    1    3    3  501    0  0.38354801921E+02  0.45249605950E+01  0.52599624035E+02  0.65424586720E+02  0.47000000000E+01 0. -1.
        -11    1    4    4    0    0 -0.57797890578E+01  0.46540415554E+02 -0.38200782831E+02  0.60487321402E+02  0.00000000000E+00 0.  1.
         12    1    4    4    0    0  0.11864757709E+02 -0.31859038526E+02 -0.43452118757E+02  0.55171164894E+02  0.00000000000E+00 0. -1.
         -5    1    5    5    0  502 -0.68803925122E+01 -0.29109693013E+02  0.14850276706E+03  0.15155815997E+03  0.47000000000E+01 0.  1.
         11    1    6    6    0    0  0.21160854961E+02  0.18103307917E+02 -0.76227820276E+00  0.27858438726E+02  0.00000000000E+00 0. -1.
        -12    1    6    6    0    0 -0.58720233021E+02 -0.81999525275E+01  0.11270626105E+02  0.60351735686E+02  0.00000000000E+00 0.  1.
</event>
<event>
12    1  0.9017558E-003  0.2136595E+03  0.7818608E-02  0.1139279E+00
         21   -1    0    0  501  502  0.00000000000E+00  0.00000000000E+00  0.40818846812E+03  0.40818846812E+03  0.00000000000E+00 0.  1.
         21   -1    0    0  502  503 -0.00000000000E+00 -0.00000000000E+00 -0.14490910359E+03  0.14490910359E+03  0.00000000000E+00 0.  1.
          6    2    1    2  501    0  0.10914377511E+03 -0.60950798043E+02  0.26611035826E+03  0.33941935335E+03  0.16959779252E+03 0.  0.
         24    2    3    3    0    0  0.54589799844E+02 -0.49230378228E+02  0.26129614880E+03  0.28321640795E+03  0.80821902788E+02 0.  0.
         -6    2    1    2    0  503 -0.10914377511E+03  0.60950798043E+02 -0.28309937216E+01  0.21367821836E+03  0.17327147211E+03 0.  0.
        -24    2    5    5    0    0 -0.11475068981E+03  0.14382947564E+02  0.44383868255E+02  0.14695988968E+03  0.79073961701E+02 0.  0.
          5    1    3    3  501    0  0.54553975270E+02 -0.11720419815E+02  0.48142094612E+01  0.56202945396E+02  0.47000000000E+01 0. -1.
        -11    1    4    4    0    0  0.29834726382E+02  0.17854445370E+02  0.11882574984E+03  0.12380812148E+03  0.00000000000E+00 0.  1.
         12    1    4    4    0    0  0.24755073462E+02 -0.67084823598E+02  0.14247039895E+03  0.15940828648E+03  0.00000000000E+00 0. -1.
         -5    1    5    5    0  503  0.56069147004E+01  0.46567850480E+02 -0.47214861977E+02  0.66718328683E+02  0.47000000000E+01 0.  1.
         11    1    6    6    0    0 -0.49932880782E+02  0.82996741077E+00  0.60854579585E+02  0.78722685965E+02  0.00000000000E+00 0. -1.
        -12    1    6    6    0    0 -0.64817809032E+02  0.13552980153E+02 -0.16470711329E+02  0.68237203712E+02  0.00000000000E+00 0.  1.
</event>
<event>
12    1  0.9017558E-003  0.2644586E+03  0.7818608E-02  0.1104500E+00
         21   -1    0    0  503  502  0.00000000000E+00  0.00000000000E+00  0.10829431468E+03  0.10829431468E+03  0.00000000000E+00 0. -1.
         21   -1    0    0  501  503 -0.00000000000E+00 -0.00000000000E+00 -0.11917469835E+04  0.11917469835E+04  0.00000000000E+00 0. -1.
          6    2    1    2  501    0 -0.14131673263E+03 -0.14254323232E+03 -0.98169364881E+03  0.10166806256E+04  0.17212809881E+03 0.  0.
         24    2    3    3    0    0  0.94274847057E-02 -0.59266458733E+02 -0.43196917607E+03  0.44298454713E+03  0.78265105246E+02 0.  0.
         -6    2    1    2    0  502  0.14131673263E+03  0.14254323232E+03 -0.10175902002E+03  0.28336067257E+03  0.17218995500E+03 0.  0.
        -24    2    5    5    0    0  0.12505907404E+03  0.36793881165E+02 -0.30664119441E+02  0.15481569359E+03  0.77679141797E+02 0.  0.
          5    1    3    3  501    0 -0.14132616011E+03 -0.83276773587E+02 -0.54972447274E+03  0.57369607849E+03  0.47000000000E+01 0. -1.
        -11    1    4    4    0    0 -0.23332753331E+02 -0.66842285021E+02 -0.26820634171E+03  0.27739313290E+03  0.00000000000E+00 0.  1.
         12    1    4    4    0    0  0.23342180816E+02  0.75758262878E+01 -0.16376283436E+03  0.16559141423E+03  0.00000000000E+00 0. -1.
         -5    1    5    5    0  502  0.16257658595E+02  0.10574935116E+03 -0.71094900584E+02  0.12854497898E+03  0.47000000000E+01 0.  1.
         11    1    6    6    0    0  0.95216693244E+02  0.46575274716E+02  0.64550944531E+01  0.10619389404E+03  0.00000000000E+00 0. -1.
        -12    1    6    6    0    0  0.29842380792E+02 -0.97813935513E+01 -0.37119213894E+02  0.48621799547E+02  0.00000000000E+00 0.  1.
</event>
<event>
12    1  0.9017558E-003  0.2112296E+03  0.7818608E-02  0.1141046E+00
         21   -1    0    0  501  502  0.00000000000E+00  0.00000000000E+00  0.12971467097E+03  0.12971467097E+03  0.00000000000E+00 0. -1.
         21   -1    0    0  502  503 -0.00000000000E+00 -0.00000000000E+00 -0.50795295819E+03  0.50795295819E+03  0.00000000000E+00 0.  1.
          6    2    1    2  501    0  0.22696045762E+02  0.11878207145E+03 -0.52465251053E+01  0.20901764632E+03  0.17040117211E+03 0.  0.
         24    2    3    3    0    0 -0.12098257959E+02  0.86054015258E+02  0.54889340218E+02  0.13207493041E+03  0.82941462403E+02 0.  0.
         -6    2    1    2    0  503 -0.22696045762E+02 -0.11878207145E+03 -0.37299176212E+03  0.42864998284E+03  0.17318678410E+03 0.  0.
        -24    2    5    5    0    0 -0.66493184513E+02 -0.25297088686E+02 -0.20270412899E+03  0.22945761511E+03  0.80625969386E+02 0.  0.
          5    1    3    3  501    0  0.34794303721E+02  0.32728056192E+02 -0.60135865323E+02  0.76942715910E+02  0.47000000000E+01 0. -1.
        -13    1    4    4    0    0 -0.15121581091E+02 -0.12348009654E+02  0.19130589084E+02  0.27333404395E+02  0.00000000000E+00 0.  1.
         14    1    4    4    0    0  0.30233231314E+01  0.98402024911E+02  0.35758751133E+02  0.10474152602E+03  0.00000000000E+00 0. -1.
         -5    1    5    5    0  503  0.43797138751E+02 -0.93484982763E+02 -0.17028763312E+03  0.19919236772E+03  0.47000000000E+01 0.  1.
         11    1    6    6    0    0  0.17074701771E+02  0.50923386352E+01 -0.45208683236E+02  0.48593234028E+02  0.00000000000E+00 0. -1.
        -12    1    6    6    0    0 -0.83567886284E+02 -0.30389427321E+02 -0.15749544576E+03  0.18086438108E+03  0.00000000000E+00 0.  1.
</event>
<event>
12    1  0.9017558E-003  0.2173779E+03  0.7818608E-02  0.1135881E+00
         21   -1    0    0  501  502  0.00000000000E+00  0.00000000000E+00  0.66032634936E+03  0.66032634936E+03  0.00000000000E+00 0.  1.
         21   -1    0    0  502  503 -0.00000000000E+00 -0.00000000000E+00 -0.71766664467E+02  0.71766664467E+02  0.00000000000E+00 0. -1.
          6    2    1    2  501    0  0.11323061421E+03 -0.68629279998E+02  0.31595789184E+03  0.38343143033E+03  0.17221824026E+03 0.  0.
         24    2    3    3    0    0  0.45972346189E+02  0.28509506419E+02  0.11658016968E+03  0.15162723594E+03  0.80458897238E+02 0.  0.
         -6    2    1    2    0  503 -0.11323061421E+03  0.68629279998E+02  0.27260179305E+03  0.34866158350E+03  0.17240073134E+03 0.  0.
        -24    2    5    5    0    0 -0.40838313726E+02  0.86487327978E+02  0.95357833272E+02  0.15631536876E+03  0.78699125627E+02 0.  0.
          5    1    3    3  501    0  0.67258268021E+02 -0.97138786417E+02  0.19937772216E+03  0.23180419439E+03  0.47000000000E+01 0. -1.
        -13    1    4    4    0    0  0.61639742006E+02  0.20634211671E+02  0.47901118867E+02  0.80744942099E+02  0.00000000000E+00 0.  1.
         14    1    4    4    0    0 -0.15667395817E+02  0.78752947481E+01  0.68679050814E+02  0.70882293839E+02  0.00000000000E+00 0. -1.
         -5    1    5    5    0  503 -0.72392300484E+02 -0.17858047980E+02  0.17724395978E+03  0.19234621474E+03  0.47000000000E+01 0.  1.
         13    1    6    6    0    0 -0.62553089750E+02  0.51090085035E+02  0.50835201683E+02  0.95432193501E+02  0.00000000000E+00 0. -1.
        -14    1    6    6    0    0  0.21714776023E+02  0.35397242943E+02  0.44522631589E+02  0.60883175257E+02  0.00000000000E+00 0.  1.
</event>
<event>
12    1  0.9017558E-003  0.2029393E+03  0.7818608E-02  0.1147871E+00
         21   -1    0    0  501  502  0.00000000000E+00  0.00000000000E+00  0.42957487142E+02  0.42957487142E+02  0.00000000000E+00 0.  1.
         21   -1    0    0  502  503 -0.00000000000E+00 -0.00000000000E+00 -0.94618206294E+03  0.94618206294E+03  0.00000000000E+00 0.  1.
          6    2    1    2  501    0  0.66880582031E+02  0.75107033830E+02 -0.43463519449E+03  0.47849253076E+03  0.17301234326E+03 0.  0.
         24    2    3    3    0    0  0.52724663837E+02  0.70615738833E+02 -0.44461594285E+03  0.45999206892E+03  0.78376616942E+02 0.  0.
         -6    2    1    2    0  503 -0.66880582031E+02 -0.75107033830E+02 -0.46858938131E+03  0.51064701933E+03  0.17626766943E+03 0.  0.
        -24    2    5    5    0    0 -0.75761984710E+02 -0.14850188929E+02 -0.15433551591E+03  0.19051056625E+03  0.80711944236E+02 0.  0.
          5    1    3    3  501    0  0.14155918194E+02  0.44912949965E+01  0.99807483576E+01  0.18500461844E+02  0.47000000000E+01 0. -1.
        -11    1    4    4    0    0  0.40868965891E+02  0.86589431766E+02 -0.32793398130E+03  0.34162654780E+03  0.00000000000E+00 0.  1.
         12    1    4    4    0    0  0.11855697946E+02 -0.15973692933E+02 -0.11668196154E+03  0.11836552112E+03  0.00000000000E+00 0. -1.
         -5    1    5    5    0  503  0.88814026795E+01 -0.60256844901E+02 -0.31425386540E+03  0.32013645308E+03  0.47000000000E+01 0.  1.
         11    1    6    6    0    0 -0.20664448697E+02  0.30531993297E+02 -0.76373611225E+02  0.84806547779E+02  0.00000000000E+00 0. -1.
        -12    1    6    6    0    0 -0.55097536014E+02 -0.45382182226E+02 -0.77961904689E+02  0.10570401847E+03  0.00000000000E+00 0.  1.
</event>
<event>
12    1  0.9017558E-003  0.1921689E+03  0.7818608E-02  0.1157567E+00
         21   -1    0    0  501  502  0.00000000000E+00  0.00000000000E+00  0.31798622481E+02  0.31798622481E+02  0.00000000000E+00 0. -1.
         21   -1    0    0  502  503 -0.00000000000E+00 -0.00000000000E+00 -0.15821358799E+04  0.15821358799E+04  0.00000000000E+00 0. -1.
          6    2    1    2  501    0 -0.42103249841E+02 -0.63565225893E+02 -0.35222939008E+03  0.40124112462E+03  0.17639635841E+03 0.  0.
         24    2    3    3    0    0 -0.25543376343E+02  0.19175899889E+02 -0.83444292079E+02  0.11948264256E+03  0.79328259661E+02 0.  0.
         -6    2    1    2    0  503  0.42103249841E+02  0.63565225893E+02 -0.11981078674E+04  0.12126933778E+04  0.17131708933E+03 0.  0.
        -24    2    5    5    0    0 -0.23355004318E+02  0.64772865744E+02 -0.95640617661E+03  0.96223771556E+03  0.80297361166E+02 0.  0.
          5    1    3    3  501    0 -0.16559873498E+02 -0.82741125783E+02 -0.26878509800E+03  0.28175848206E+03  0.47000000000E+01 0. -1.
        -11    1    4    4    0    0 -0.16815820625E+02  0.50374105108E+02 -0.52884885031E+02  0.74947537341E+02  0.00000000000E+00 0.  1.
         12    1    4    4    0    0 -0.87275557176E+01 -0.31198205219E+02 -0.30559407048E+02  0.44535105218E+02  0.00000000000E+00 0. -1.
         -5    1    5    5    0  503  0.65458254159E+02 -0.12076398508E+01 -0.24170169078E+03  0.25045566226E+03  0.47000000000E+01 0.  1.
         11    1    6    6    0    0 -0.38011618910E+01  0.40161532155E+02 -0.15337546889E+03  0.15859202992E+03  0.00000000000E+00 0. -1.
        -12    1    6    6    0    0 -0.19553842427E+02  0.24611333589E+02 -0.80303070773E+03  0.80364568564E+03  0.00000000000E+00 0.  1.
</event>
<event>
12    1  0.9017558E-003  0.1808698E+03  0.7818608E-02  0.1168031E+00
         21   -1    0    0  501  502  0.00000000000E+00  0.00000000000E+00  0.28750358658E+03  0.28750358658E+03  0.00000000000E+00 0. -1.
         21   -1    0    0  502  503 -0.00000000000E+00 -0.00000000000E+00 -0.11186635562E+03  0.11186635562E+03  0.00000000000E+00 0. -1.
          6    2    1    2  501    0  0.21178816315E+02 -0.50039613091E+02  0.10596250635E+03  0.20962335777E+03  0.17251491017E+03 0.  0.
         24    2    3    3    0    0  0.93794379095E+01  0.39266799318E+02  0.42126411772E+02  0.99115450364E+02  0.80121049344E+02 0.  0.
         -6    2    1    2    0  503 -0.21178816315E+02  0.50039613091E+02  0.69674724605E+02  0.18974658442E+03  0.16791871222E+03 0.  0.
        -24    2    5    5    0    0 -0.36873999779E+02 -0.31772073247E+02  0.39988534327E+02  0.10118671372E+03  0.79186562356E+02 0.  0.
          5    1    3    3  501    0  0.11799378406E+02 -0.89306412409E+02  0.63836094582E+02  0.11050790741E+03  0.47000000000E+01 0. -1.
        -11    1    4    4    0    0  0.74696084943E+01  0.54388853767E+01 -0.23504153991E+02  0.25255133736E+02  0.00000000000E+00 0.  1.
         12    1    4    4    0    0  0.19098294151E+01  0.33827913941E+02  0.65630565763E+02  0.73860316628E+02  0.00000000000E+00 0. -1.
         -5    1    5    5    0  503  0.15695183464E+02  0.81811686338E+02  0.29686190278E+02  0.88559870701E+02  0.47000000000E+01 0.  1.
         11    1    6    6    0    0 -0.19182523133E+02  0.26122117139E+02  0.14390064580E+02  0.35459951441E+02  0.00000000000E+00 0. -1.
        -12    1    6    6    0    0 -0.17691476647E+02 -0.57894190386E+02  0.25598469748E+02  0.65726762280E+02  0.00000000000E+00 0.  1.
</event>
<event>
12    1  0.9017558E-003  0.1794019E+03  0.7818608E-02  0.1168815E+00
         21   -1    0    0  503  502  0.00000000000E+00  0.00000000000E+00  0.46746817004E+03  0.46746817004E+03  0.00000000000E+00 0.  1.
         21   -1    0    0  501  503 -0.00000000000E+00 -0.00000000000E+00 -0.68439779579E+02  0.68439779579E+02  0.00000000000E+00 0.  1.
          6    2    1    2  501    0 -0.21354664217E+02 -0.43923599392E+02  0.18182025798E+03  0.25419106743E+03  0.17078989515E+03 0.  0.
         24    2    3    3    0    0  0.46512966816E+02  0.66995404459E+01  0.91096067261E+02  0.13000698468E+03  0.79968635540E+02 0.  0.
         -6    2    1    2    0  502  0.21354664217E+02  0.43923599392E+02  0.21720813248E+03  0.28171688218E+03  0.17262596741E+03 0.  0.
        -24    2    5    5    0    0  0.38922568801E+02  0.23991456066E+02  0.22983897459E+03  0.25192510846E+03  0.92464856609E+02 0.  0.
          5    1    3    3  501    0 -0.67867631034E+02 -0.50623139838E+02  0.90724190716E+02  0.12418408276E+03  0.47000000000E+01 0. -1.
        -11    1    4    4    0    0  0.22699769944E+01  0.38270222810E+02  0.35301633694E+02  0.52114950743E+02  0.00000000000E+00 0.  1.
         12    1    4    4    0    0  0.44242989822E+02 -0.31570682364E+02  0.55794433567E+02  0.77892033934E+02  0.00000000000E+00 0. -1.
         -5    1    5    5    0  502 -0.17567904583E+02  0.19932143326E+02 -0.12630842108E+02  0.29791773719E+02  0.47000000000E+01 0.  1.
         13    1    6    6    0    0  0.58228703048E+01  0.53384970615E+02  0.16416394135E+03  0.17272423265E+03  0.00000000000E+00 0. -1.
        -14    1    6    6    0    0  0.33099698496E+02 -0.29393514549E+02  0.65675033241E+02  0.79200875811E+02  0.00000000000E+00 0.  1.
</event>
<event>
12    1  0.9017558E-003  0.2186549E+03  0.7818608E-02  0.1135009E+00
         21   -1    0    0  503  502  0.00000000000E+00  0.00000000000E+00  0.95880559901E+02  0.95880559901E+02  0.00000000000E+00 0.  1.
         21   -1    0    0  501  503 -0.00000000000E+00 -0.00000000000E+00 -0.69011069394E+03  0.69011069394E+03  0.00000000000E+00 0.  1.
          6    2    1    2  501    0  0.12834160011E+03  0.43147793141E+02 -0.50520690434E+03  0.55049431005E+03  0.17168771312E+03 0.  0.
         24    2    3    3    0    0  0.11282197030E+03  0.88428207963E+02 -0.44408341049E+03  0.47271676589E+03  0.75516358053E+02 0.  0.
         -6    2    1    2    0  502 -0.12834160011E+03 -0.43147793141E+02 -0.89023229704E+02  0.23549694379E+03  0.17088117724E+03 0.  0.
        -24    2    5    5    0    0 -0.86928802328E+02 -0.26769213217E+02  0.15199187582E+02  0.12206114712E+03  0.79966873662E+02 0.  0.
          5    1    3    3  501    0  0.15519629811E+02 -0.45280414822E+02 -0.61123493849E+02  0.77777544165E+02  0.47000000000E+01 0. -1.
        -11    1    4    4    0    0  0.32306852880E+02 -0.97000007581E+01 -0.70408107037E+02  0.78071277012E+02  0.00000000000E+00 0.  1.
         12    1    4    4    0    0  0.80515117422E+02  0.98128208722E+02 -0.37367530345E+03  0.39464548888E+03  0.00000000000E+00 0. -1.
         -5    1    5    5    0  502 -0.41412797786E+02 -0.16378579924E+02 -0.10422241729E+03  0.11343579667E+03  0.47000000000E+01 0.  1.
         11    1    6    6    0    0 -0.31472262587E+02 -0.84845416164E+01 -0.32971020251E+02  0.46363551796E+02  0.00000000000E+00 0. -1.
        -12    1    6    6    0    0 -0.55456539741E+02 -0.18284671601E+02  0.48170207833E+02  0.75697595326E+02  0.00000000000E+00 0.  1.
</event>
<event>
12    1  0.9017558E-003  0.1968965E+03  0.7818608E-02  0.1156333E+00
         21   -1    0    0  501  502  0.00000000000E+00  0.00000000000E+00  0.67063120789E+02  0.67063120789E+02  0.00000000000E+00 0. -1.
         21   -1    0    0  502  503 -0.00000000000E+00 -0.00000000000E+00 -0.73579781621E+03  0.73579781621E+03  0.00000000000E+00 0. -1.
          6    2    1    2  501    0 -0.99350292751E+01  0.95258943961E+02 -0.13231533989E+03  0.23722472963E+03  0.17203270609E+03 0.  0.
         24    2    3    3    0    0 -0.53251678549E+02  0.10656915791E+03 -0.67398318896E+02  0.15822749766E+03  0.79376828741E+02 0.  0.
         -6    2    1    2    0  503  0.99350292751E+01 -0.95258943961E+02 -0.53641935553E+03  0.56563620737E+03  0.15174196153E+03 0.  0.
        -24    2    5    5    0    0  0.26302511658E+02 -0.12120141982E+03 -0.42014364974E+03  0.44529072017E+03  0.79884496371E+02 0.  0.
          5    1    3    3  501    0  0.43316649274E+02 -0.11310213946E+02 -0.64917020993E+02  0.78997231967E+02  0.47000000000E+01 0. -1.
        -11    1    4    4    0    0 -0.16567444445E+02  0.10152262369E+03 -0.33937548728E+02  0.10831934523E+03  0.00000000000E+00 0.  1.
         12    1    4    4    0    0 -0.36684234104E+02  0.50465342167E+01 -0.33460770168E+02  0.49908152437E+02  0.00000000000E+00 0. -1.
         -5    1    5    5    0  503 -0.16367482383E+02  0.25942475863E+02 -0.11627570579E+03  0.12034548721E+03  0.47000000000E+01 0.  1.
         11    1    6    6    0    0  0.21251785062E+02 -0.93208153094E+02 -0.39778056969E+03  0.40910729619E+03  0.00000000000E+00 0. -1.
        -12    1    6    6    0    0  0.50507265957E+01 -0.27993266730E+02 -0.22363080053E+02  0.36183423979E+02  0.00000000000E+00 0.  1.
</event>
<event>
12    1  0.9017558E-003  0.1898206E+03  0.7818608E-02  0.1158781E+00
         21   -1    0    0  501  502  0.00000000000E+00  0.00000000000E+00  0.64313459860E+03  0.64313459860E+03  0.00000000000E+00 0.  1.
         21   -1    0    0  502  503 -0.00000000000E+00 -0.00000000000E+00 -0.62025961705E+02  0.62025961705E+02  0.00000000000E+00 0.  1.
          6    2    1    2  501    0 -0.40962573258E+02 -0.69792962903E+02  0.17950665957E+03  0.26125561239E+03  0.17170574858E+03 0.  0.
         24    2    3    3    0    0 -0.13592285341E+02 -0.94056566763E+02  0.62369478074E+02  0.13845062706E+03  0.79039460809E+02 0.  0.
         -6    2    1    2    0  503  0.40962573258E+02  0.69792962903E+02  0.40160197733E+03  0.44390494792E+03  0.17093409408E+03 0.  0.
        -24    2    5    5    0    0 -0.39815780647E+02  0.26900167456E+02  0.20700470671E+03  0.22883490796E+03  0.84885517610E+02 0.  0.
          5    1    3    3  501    0 -0.27370287917E+02  0.24263603860E+02  0.11713718150E+03  0.12280498533E+03  0.47000000000E+01 0. -1.
        -13    1    4    4    0    0 -0.17488638030E+02  0.70588079188E+01 -0.12863751837E+01  0.18903279887E+02  0.00000000000E+00 0.  1.
         14    1    4    4    0    0  0.38963526883E+01 -0.10111537468E+03  0.63655853258E+02  0.11954734717E+03  0.00000000000E+00 0. -1.
         -5    1    5    5    0  503  0.80778353905E+02  0.42892795447E+02  0.19459727061E+03  0.21507003996E+03  0.47000000000E+01 0.  1.
         11    1    6    6    0    0 -0.36596457795E+01 -0.29097947188E+02  0.83347187158E+02  0.88356307896E+02  0.00000000000E+00 0. -1.
        -12    1    6    6    0    0 -0.36156134867E+02  0.55998114644E+02  0.12365751956E+03  0.14047860006E+03  0.00000000000E+00 0.  1.
</event>
<event>
12    1  0.9017558E-003  0.1733523E+03  0.7818608E-02  0.1174612E+00
         21   -1    0    0  503  502  0.00000000000E+00  0.00000000000E+00  0.27772766992E+02  0.27772766992E+02  0.00000000000E+00 0. -1.
         21   -1    0    0  501  503 -0.00000000000E+00 -0.00000000000E+00 -0.10912498524E+04  0.10912498524E+04  0.00000000000E+00 0. -1.
          6    2    1    2  501    0  0.82083630091E+01 -0.20426502425E+02 -0.46597037000E+03  0.49687691199E+03  0.17109547257E+03 0.  0.
         24    2    3    3    0    0  0.21687822620E+02  0.17626767359E+02 -0.44013168709E+03  0.44871598689E+03  0.82759110263E+02 0.  0.
         -6    2    1    2    0  502 -0.82083630091E+01  0.20426502425E+02 -0.59750671545E+03  0.62214570743E+03  0.17194879194E+03 0.  0.
        -24    2    5    5    0    0 -0.64096272391E+02  0.16980706930E+02 -0.48824700861E+03  0.49928356738E+03  0.80636608883E+02 0.  0.
          5    1    3    3  501    0 -0.13479459611E+02 -0.38053269784E+02 -0.25838682907E+02  0.48160925106E+02  0.47000000000E+01 0. -1.
        -13    1    4    4    0    0  0.23067382373E+02 -0.78438888686E+00 -0.28515187945E+02  0.36685628507E+02  0.00000000000E+00 0.  1.
         14    1    4    4    0    0 -0.13795597531E+01  0.18411156246E+02 -0.41161649915E+03  0.41203035838E+03  0.00000000000E+00 0. -1.
         -5    1    5    5    0  502  0.55887909382E+02  0.34457954952E+01 -0.10925970683E+03  0.12286214006E+03  0.47000000000E+01 0.  1.
         11    1    6    6    0    0 -0.42838707254E+02  0.10480865399E+02 -0.88124470692E+02  0.98544029314E+02  0.00000000000E+00 0. -1.
        -12    1    6    6    0    0 -0.21257565137E+02  0.64998415308E+01 -0.40012253792E+03  0.40073953806E+03  0.00000000000E+00 0.  1.
</event>
<event>
12    1  0.9017558E-003  0.1720105E+03  0.7818608E-02  0.1175891E+00
         21   -1    0    0  501  502  0.00000000000E+00  0.00000000000E+00  0.10539652420E+03  0.10539652420E+03  0.00000000000E+00 0. -1.
         21   -1    0    0  502  503 -0.00000000000E+00 -0.00000000000E+00 -0.29055036473E+03  0.29055036473E+03  0.00000000000E+00 0. -1.
          6    2    1    2  501    0  0.17202633295E+02  0.11560930195E+02 -0.13053292526E+03  0.21593161630E+03  0.17075723306E+03 0.  0.
         24    2    3    3    0    0  0.64572293699E+02  0.45843029890E+02 -0.76132176613E+02  0.13592737554E+03  0.80056096603E+02 0.  0.
         -6    2    1    2    0  503 -0.17202633295E+02 -0.11560930195E+02 -0.54620915266E+02  0.18001527263E+03  0.17027174838E+03 0.  0.
        -24    2    5    5    0    0 -0.53600599082E+02  0.13224299189E+02 -0.81125564891E+02  0.12840416955E+03  0.82815259271E+02 0.  0.
          5    1    3    3  501    0 -0.47369660405E+02 -0.34282099695E+02 -0.54400748647E+02  0.80004240761E+02  0.47000000000E+01 0. -1.
        -13    1    4    4    0    0  0.16893840160E+02  0.42376184160E+02 -0.75389060807E+02  0.88117270207E+02  0.00000000000E+00 0.  1.
         14    1    4    4    0    0  0.47678453539E+02  0.34668457305E+01 -0.74311580567E+00  0.47810105337E+02  0.00000000000E+00 0. -1.
         -5    1    5    5    0  503  0.36397965787E+02 -0.24785229384E+02  0.26504649625E+02  0.51611103077E+02  0.47000000000E+01 0.  1.
         13    1    6    6    0    0  0.18342900852E+02  0.19330385062E+02 -0.15463594122E+02  0.30809877337E+02  0.00000000000E+00 0. -1.
        -14    1    6    6    0    0 -0.71943499935E+02 -0.61060858738E+01 -0.65661970769E+02  0.97594292214E+02  0.00000000000E+00 0.  1.
</event>
<event>
12    1  0.9017558E-003  0.2058273E+03  0.7818608E-02  0.1145191E+00
         21   -1    0    0  501  502  0.00000000000E+00  0.00000000000E+00  0.52927978065E+03  0.52927978065E+03  0.00000000000E+00 0. -1.
         21   -1    0    0  502  503 -0.00000000000E+00 -0.00000000000E+00 -0.85048239890E+02  0.85048239890E+02  0.00000000000E+00 0.  1.
          6    2    1    2  501    0  0.85668849618E+02  0.75744350789E+02  0.29977692873E+03  0.36286829435E+03  0.16950172145E+03 0.  0.
         24    2    3    3    0    0  0.75999630592E+02  0.10594830200E+03  0.16292548994E+03  0.22231161978E+03  0.76659992658E+02 0.  0.
         -6    2    1    2    0  503 -0.85668849618E+02 -0.75744350789E+02  0.14445461203E+03  0.25145972619E+03  0.17113883395E+03 0.  0.
        -24    2    5    5    0    0 -0.12292066326E+03 -0.76127460799E+02  0.13357814236E+03  0.21236711837E+03  0.79698137390E+02 0.  0.
          5    1    3    3  501    0  0.96692190260E+01 -0.30203951209E+02  0.13685143879E+03  0.14055667456E+03  0.47000000000E+01 0. -1.
        -13    1    4    4    0    0 -0.46908605507E+00  0.10485079292E+01 -0.77745683785E+01  0.78589645678E+01  0.00000000000E+00 0.  1.
         14    1    4    4    0    0  0.76468716647E+02  0.10489979407E+03  0.17070005831E+03  0.21445265522E+03  0.00000000000E+00 0. -1.
         -5    1    5    5    0  503  0.37251813647E+02  0.38311001072E+00  0.10876469664E+02  0.39092607813E+02  0.47000000000E+01 0.  1.
         13    1    6    6    0    0 -0.19399364690E+02 -0.47296180434E+01  0.67331976561E+02  0.70230333225E+02  0.00000000000E+00 0. -1.
        -14    1    6    6    0    0 -0.10352129857E+03 -0.71397842756E+02  0.66246165804E+02  0.14213678515E+03  0.00000000000E+00 0.  1.
</event>
<event>
12    1  0.9017558E-003  0.2319440E+03  0.7818608E-02  0.1125884E+00
         21   -1    0    0  501  502  0.00000000000E+00  0.00000000000E+00  0.38327640671E+03  0.38327640671E+03  0.00000000000E+00 0.  1.
         21   -1    0    0  502  503 -0.00000000000E+00 -0.00000000000E+00 -0.23124442622E+03  0.23124442622E+03  0.00000000000E+00 0.  1.
          6    2    1    2  501    0 -0.29624309928E+02  0.14616168646E+03  0.27116525698E+03  0.35683134812E+03  0.17764339583E+03 0.  0.
         24    2    3    3    0    0 -0.34758584663E+02  0.95609549787E+02  0.27694226346E+03  0.30547627921E+03  0.79179509020E+02 0.  0.
         -6    2    1    2    0  503  0.29624309928E+02 -0.14616168646E+03 -0.11913327649E+03  0.25768948480E+03  0.17311930766E+03 0.  0.
        -24    2    5    5    0    0  0.27334361670E+02 -0.17735471028E+03 -0.97005179186E+02  0.21908907952E+03  0.79925961934E+02 0.  0.
          5    1    3    3  501    0  0.51342747347E+01  0.50552136672E+02 -0.57770064809E+01  0.51355068913E+02  0.47000000000E+01 0. -1.
        -13    1    4    4    0    0 -0.22902382014E+02  0.40551390030E+02  0.22186918122E+03  0.22670436236E+03  0.00000000000E+00 0.  1.
         14    1    4    4    0    0 -0.11856202649E+02  0.55058159757E+02  0.55073082244E+02  0.78771916854E+02  0.00000000000E+00 0. -1.
         -5    1    5    5    0  503  0.22899482580E+01  0.31193023816E+02 -0.22128097304E+02  0.38600405284E+02  0.47000000000E+01 0.  1.
         11    1    6    6    0    0  0.18429701383E+02 -0.50709688812E+01  0.35018812840E+01  0.19432750474E+02  0.00000000000E+00 0. -1.
        -12    1    6    6    0    0  0.89046602873E+01 -0.17228374139E+03 -0.10050706047E+03  0.19965632905E+03  0.00000000000E+00 0.  1.
</event>
<event>
12    1  0.9017558E-003  0.2289179E+03  0.7818608E-02  0.1127440E+00
         21   -1    0    0  501  502  0.00000000000E+00  0.00000000000E+00  0.38442892313E+03  0.38442892313E+03  0.00000000000E+00 0. -1.
         21   -1    0    0  502  503 -0.00000000000E+00 -0.00000000000E+00 -0.13633976321E+03  0.13633976321E+03  0.00000000000E+00 0.  1.
          6    2    1    2  501    0  0.12728373683E+03  0.77141298135E+02  0.11554867223E+03  0.25642714083E+03  0.17392944938E+03 0.  0.
         24    2    3    3    0    0  0.15627864531E+03  0.86829308341E+02  0.87834334245E+02  0.21489719032E+03  0.80644828524E+02 0.  0.
         -6    2    1    2    0  503 -0.12728373683E+03 -0.77141298135E+02  0.13254048769E+03  0.26434154551E+03  0.17365927060E+03 0.  0.
        -24    2    5    5    0    0 -0.14354711509E+03 -0.10501575529E+03  0.12610049586E+03  0.23109930839E+03  0.76625532126E+02 0.  0.
          5    1    3    3  501    0 -0.28994908482E+02 -0.96880102056E+01  0.27714337981E+02  0.41529950510E+02  0.47000000000E+01 0. -1.
        -11    1    4    4    0    0  0.72387000321E+02 -0.91207670819E+00  0.17048226217E+02  0.74373057733E+02  0.00000000000E+00 0.  1.
         12    1    4    4    0    0  0.83891644993E+02  0.87741385049E+02  0.70786108029E+02  0.14052413259E+03  0.00000000000E+00 0. -1.
         -5    1    5    5    0  503  0.16263378254E+02  0.27874457158E+02  0.64399918374E+01  0.33242237123E+02  0.47000000000E+01 0.  1.
         13    1    6    6    0    0 -0.49855809283E+02 -0.75575048553E+02  0.34764222211E+02  0.96983198694E+02  0.00000000000E+00 0. -1.
        -14    1    6    6    0    0 -0.93691305804E+02 -0.29440706741E+02  0.91336273645E+02  0.13411610970E+03  0.00000000000E+00 0.  1.
</event>
<event>
12    1  0.9017558E-003  0.2803471E+03  0.7818608E-02  0.1095529E+00
         21   -1    0    0  503  502  0.00000000000E+00  0.00000000000E+00  0.26723798994E+03  0.26723798994E+03  0.00000000000E+00 0. -1.
         21   -1    0    0  501  503 -0.00000000000E+00 -0.00000000000E+00 -0.32207273441E+03  0.32207273441E+03  0.00000000000E+00 0. -1.
          6    2    1    2  501    0 -0.22155730776E+03 -0.21262525417E+01 -0.11459858322E+03  0.30266418883E+03  0.17140774296E+03 0.  0.
         24    2    3    3    0    0 -0.77986254870E+02  0.47349104357E+02 -0.29179287905E+02  0.12836845112E+03  0.85458965406E+02 0.  0.
         -6    2    1    2    0  502  0.22155730776E+03  0.21262525417E+01  0.59763838752E+02  0.28664653552E+03  0.17176250560E+03 0.  0.
        -24    2    5    5    0    0  0.23089879926E+03  0.24536099826E+02  0.29902204118E+02  0.24787448448E+03  0.81433055637E+02 0.  0.
          5    1    3    3  501    0 -0.14357105289E+03 -0.49475356899E+02 -0.85419295320E+02  0.17429573771E+03  0.47000000000E+01 0. -1.
        -13    1    4    4    0    0 -0.56047219891E+02 -0.45173837794E+01  0.13357098519E+02  0.57793682134E+02  0.00000000000E+00 0.  1.
         14    1    4    4    0    0 -0.21939034979E+02  0.51866488137E+02 -0.42536386425E+02  0.70574768987E+02  0.00000000000E+00 0. -1.
         -5    1    5    5    0  502 -0.93414914996E+01 -0.22409847284E+02  0.29861634634E+02  0.38772051039E+02  0.47000000000E+01 0.  1.
         11    1    6    6    0    0  0.14668794988E+03  0.43608848303E+02  0.46517273065E+02  0.15994668795E+03  0.00000000000E+00 0. -1.
        -12    1    6    6    0    0  0.84210849380E+02 -0.19072748477E+02 -0.16615068947E+02  0.87927796537E+02  0.00000000000E+00 0.  1.
</event>
<event>
12    1  0.9017558E-003  0.1921101E+03  0.7818608E-02  0.1157915E+00
         21   -1    0    0  501  502  0.00000000000E+00  0.00000000000E+00  0.21231048415E+03  0.21231048415E+03  0.00000000000E+00 0.  1.
         21   -1    0    0  502  503 -0.00000000000E+00 -0.00000000000E+00 -0.19611798841E+03  0.19611798841E+03  0.00000000000E+00 0.  1.
          6    2    1    2  501    0 -0.34121153642E+02  0.26235337152E+02  0.84838732341E+02  0.21000931604E+03  0.18722648391E+03 0.  0.
         24    2    3    3    0    0 -0.33590137748E+02  0.75035551810E+02  0.10620879352E+03  0.15652555735E+03  0.80382279719E+02 0.  0.
         -6    2    1    2    0  503  0.34121153642E+02 -0.26235337152E+02 -0.68646236603E+02  0.19841915652E+03  0.18112236149E+03 0.  0.
        -24    2    5    5    0    0 -0.49725680058E+02  0.96696314086E+00 -0.17200880200E+02  0.96247872107E+02  0.80586626250E+02 0.  0.
          5    1    3    3  501    0 -0.53101589321E+00 -0.48800214658E+02 -0.21370061184E+02  0.53483758689E+02  0.47000000000E+01 0. -1.
        -13    1    4    4    0    0  0.26512120296E+01  0.67199400887E+02  0.34010334320E+02  0.75362399414E+02  0.00000000000E+00 0.  1.
         14    1    4    4    0    0 -0.36241349778E+02  0.78361509234E+01  0.72198459204E+02  0.81163157938E+02  0.00000000000E+00 0. -1.
         -5    1    5    5    0  503  0.83846833700E+02 -0.27202300293E+02 -0.51445356402E+02  0.10217128441E+03  0.47000000000E+01 0.  1.
         13    1    6    6    0    0 -0.15165645636E+02  0.26110988593E+02  0.22701285588E+02  0.37777359625E+02  0.00000000000E+00 0. -1.
        -14    1    6    6    0    0 -0.34560034422E+02 -0.25144025453E+02 -0.39902165789E+02  0.58470512481E+02  0.00000000000E+00 0.  1.
</event>
<event>
12    1  0.9017558E-003  0.2240185E+03  0.7818608E-02  0.1131257E+00
         21   -1    0    0  501  502  0.00000000000E+00  0.00000000000E+00  0.38170805574E+03  0.38170805574E+03  0.00000000000E+00 0. -1.
         21   -1    0    0  502  503 -0.00000000000E+00 -0.00000000000E+00 -0.13648229166E+03  0.13648229166E+03  0.00000000000E+00 0. -1.
          6    2    1    2  501    0 -0.12493750078E+03 -0.65010888944E+02  0.17778708209E+03  0.28599394287E+03  0.17420819159E+03 0.  0.
         24    2    3    3    0    0 -0.91443910008E+02  0.26502439952E+02  0.81868589767E+02  0.14917670288E+03  0.80541012483E+02 0.  0.
         -6    2    1    2    0  503  0.12493750078E+03  0.65010888944E+02  0.67438681991E+02  0.23219640453E+03  0.17184702403E+03 0.  0.
        -24    2    5    5    0    0  0.13507748580E+03  0.47471125907E+02  0.10117879731E+03  0.19256121859E+03  0.79644453126E+02 0.  0.
          5    1    3    3  501    0 -0.33493590777E+02 -0.91513328895E+02  0.95918492323E+02  0.13681723999E+03  0.47000000000E+01 0. -1.
        -13    1    4    4    0    0  0.13266571004E+01 -0.18569414153E+02  0.25699102613E+02  0.31733689293E+02  0.00000000000E+00 0.  1.
         14    1    4    4    0    0 -0.92770567108E+02  0.45071854104E+02  0.56169487154E+02  0.11744301359E+03  0.00000000000E+00 0. -1.
         -5    1    5    5    0  503 -0.10139985015E+02  0.17539763037E+02 -0.33740115318E+02  0.39635185949E+02  0.47000000000E+01 0.  1.
         13    1    6    6    0    0  0.11125657195E+03  0.79027415779E+01  0.46119263054E+02  0.12069575200E+03  0.00000000000E+00 0. -1.
        -14    1    6    6    0    0  0.23820913848E+02  0.39568384329E+02  0.55059534256E+02  0.71865466585E+02  0.00000000000E+00 0.  1.
</event>
<event>
12    1  0.9017558E-003  0.1835438E+03  0.7818608E-02  0.1164511E+00
         21   -1    0    0  503  502  0.00000000000E+00  0.00000000000E+00  0.44621096165E+02  0.44621096165E+02  0.00000000000E+00 0.  1.
         21   -1    0    0  501  503 -0.00000000000E+00 -0.00000000000E+00 -0.75386284133E+03  0.75386284133E+03  0.00000000000E+00 0. -1.
          6    2    1    2  501    0  0.16968633206E+02 -0.60803305690E+02 -0.36461382191E+03  0.40802684917E+03  0.17192351212E+03 0.  0.
         24    2    3    3    0    0 -0.18355559021E+02  0.28244329107E+02 -0.17437733654E+03  0.19497922495E+03  0.80465980326E+02 0.  0.
         -6    2    1    2    0  502 -0.16968633206E+02  0.60803305690E+02 -0.34462792326E+03  0.39045708833E+03  0.17234661540E+03 0.  0.
        -24    2    5    5    0    0 -0.28505814874E+02  0.10942927196E+03 -0.28906604663E+03  0.31557849799E+03  0.56949644767E+02 0.  0.
          5    1    3    3  501    0  0.35324192227E+02 -0.89047634797E+02 -0.19023648537E+03  0.21304762422E+03  0.47000000000E+01 0. -1.
        -13    1    4    4    0    0 -0.40942673073E+02  0.21066267800E+02 -0.16164591911E+03  0.16807585573E+03  0.00000000000E+00 0.  1.
         14    1    4    4    0    0  0.22587114052E+02  0.71780613069E+01 -0.12731417436E+02  0.26903369218E+02  0.00000000000E+00 0. -1.
         -5    1    5    5    0  502  0.11537181667E+02 -0.48625966267E+02 -0.55561876629E+02  0.74878590336E+02  0.47000000000E+01 0.  1.
         13    1    6    6    0    0  0.14651837245E+02  0.16251749218E+02 -0.75515860112E+02  0.78622139475E+02  0.00000000000E+00 0. -1.
        -14    1    6    6    0    0 -0.43157652119E+02  0.93177522739E+02 -0.21355018652E+03  0.23695635852E+03  0.00000000000E+00 0.  1.
</event>
<event>
12    1  0.9017558E-003  0.1734344E+03  0.7818608E-02  0.1174555E+00
         21   -1    0    0  503  502  0.00000000000E+00  0.00000000000E+00  0.36683269239E+03  0.36683269239E+03  0.00000000000E+00 0. -1.
         21   -1    0    0  501  503 -0.00000000000E+00 -0.00000000000E+00 -0.91069674283E+02  0.91069674283E+02  0.00000000000E+00 0. -1.
          6    2    1    2  501    0 -0.10561809432E+02  0.75537914549E+00  0.64193612519E+02  0.18493323220E+03  0.17311082597E+03 0.  0.
         24    2    3    3    0    0  0.29533044122E+01  0.65927387538E+02  0.56720406271E+02  0.11779168179E+03  0.79388496505E+02 0.  0.
         -6    2    1    2    0  502  0.10561809432E+02 -0.75537914549E+00  0.21156940559E+03  0.27296913447E+03  0.17215810343E+03 0.  0.
        -24    2    5    5    0    0  0.57462279305E+01 -0.66429009752E+02  0.15315069335E+03  0.18481556664E+03  0.79093781842E+02 0.  0.
          5    1    3    3  501    0 -0.13515113844E+02 -0.65172008393E+02  0.74732062481E+01  0.67141550412E+02  0.47000000000E+01 0. -1.
        -13    1    4    4    0    0 -0.16830876995E+02  0.27433559092E+02  0.66088590217E+02  0.73509049386E+02  0.00000000000E+00 0.  1.
         14    1    4    4    0    0  0.19784181407E+02  0.38493828446E+02 -0.93681839455E+01  0.44282632406E+02  0.00000000000E+00 0. -1.
         -5    1    5    5    0  502  0.48155815018E+01  0.65673630606E+02  0.58418712244E+02  0.88153567837E+02  0.47000000000E+01 0.  1.
         13    1    6    6    0    0 -0.29865631365E+02 -0.20219752953E+02  0.24631723560E+02  0.43675120514E+02  0.00000000000E+00 0. -1.
        -14    1    6    6    0    0  0.35611859296E+02 -0.46209256799E+02  0.12851896979E+03  0.14114044612E+03  0.00000000000E+00 0.  1.
</event>
<event>
12    1  0.9017558E-003  0.2028585E+03  0.7818608E-02  0.1148833E+00
         21   -1    0    0  503  502  0.00000000000E+00  0.00000000000E+00  0.11575712346E+03  0.11575712346E+03  0.00000000000E+00 0.  1.
         21   -1    0    0  501  503 -0.00000000000E+00 -0.00000000000E+00 -0.43747614793E+03  0.43747614793E+03  0.00000000000E+00 0.  1.
          6    2    1    2  501    0  0.81334761826E+02 -0.40702499687E+02 -0.29142201270E+03  0.35507515393E+03  0.18132715872E+03 0.  0.
         24    2    3    3    0    0  0.79710420946E+02 -0.32996902441E+01 -0.29638231354E+03  0.31701857471E+03  0.79332602188E+02 0.  0.
         -6    2    1    2    0  502 -0.81334761826E+02  0.40702499687E+02 -0.30297011777E+02  0.19815811746E+03  0.17342633489E+03 0.  0.
        -24    2    5    5    0    0 -0.37547502170E+02  0.40552884201E+02 -0.83755191055E+02  0.12889619846E+03  0.80900844320E+02 0.  0.
          5    1    3    3  501    0  0.16243408794E+01 -0.37402809443E+02  0.49603008346E+01  0.38056579219E+02  0.47000000000E+01 0. -1.
        -13    1    4    4    0    0  0.33852911022E+02 -0.40098834139E+02 -0.11658284613E+03  0.12784950566E+03  0.00000000000E+00 0.  1.
         14    1    4    4    0    0  0.45857509924E+02  0.36799143895E+02 -0.17979946740E+03  0.18916906905E+03  0.00000000000E+00 0. -1.
         -5    1    5    5    0  502 -0.43787259655E+02  0.14961548638E+00  0.53458179278E+02  0.69261919008E+02  0.47000000000E+01 0.  1.
         11    1    6    6    0    0 -0.42760225197E+02 -0.11012918536E+02 -0.51553912551E+02  0.67878767910E+02  0.00000000000E+00 0. -1.
        -12    1    6    6    0    0  0.52127230268E+01  0.51565802737E+02 -0.32201278503E+02  0.61017430547E+02  0.00000000000E+00 0.  1.
</event>
<event>
12    1  0.9017558E-003  0.2690214E+03  0.7818608E-02  0.1102057E+00
         21   -1    0    0  503  502  0.00000000000E+00  0.00000000000E+00  0.74994115000E+02  0.74994115000E+02  0.00000000000E+00 0.  1.
         21   -1    0    0  501  503 -0.00000000000E+00 -0.00000000000E+00 -0.13457003932E+04  0.13457003932E+04  0.00000000000E+00 0. -1.
          6    2    1    2  501    0  0.10494265692E+03 -0.17690651037E+03 -0.10170648653E+04  0.10520425276E+04  0.17338876812E+03 0.  0.
         24    2    3    3    0    0  0.13419841482E+03 -0.98017454516E+02 -0.68269428222E+03  0.70721625342E+03  0.80415857890E+02 0.  0.
         -6    2    1    2    0  502 -0.10494265692E+03  0.17690651037E+03 -0.25364141294E+03  0.36865198069E+03  0.17105976104E+03 0.  0.
        -24    2    5    5    0    0 -0.52779640400E+02  0.71069157520E+02 -0.21286870247E+03  0.24372388348E+03  0.79067890416E+02 0.  0.
          5    1    3    3  501    0 -0.29255757900E+02 -0.78889055858E+02 -0.33437058308E+03  0.34482627414E+03  0.47000000000E+01 0. -1.
        -11    1    4    4    0    0  0.54677373014E+02 -0.87822134078E+02 -0.34783153610E+03  0.36288995558E+03  0.00000000000E+00 0.  1.
         12    1    4    4    0    0  0.79521041808E+02 -0.10195320437E+02 -0.33486274611E+03  0.34432629784E+03  0.00000000000E+00 0. -1.
         -5    1    5    5    0  502 -0.52163016522E+02  0.10583735285E+03 -0.40772710470E+02  0.12492809720E+03  0.47000000000E+01 0.  1.
         11    1    6    6    0    0 -0.46097015998E+02 -0.51641847795E+00 -0.70564205732E+02  0.84288247713E+02  0.00000000000E+00 0. -1.
        -12    1    6    6    0    0 -0.66826244022E+01  0.71585575998E+02 -0.14230449674E+03  0.15943563577E+03  0.00000000000E+00 0.  1.
</event>
<event>
12    1  0.9017558E-003  0.1826969E+03  0.7818608E-02  0.1166747E+00
         21   -1    0    0  501  502  0.00000000000E+00  0.00000000000E+00  0.37042040309E+03  0.37042040309E+03  0.00000000000E+00 0.  1.
         21   -1    0    0  502  503 -0.00000000000E+00 -0.00000000000E+00 -0.94243884924E+02  0.94243884924E+02  0.00000000000E+00 0.  1.
          6    2    1    2  501    0 -0.57752928014E+02 -0.11972458754E+01  0.20016950371E+03  0.26678746325E+03  0.16664599078E+03 0.  0.
         24    2    3    3    0    0 -0.43800076532E+00 -0.55246951100E+02  0.94085575534E+02  0.13456696054E+03  0.78763912396E+02 0.  0.
         -6    2    1    2    0  503  0.57752928014E+02  0.11972458754E+01  0.76007014461E+02  0.19787682476E+03  0.17332437059E+03 0.  0.
        -24    2    5    5    0    0 -0.16573717577E+02  0.33538256877E+02  0.76690527760E+02  0.11667985174E+03  0.79581706223E+02 0.  0.
          5    1    3    3  501    0 -0.57314927248E+02  0.54049705224E+02  0.10608392817E+03  0.13222050271E+03  0.47000000000E+01 0. -1.
        -13    1    4    4    0    0 -0.17281019993E+02 -0.10293023316E+02  0.82859842574E+02  0.85266250606E+02  0.00000000000E+00 0.  1.
         14    1    4    4    0    0  0.16843019228E+02 -0.44953927784E+02  0.11225732959E+02  0.49300709938E+02  0.00000000000E+00 0. -1.
         -5    1    5    5    0  503  0.74326645591E+02 -0.32341011002E+02 -0.68351329947E+00  0.81196973022E+02  0.47000000000E+01 0.  1.
         13    1    6    6    0    0  0.19507365135E+02 -0.16647662615E+02  0.17108349178E+02  0.30828194508E+02  0.00000000000E+00 0. -1.
        -14    1    6    6    0    0 -0.36081082712E+02  0.50185919492E+02  0.59582178583E+02  0.85851657233E+02  0.00000000000E+00 0.  1.
</event>
<event>
12    1  0.9017558E-003  0.2332996E+03  0.7818608E-02  0.1124387E+00
         21   -1    0    0  501  502  0.00000000000E+00  0.00000000000E+00  0.17451890396E+03  0.17451890396E+03  0.00000000000E+00 0. -1.
         21   -1    0    0  502  503 -0.00000000000E+00 -0.00000000000E+00 -0.44574461749E+03  0.44574461749E+03  0.00000000000E+00 0.  1.
          6    2    1    2  501    0  0.14875065532E+03  0.50933712806E+02  0.34635382531E+02  0.23558220044E+03  0.17198361225E+03 0.  0.
         24    2    3    3    0    0  0.35684564855E+02  0.50891018833E+02 -0.30488350756E+02  0.10501752960E+03  0.78967449140E+02 0.  0.
         -6    2    1    2    0  503 -0.14875065532E+03 -0.50933712806E+02 -0.30586109607E+03  0.38468132101E+03  0.17235924138E+03 0.  0.
        -24    2    5    5    0    0 -0.97798911924E+02 -0.98887799790E+02 -0.23478685705E+03  0.28483487858E+03  0.81624847273E+02 0.  0.
          5    1    3    3  501    0  0.11306609047E+03  0.42693972060E-01  0.65123733287E+02  0.13056467085E+03  0.47000000000E+01 0. -1.
        -11    1    4    4    0    0  0.11972034925E+02 -0.18521544175E+02 -0.22043943484E+02  0.31181928472E+02  0.00000000000E+00 0.  1.
         12    1    4    4    0    0  0.23712529929E+02  0.69412563009E+02 -0.84444072727E+01  0.73835601124E+02  0.00000000000E+00 0. -1.
         -5    1    5    5    0  503 -0.50951743396E+02  0.47954086984E+02 -0.71074239012E+02  0.99846442424E+02  0.47000000000E+01 0.  1.
         13    1    6    6    0    0  0.51483587723E+01 -0.26574471231E+02 -0.85098308795E+02  0.89299665616E+02  0.00000000000E+00 0. -1.
        -14    1    6    6    0    0 -0.10294727070E+03 -0.72313328559E+02 -0.14968854826E+03  0.19553521297E+03  0.00000000000E+00 0.  1.
</event>
<event>
12    1  0.9017558E-003  0.2045838E+03  0.7818608E-02  0.1146108E+00
         21   -1    0    0  503  502  0.00000000000E+00  0.00000000000E+00  0.27092989142E+02  0.27092989142E+02  0.00000000000E+00 0.  1.
         21   -1    0    0  501  503 -0.00000000000E+00 -0.00000000000E+00 -0.16725062132E+04  0.16725062132E+04  0.00000000000E+00 0.  1.
          6    2    1    2  501    0  0.97736613815E+02  0.51785465868E+02 -0.58356108578E+03  0.61838341873E+03  0.17210558261E+03 0.  0.
         24    2    3    3    0    0  0.71960699447E+02  0.68717927671E+02 -0.22613853515E+03  0.25960204278E+03  0.79712531572E+02 0.  0.
         -6    2    1    2    0  502 -0.97736613815E+02 -0.51785465868E+02 -0.10618521383E+04  0.10812157836E+04  0.17106556350E+03 0.  0.
        -24    2    5    5    0    0 -0.13065528954E+03 -0.31638945942E+02 -0.71262576812E+03  0.72983184959E+03  0.82141437174E+02 0.  0.
          5    1    3    3  501    0  0.25775914367E+02 -0.16932461802E+02 -0.35742255063E+03  0.35878137594E+03  0.47000000000E+01 0. -1.
        -13    1    4    4    0    0 -0.14387756144E+02  0.24607588813E+02 -0.33879436965E+02  0.44275921257E+02  0.00000000000E+00 0.  1.
         14    1    4    4    0    0  0.86348455592E+02  0.44110338858E+02 -0.19225909818E+03  0.21532612152E+03  0.00000000000E+00 0. -1.
         -5    1    5    5    0  502  0.32918675727E+02 -0.20146519927E+02 -0.34922637014E+03  0.35138393401E+03  0.47000000000E+01 0.  1.
         13    1    6    6    0    0  0.98664008247E+01 -0.52658491361E+01 -0.23432965735E+02  0.25964955527E+02  0.00000000000E+00 0. -1.
        -14    1    6    6    0    0 -0.14052169037E+03 -0.26373096806E+02 -0.68919280238E+03  0.70386689406E+03  0.00000000000E+00 0.  1.
</event>
<event>
12    1  0.9017558E-003  0.1841289E+03  0.7818608E-02  0.1163891E+00
         21   -1    0    0  503  502  0.00000000000E+00  0.00000000000E+00  0.35282834283E+03  0.35282834283E+03  0.00000000000E+00 0. -1.
         21   -1    0    0  501  503 -0.00000000000E+00 -0.00000000000E+00 -0.11064790160E+03  0.11064790160E+03  0.00000000000E+00 0. -1.
          6    2    1    2  501    0 -0.61974765305E+02  0.88776590606E+01  0.36845797895E+02  0.18767600258E+03  0.17304619255E+03 0.  0.
         24    2    3    3    0    0 -0.92206396931E+02  0.47497466665E+02  0.43325194138E+02  0.13798180105E+03  0.80024221322E+02 0.  0.
         -6    2    1    2    0  502  0.61974765305E+02 -0.88776590606E+01  0.20533464333E+03  0.27580024186E+03  0.17315823195E+03 0.  0.
        -24    2    5    5    0    0  0.92741555853E+02 -0.45448645287E+02  0.17649897385E+03  0.21978579489E+03  0.80543977590E+02 0.  0.
          5    1    3    3  501    0  0.30231631626E+02 -0.38619807605E+02 -0.64793962430E+01  0.49694201532E+02  0.47000000000E+01 0. -1.
        -11    1    4    4    0    0 -0.19891693969E+01  0.18645893390E+02  0.38872375484E+02  0.43158865960E+02  0.00000000000E+00 0.  1.
         12    1    4    4    0    0 -0.90217227534E+02  0.28851573276E+02  0.44528186543E+01  0.94822935087E+02  0.00000000000E+00 0. -1.
         -5    1    5    5    0  502 -0.30766790549E+02  0.36570986226E+02  0.28835669484E+02  0.56014446965E+02  0.47000000000E+01 0.  1.
         11    1    6    6    0    0  0.50161677571E+02  0.15842333398E+02  0.99531413617E+02  0.11257742101E+03  0.00000000000E+00 0. -1.
        -12    1    6    6    0    0  0.42579878282E+02 -0.61290978685E+02  0.76967560231E+02  0.10720837388E+03  0.00000000000E+00 0.  1.
</event>
<event>
12    1  0.9017558E-003  0.3386582E+03  0.7818608E-02  0.1067377E+00
         21   -1    0    0  503  502  0.00000000000E+00  0.00000000000E+00  0.21889765651E+04  0.21889765651E+04  0.00000000000E+00 0.  1.
         21   -1    0    0  501  503 -0.00000000000E+00 -0.00000000000E+00 -0.73753923521E+02  0.73753923521E+02  0.00000000000E+00 0. -1.
          6    2    1    2  501    0  0.15579153598E+03  0.24656706744E+03  0.44868385817E+03  0.56214460902E+03  0.17211343770E+03 0.  0.
         24    2    3    3    0    0  0.12215662560E+03  0.78386503300E+02  0.24278918495E+03  0.29413207981E+03  0.80625101367E+02 0.  0.
         -6    2    1    2    0  502 -0.15579153598E+03 -0.24656706744E+03  0.16665387834E+04  0.17005858796E+04  0.17197236950E+03 0.  0.
        -24    2    5    5    0    0 -0.76482173050E+02 -0.11839263819E+03  0.11820629612E+04  0.11931831089E+04  0.80911974849E+02 0.  0.
          5    1    3    3  501    0  0.33634910386E+02  0.16818056414E+03  0.20589467323E+03  0.26801252921E+03  0.47000000000E+01 0. -1.
        -11    1    4    4    0    0  0.45337106443E+02 -0.61164056156E+01  0.10911716655E+03  0.11831914331E+03  0.00000000000E+00 0.  1.
         12    1    4    4    0    0  0.76819519156E+02  0.84502908916E+02  0.13367201840E+03  0.17581293650E+03  0.00000000000E+00 0. -1.
         -5    1    5    5    0  502 -0.79309362935E+02 -0.12817442925E+03  0.48447582226E+03  0.50740277070E+03  0.47000000000E+01 0.  1.
         11    1    6    6    0    0  0.35136355762E+01  0.81320247002E-01  0.26684906637E+03  0.26687221000E+03  0.00000000000E+00 0. -1.
        -12    1    6    6    0    0 -0.79995808626E+02 -0.11847395844E+03  0.91521389480E+03  0.92631089893E+03  0.00000000000E+00 0.  1.
</event>
<event>
12    1  0.9017558E-003  0.2118608E+03  0.7818608E-02  0.1140347E+00
         21   -1    0    0  501  502  0.00000000000E+00  0.00000000000E+00  0.19029758534E+03  0.19029758534E+03  0.00000000000E+00 0.  1.
         21   -1    0    0  502  503 -0.00000000000E+00 -0.00000000000E+00 -0.23822017273E+03  0.23822017273E+03  0.00000000000E+00 0.  1.
          6    2    1    2  501    0 -0.10933539640E+03 -0.53339999116E+02  0.29792311203E+01  0.21062787768E+03  0.17191812768E+03 0.  0.
         24    2    3    3    0    0 -0.91305310908E+02 -0.71544697785E+02 -0.52477576422E+02  0.14935763580E+03  0.78092917506E+02 0.  0.
         -6    2    1    2    0  503  0.10933539640E+03  0.53339999116E+02 -0.50901818503E+02  0.21788988039E+03  0.17345206957E+03 0.  0.
        -24    2    5    5    0    0  0.10240036177E+02  0.13518489912E+01  0.29968409513E+02  0.79742343498E+02  0.73171373783E+02 0.  0.
          5    1    3    3  501    0 -0.18030085490E+02  0.18204698669E+02  0.55456807543E+02  0.61270241873E+02  0.47000000000E+01 0. -1.
        -13    1    4    4    0    0 -0.92494078224E+02 -0.31174964578E+02 -0.47855247970E+02  0.10870675085E+03  0.00000000000E+00 0.  1.
         14    1    4    4    0    0  0.11887673157E+01 -0.40369733207E+02 -0.46223284529E+01  0.40650884951E+02  0.00000000000E+00 0. -1.
         -5    1    5    5    0  503  0.99095360221E+02  0.51988150125E+02 -0.80870228016E+02  0.13814753690E+03  0.47000000000E+01 0.  1.
         11    1    6    6    0    0  0.47553332693E+01  0.36503625629E+02  0.72178482707E+01  0.37513000576E+02  0.00000000000E+00 0. -1.
        -12    1    6    6    0    0  0.54847029074E+01 -0.35151776638E+02  0.22750561242E+02  0.42229342922E+02  0.00000000000E+00 0.  1.
</event>
<event>
12    1  0.9017558E-003  0.1853853E+03  0.7818608E-02  0.1163085E+00
         21   -1    0    0  503  502  0.00000000000E+00  0.00000000000E+00  0.18981490152E+02  0.18981490152E+02  0.00000000000E+00 0. -1.
         21   -1    0    0  501  503 -0.00000000000E+00 -0.00000000000E+00 -0.19305953459E+04  0.19305953459E+04  0.00000000000E+00 0. -1.
          6    2    1    2  501    0 -0.40552892803E+02 -0.53220580039E+02 -0.12108728392E+04  0.12247281154E+04  0.17108172568E+03 0.  0.
         24    2    3    3    0    0 -0.61697107878E+01 -0.89361324463E+02 -0.98098489421E+03  0.98944336488E+03  0.92969338927E+02 0.  0.
         -6    2    1    2    0  502  0.40552892803E+02  0.53220580039E+02 -0.70074101661E+03  0.72484872064E+03  0.17288935248E+03 0.  0.
        -24    2    5    5    0    0 -0.91823183711E+00 -0.35545211462E+02 -0.35930052062E+03  0.36959821435E+03  0.79004244969E+02 0.  0.
          5    1    3    3  501    0 -0.34383182016E+02  0.36140744423E+02 -0.22988794495E+03  0.23528475056E+03  0.47000000000E+01 0. -1.
        -13    1    4    4    0    0 -0.18214786822E+02  0.14999981563E+02 -0.21409462529E+03  0.21539100836E+03  0.00000000000E+00 0.  1.
         14    1    4    4    0    0  0.12045076034E+02 -0.10436130603E+03 -0.76689026893E+03  0.77405235652E+03  0.00000000000E+00 0. -1.
         -5    1    5    5    0  502  0.41471124640E+02  0.88765791501E+02 -0.34144049598E+03  0.35525050629E+03  0.47000000000E+01 0.  1.
         13    1    6    6    0    0  0.25851790575E+02  0.81773845956E+01 -0.58730839103E+02  0.64687681644E+02  0.00000000000E+00 0. -1.
        -14    1    6    6    0    0 -0.26770022412E+02 -0.43722596057E+02 -0.30056968152E+03  0.30491053271E+03  0.00000000000E+00 0.  1.
</event>
<event>
12    1  0.9017558E-003  0.1744986E+03  0.7818608E-02  0.1173691E+00
         21   -1    0    0  501  502  0.00000000000E+00  0.00000000000E+00  0.17477039386E+03  0.17477039386E+03  0.00000000000E+00 0. -1.
         21   -1    0    0  502  503 -0.00000000000E+00 -0.00000000000E+00 -0.20191194454E+03  0.20191194454E+03  0.00000000000E+00 0. -1.
          6    2    1    2  501    0 -0.27347526549E+02 -0.35219506132E+02 -0.85585363981E+02  0.19435694136E+03  0.16870526165E+03 0.  0.
         24    2    3    3    0    0  0.42174533793E+02 -0.10314582160E+01 -0.73018187930E+02  0.11573020667E+03  0.79259508958E+02 0.  0.
         -6    2    1    2    0  503  0.27347526549E+02  0.35219506132E+02  0.58443813306E+02  0.18232539704E+03  0.16684894447E+03 0.  0.
        -24    2    5    5    0    0 -0.36311160114E+02 -0.17728526627E+02  0.23737448495E+02  0.92422425348E+02  0.79659508164E+02 0.  0.
          5    1    3    3  501    0 -0.69522060342E+02 -0.34188047916E+02 -0.12567176051E+02  0.78626734693E+02  0.47000000000E+01 0. -1.
        -13    1    4    4    0    0  0.21837104003E+02  0.37936353690E+02 -0.24113636415E+02  0.49974928751E+02  0.00000000000E+00 0.  1.
         14    1    4    4    0    0  0.20337429791E+02 -0.38967811906E+02 -0.48904551515E+02  0.65755277918E+02  0.00000000000E+00 0. -1.
         -5    1    5    5    0  503  0.63658686663E+02  0.52948032759E+02  0.34706364810E+02  0.89902971692E+02  0.47000000000E+01 0.  1.
         11    1    6    6    0    0 -0.17580481902E+01  0.14909601405E+02  0.39571548615E+02  0.42323686126E+02  0.00000000000E+00 0. -1.
        -12    1    6    6    0    0 -0.34553111924E+02 -0.32638128032E+02 -0.15834100120E+02  0.50098739222E+02  0.00000000000E+00 0.  1.
</event>
<event>
12    1  0.9017558E-003  0.2077904E+03  0.7818608E-02  0.1143371E+00
         21   -1    0    0  501  502  0.00000000000E+00  0.00000000000E+00  0.49046922662E+02  0.49046922662E+02  0.00000000000E+00 0. -1.
         21   -1    0    0  502  503 -0.00000000000E+00 -0.00000000000E+00 -0.10666993261E+04  0.10666993261E+04  0.00000000000E+00 0. -1.
          6    2    1    2  501    0 -0.11446256388E+03  0.15668948520E+02 -0.27528424516E+03  0.34490326570E+03  0.17271263004E+03 0.  0.
         24    2    3    3    0    0 -0.45385365419E+02  0.68017518043E+02 -0.20249950236E+03  0.23162599144E+03  0.77190266874E+02 0.  0.
         -6    2    1    2    0  503  0.11446256388E+03 -0.15668948520E+02 -0.74236815827E+03  0.77084298306E+03  0.17245645143E+03 0.  0.
        -24    2    5    5    0    0  0.28134385011E+02  0.21227592159E+02 -0.17045842025E+03  0.19125972966E+03  0.79259427615E+02 0.  0.
          5    1    3    3  501    0 -0.69077198462E+02 -0.52348569523E+02 -0.72784742805E+02  0.11327727426E+03  0.47000000000E+01 0. -1.
        -13    1    4    4    0    0  0.20968815043E+02  0.24964142807E+02 -0.71805360740E+02  0.78860062525E+02  0.00000000000E+00 0.  1.
         14    1    4    4    0    0 -0.66354180461E+02  0.43053375235E+02 -0.13069414162E+03  0.15276592892E+03  0.00000000000E+00 0. -1.
         -5    1    5    5    0  503  0.86328178870E+02 -0.36896540679E+02 -0.57190973802E+03  0.57958325340E+03  0.47000000000E+01 0.  1.
         11    1    6    6    0    0  0.29666497278E+02  0.43946996631E+02 -0.15478794603E+03  0.16361768795E+03  0.00000000000E+00 0. -1.
        -12    1    6    6    0    0 -0.15321122670E+01 -0.22719404472E+02 -0.15670474222E+02  0.27642041710E+02  0.00000000000E+00 0.  1.
</event>
<event>
12    1  0.9017558E-003  0.2559920E+03  0.7818608E-02  0.1109664E+00
         21   -1    0    0  501  502  0.00000000000E+00  0.00000000000E+00  0.40790028619E+03  0.40790028619E+03  0.00000000000E+00 0.  1.
         21   -1    0    0  502  503 -0.00000000000E+00 -0.00000000000E+00 -0.18596290032E+03  0.18596290032E+03  0.00000000000E+00 0.  1.
          6    2    1    2  501    0 -0.17335403708E+03  0.72979328588E+02  0.22138866381E+03  0.33844471367E+03  0.17364987525E+03 0.  0.
         24    2    3    3    0    0 -0.15936334893E+03  0.11347387162E+03  0.19764333687E+03  0.28923619894E+03  0.79509079027E+02 0.  0.
         -6    2    1    2    0  503  0.17335403708E+03 -0.72979328588E+02  0.54872206007E+00  0.25541847285E+03  0.17280246122E+03 0.  0.
        -24    2    5    5    0    0  0.59387749540E+02 -0.60254978838E+01 -0.55271588814E+02  0.11185967915E+03  0.76775177431E+02 0.  0.
          5    1    3    3  501    0 -0.13990688148E+02 -0.40494543028E+02  0.23745326937E+02  0.49208514723E+02  0.47000000000E+01 0. -1.
        -13    1    4    4    0    0 -0.96527237700E+02  0.69833683290E+02  0.63991797688E+02  0.13523757285E+03  0.00000000000E+00 0.  1.
         14    1    4    4    0    0 -0.62836111230E+02  0.43640188326E+02  0.13365153918E+03  0.15399862609E+03  0.00000000000E+00 0. -1.
         -5    1    5    5    0  503  0.11396628754E+03 -0.66953830704E+02  0.55820310874E+02  0.14355879370E+03  0.47000000000E+01 0.  1.
         13    1    6    6    0    0  0.63116778214E+02  0.23601294708E+02 -0.38809481311E+02  0.77761974278E+02  0.00000000000E+00 0. -1.
        -14    1    6    6    0    0 -0.37290286748E+01 -0.29626792592E+02 -0.16462107503E+02  0.34097704872E+02  0.00000000000E+00 0.  1.
</event>
<event>
12    1  0.9017558E-003  0.2082325E+03  0.7818608E-02  0.1142980E+00
         21   -1    0    0  503  502  0.00000000000E+00  0.00000000000E+00  0.14325408214E+04  0.14325408214E+04  0.00000000000E+00 0. -1.
         21   -1    0    0  501  503 -0.00000000000E+00 -0.00000000000E+00 -0.33946538135E+02  0.33946538135E+02  0.00000000000E+00 0. -1.
          6    2    1    2  501    0 -0.74324952837E+02 -0.90167489441E+02  0.45783280377E+03  0.50296287334E+03  0.17235544953E+03 0.  0.
         24    2    3    3    0    0  0.15126992250E+02 -0.72176565410E+02  0.31955299089E+03  0.33722597196E+03  0.78542725267E+02 0.  0.
         -6    2    1    2    0  502  0.74324952837E+02  0.90167489441E+02  0.94076147947E+03  0.96352448617E+03  0.17231627731E+03 0.  0.
        -24    2    5    5    0    0 -0.23358031334E+02  0.47158195033E+02  0.32892487432E+03  0.34243038203E+03  0.79356793034E+02 0.  0.
          5    1    3    3  501    0 -0.89451945087E+02 -0.17990924032E+02  0.13827981288E+03  0.16573690138E+03  0.47000000000E+01 0. -1.
        -13    1    4    4    0    0  0.35410201531E+02 -0.10199595361E+02  0.67831847544E+02  0.77195036493E+02  0.00000000000E+00 0.  1.
         14    1    4    4    0    0 -0.20283209280E+02 -0.61976970048E+02  0.25172114334E+03  0.26003093547E+03  0.00000000000E+00 0. -1.
         -5    1    5    5    0  502  0.97682984170E+02  0.43009294408E+02  0.61183660515E+03  0.62109410414E+03  0.47000000000E+01 0.  1.
         13    1    6    6    0    0  0.17270853200E+02  0.42998351214E+02  0.24190525634E+03  0.24630325541E+03  0.00000000000E+00 0. -1.
        -14    1    6    6    0    0 -0.40628884534E+02  0.41598438189E+01  0.87019617978E+02  0.96127126619E+02  0.00000000000E+00 0.  1.
</event>
<event>
12    1  0.9017558E-003  0.1947736E+03  0.7818608E-02  0.1154813E+00
         21   -1    0    0  503  502  0.00000000000E+00  0.00000000000E+00  0.10647476389E+04  0.10647476389E+04  0.00000000000E+00 0. -1.
         21   -1    0    0  501  503 -0.00000000000E+00 -0.00000000000E+00 -0.36685451338E+02  0.36685451338E+02  0.00000000000E+00 0. -1.
          6    2    1    2  501    0  0.80233145349E+02  0.39693473931E+02  0.40449496907E+03  0.44894648984E+03  0.17298508969E+03 0.  0.
         24    2    3    3    0    0 -0.10697942328E+02  0.47332557624E+02  0.26339534196E+03  0.28084529093E+03  0.84511267243E+02 0.  0.
         -6    2    1    2    0  502 -0.80233145349E+02 -0.39693473931E+02  0.62356721850E+03  0.65248660040E+03  0.16996987448E+03 0.  0.
        -24    2    5    5    0    0 -0.87400820803E+02  0.29295742715E+02  0.40674775399E+03  0.42479457644E+03  0.80681799551E+02 0.  0.
          5    1    3    3  501    0  0.90931087676E+02 -0.76390836929E+01  0.14109962711E+03  0.16810119891E+03  0.47000000000E+01 0. -1.
        -13    1    4    4    0    0  0.23026959953E+02  0.27845464852E+02  0.39284662573E+02  0.53375045770E+02  0.00000000000E+00 0.  1.
         14    1    4    4    0    0 -0.33724902280E+02  0.19487092772E+02  0.22411067939E+03  0.22747024516E+03  0.00000000000E+00 0. -1.
         -5    1    5    5    0  502  0.71676754547E+01 -0.68989216647E+02  0.21681946451E+03  0.22769202396E+03  0.47000000000E+01 0.  1.
         13    1    6    6    0    0 -0.38762980035E+02 -0.27410907402E+02  0.14336243347E+03  0.15101891867E+03  0.00000000000E+00 0. -1.
        -14    1    6    6    0    0 -0.48637840768E+02  0.56706650117E+02  0.26338532052E+03  0.27377565777E+03  0.00000000000E+00 0.  1.
</event>
<event>
12    1  0.9017558E-003  0.1988435E+03  0.7818608E-02  0.1151116E+00
         21   -1    0    0  503  502  0.00000000000E+00  0.00000000000E+00  0.97792049156E+02  0.97792049156E+02  0.00000000000E+00 0. -1.
         21   -1    0    0  501  503 -0.00000000000E+00 -0.00000000000E+00 -0.40093724700E+03  0.40093724700E+03  0.00000000000E+00 0. -1.
          6    2    1    2  501    0  0.96490562135E+02  0.12047436610E+02 -0.14446509876E+03  0.24578219214E+03  0.17344495353E+03 0.  0.
         24    2    3    3    0    0  0.23812604959E+01 -0.41831088585E+02 -0.67897087016E+02  0.11295069530E+03  0.79952077954E+02 0.  0.
         -6    2    1    2    0  502 -0.96490562135E+02 -0.12047436610E+02 -0.15868009908E+03  0.25294710401E+03  0.17131052003E+03 0.  0.
        -24    2    5    5    0    0 -0.82565296592E+02  0.19380253298E+02 -0.17902395536E+03  0.21272801399E+03  0.77530696669E+02 0.  0.
          5    1    3    3  501    0  0.94109301639E+02  0.53878525195E+02 -0.76568011744E+02  0.13283149685E+03  0.47000000000E+01 0. -1.
        -13    1    4    4    0    0 -0.32346893488E+02 -0.32919441329E+01 -0.46712533844E+02  0.56914139128E+02  0.00000000000E+00 0.  1.
         14    1    4    4    0    0  0.34728153984E+02 -0.38539144452E+02 -0.21184553172E+02  0.56036556170E+02  0.00000000000E+00 0. -1.
         -5    1    5    5    0  502 -0.13925265543E+02 -0.31427689907E+02  0.20343856278E+02  0.40219090015E+02  0.47000000000E+01 0.  1.
         13    1    6    6    0    0 -0.16439934258E+02 -0.19433649037E+02 -0.97682880007E+02  0.10094495133E+03  0.00000000000E+00 0. -1.
        -14    1    6    6    0    0 -0.66125362334E+02  0.38813902334E+02 -0.81341075353E+02  0.11178306266E+03  0.00000000000E+00 0.  1.
</event>
<event>
12    1  0.9017558E-003  0.2275946E+03  0.7818608E-02  0.1129658E+00
         21   -1    0    0  501  502  0.00000000000E+00  0.00000000000E+00  0.65258410647E+02  0.65258410647E+02  0.00000000000E+00 0.  1.
         21   -1    0    0  502  503 -0.00000000000E+00 -0.00000000000E+00 -0.11084811616E+04  0.11084811616E+04  0.00000000000E+00 0.  1.
          6    2    1    2  501    0 -0.74455133473E+02 -0.12661986582E+03 -0.19088166867E+03  0.29153517265E+03  0.16425829700E+03 0.  0.
         24    2    3    3    0    0  0.77290449757E+01 -0.77866894777E+02 -0.53347251921E+02  0.12399742417E+03  0.80040242846E+02 0.  0.
         -6    2    1    2    0  503  0.74455133473E+02  0.12661986582E+03 -0.85234108230E+03  0.88220439962E+03  0.17384799342E+03 0.  0.
        -24    2    5    5    0    0  0.71476475236E+02  0.63274191291E+02 -0.28252654632E+03  0.30885263822E+03  0.80350438492E+02 0.  0.
          5    1    3    3  501    0 -0.82184178449E+02 -0.48752971043E+02 -0.13753441675E+03  0.16753774848E+03  0.47000000000E+01 0. -1.
        -11    1    4    4    0    0 -0.33849609977E+02 -0.54294463113E+02 -0.33775158745E+02  0.72349472483E+02  0.00000000000E+00 0.  1.
         12    1    4    4    0    0  0.41578654952E+02 -0.23572431664E+02 -0.19572093176E+02  0.51647951688E+02  0.00000000000E+00 0. -1.
         -5    1    5    5    0  503  0.29786582376E+01  0.63345674528E+02 -0.56981453598E+03  0.57335176140E+03  0.47000000000E+01 0.  1.
         13    1    6    6    0    0  0.21289439859E+02  0.56013857848E+01 -0.17797206772E+03  0.17932839335E+03  0.00000000000E+00 0. -1.
        -14    1    6    6    0    0  0.50187035377E+02  0.57672805506E+02 -0.10455447860E+03  0.12952424487E+03  0.00000000000E+00 0.  1.
</event>
<event>
12    1  0.9017558E-003  0.1801916E+03  0.7818608E-02  0.1167867E+00
         21   -1    0    0  503  502  0.00000000000E+00  0.00000000000E+00  0.14694437749E+03  0.14694437749E+03  0.00000000000E+00 0. -1.
         21   -1    0    0  501  503 -0.00000000000E+00 -0.00000000000E+00 -0.22148774715E+03  0.22148774715E+03  0.00000000000E+00 0. -1.
          6    2    1    2  501    0 -0.49658643324E+02  0.17002987385E+02 -0.20830570957E+02  0.18139167742E+03  0.17237733469E+03 0.  0.
         24    2    3    3    0    0 -0.19413681688E+02 -0.50929269237E+02 -0.36551555896E+02  0.10524190026E+03  0.82274904013E+02 0.  0.
         -6    2    1    2    0  502  0.49658643324E+02 -0.17002987385E+02 -0.53712798698E+02  0.18704044722E+03  0.17130085148E+03 0.  0.
        -24    2    5    5    0    0  0.54664074173E+02  0.40603185751E+02 -0.25976712992E+02  0.12273721269E+03  0.98756539337E+02 0.  0.
          5    1    3    3  501    0 -0.30244961636E+02  0.67932256622E+02  0.15720984939E+02  0.76149777161E+02  0.47000000000E+01 0. -1.
        -13    1    4    4    0    0  0.16170960816E+02  0.13899478698E+02  0.27402892465E+01  0.21498945717E+02  0.00000000000E+00 0.  1.
         14    1    4    4    0    0 -0.35584642504E+02 -0.64828747935E+02 -0.39291845142E+02  0.83742954543E+02  0.00000000000E+00 0. -1.
         -5    1    5    5    0  502 -0.50054308490E+01 -0.57606173137E+02 -0.27736085707E+02  0.64303234536E+02  0.47000000000E+01 0.  1.
         13    1    6    6    0    0 -0.20918972511E+02  0.36030397711E+02 -0.21501140671E+02  0.46883814054E+02  0.00000000000E+00 0. -1.
        -14    1    6    6    0    0  0.75583046683E+02  0.45727880404E+01 -0.44755723204E+01  0.75853398632E+02  0.00000000000E+00 0.  1.
</event>
<event>
12    1  0.9017558E-003  0.1776964E+03  0.7818608E-02  0.1170217E+00
         21   -1    0    0  501  502  0.00000000000E+00  0.00000000000E+00  0.11537531642E+04  0.11537531642E+04  0.00000000000E+00 0.  1.
         21   -1    0    0  502  503 -0.00000000000E+00 -0.00000000000E+00 -0.27421911709E+02  0.27421911709E+02  0.00000000000E+00 0.  1.
          6    2    1    2  501    0  0.10252060206E+02 -0.39691808565E+02  0.60896372331E+03  0.63436016944E+03  0.17290304757E+03 0.  0.
         24    2    3    3    0    0 -0.35145427192E+02 -0.63870444558E+02  0.54189024142E+03  0.54970510300E+03  0.56710067723E+02 0.  0.
         -6    2    1    2    0  503 -0.10252060206E+02  0.39691808565E+02  0.51736752913E+03  0.54681490642E+03  0.17221160611E+03 0.  0.
        -24    2    5    5    0    0 -0.56791230091E+02  0.58811692937E+02  0.23721879775E+03  0.26214515740E+03  0.75916180760E+02 0.  0.
          5    1    3    3  501    0  0.45397487398E+02  0.24178635994E+02  0.67073481891E+02  0.84655066437E+02  0.47000000000E+01 0. -1.
        -13    1    4    4    0    0  0.15233998201E+02 -0.19773722252E+02  0.12428247204E+03  0.12676437847E+03  0.00000000000E+00 0.  1.
         14    1    4    4    0    0 -0.50379425393E+02 -0.44096722307E+02  0.41760776938E+03  0.42294072453E+03  0.00000000000E+00 0. -1.
         -5    1    5    5    0  503  0.46539169885E+02 -0.19119884373E+02  0.28014873138E+03  0.28466974902E+03  0.47000000000E+01 0.  1.
         11    1    6    6    0    0 -0.39693156600E+02 -0.97765890006E+01  0.87407743294E+02  0.96494776859E+02  0.00000000000E+00 0. -1.
        -12    1    6    6    0    0 -0.17098073491E+02  0.68588281938E+02  0.14981105445E+03  0.16565038054E+03  0.00000000000E+00 0.  1.
</event>
<event>
12    1  0.9017558E-003  0.1829199E+03  0.7818608E-02  0.1165612E+00
         21   -1    0    0  503  502  0.00000000000E+00  0.00000000000E+00  0.31855357362E+03  0.31855357362E+03  0.00000000000E+00 0. -1.
         21   -1    0    0  501  503 -0.00000000000E+00 -0.00000000000E+00 -0.10374133497E+03  0.10374133497E+03  0.00000000000E+00 0. -1.
          6    2    1    2  501    0  0.44430849112E+02 -0.34231524754E+02  0.98483878465E+02  0.20551855397E+03  0.17144358859E+03 0.  0.
         24    2    3    3    0    0  0.73884473470E+02 -0.25399438410E+02  0.12355316674E+03  0.16556757211E+03  0.77737951035E+02 0.  0.
         -6    2    1    2    0  502 -0.44430849112E+02  0.34231524754E+02  0.11632836019E+03  0.21677635462E+03  0.17410859513E+03 0.  0.
        -24    2    5    5    0    0 -0.25797244467E+02 -0.43476673526E+02  0.32604467534E+02  0.10094218219E+03  0.81058953106E+02 0.  0.
          5    1    3    3  501    0 -0.29453624357E+02 -0.88320863437E+01 -0.25069288276E+02  0.39950981860E+02  0.47000000000E+01 0. -1.
        -11    1    4    4    0    0  0.30746188543E+02 -0.26116914570E+02  0.11461487659E+03  0.12150716551E+03  0.00000000000E+00 0.  1.
         12    1    4    4    0    0  0.43138284927E+02  0.71747615967E+00  0.89382901553E+01  0.44060406596E+02  0.00000000000E+00 0. -1.
         -5    1    5    5    0  502 -0.18633604646E+02  0.77708198279E+02  0.83723892652E+02  0.11583417243E+03  0.47000000000E+01 0.  1.
         11    1    6    6    0    0  0.15234171842E+02 -0.21551522421E+02  0.45557992910E+02  0.52650534929E+02  0.00000000000E+00 0. -1.
        -12    1    6    6    0    0 -0.41031416309E+02 -0.21925151104E+02 -0.12953525375E+02  0.48291647258E+02  0.00000000000E+00 0.  1.
</event>
<event>
12    1  0.9017558E-003  0.2494574E+03  0.7818608E-02  0.1113966E+00
         21   -1    0    0  503  502  0.00000000000E+00  0.00000000000E+00  0.47453382620E+02  0.47453382620E+02  0.00000000000E+00 0. -1.
         21   -1    0    0  501  503 -0.00000000000E+00 -0.00000000000E+00 -0.14097144239E+04  0.14097144239E+04  0.00000000000E+00 0.  1.
          6    2    1    2  501    0  0.16762643503E+03  0.68346335814E+02 -0.88608664036E+03  0.92053166475E+03  0.17163673338E+03 0.  0.
         24    2    3    3    0    0  0.51033400301E+02  0.50632129081E+01 -0.58202747169E+03  0.58875951787E+03  0.72468945157E+02 0.  0.
         -6    2    1    2    0  502 -0.16762643503E+03 -0.68346335814E+02 -0.47617440090E+03  0.53663614175E+03  0.16872002020E+03 0.  0.
        -24    2    5    5    0    0 -0.41450975480E+02 -0.67805282060E+02 -0.15682156616E+03  0.19322842141E+03  0.80177799817E+02 0.  0.
          5    1    3    3  501    0  0.11659303473E+03  0.63283122906E+02 -0.30405916867E+03  0.33177214688E+03  0.47000000000E+01 0. -1.
        -11    1    4    4    0    0  0.64463217455E+02 -0.12909755852E+02 -0.46183701817E+03  0.46649287193E+03  0.00000000000E+00 0.  1.
         12    1    4    4    0    0 -0.13429817154E+02  0.17972968760E+02 -0.12019045352E+03  0.12226664595E+03  0.00000000000E+00 0. -1.
         -5    1    5    5    0  502 -0.12617545955E+03 -0.54105375379E+00 -0.31935283474E+03  0.34340772034E+03  0.47000000000E+01 0.  1.
         11    1    6    6    0    0  0.16095459854E+02 -0.12898489617E+02 -0.40907592468E+01  0.21027819039E+02  0.00000000000E+00 0. -1.
        -12    1    6    6    0    0 -0.57546435334E+02 -0.54906792443E+02 -0.15273080691E+03  0.17220060237E+03  0.00000000000E+00 0.  1.
</event>
<event>
12    1  0.9017558E-003  0.1725992E+03  0.7818608E-02  0.1175199E+00
         21   -1    0    0  503  502  0.00000000000E+00  0.00000000000E+00  0.44382186319E+03  0.44382186319E+03  0.00000000000E+00 0. -1.
         21   -1    0    0  501  503 -0.00000000000E+00 -0.00000000000E+00 -0.97962584045E+02  0.97962584045E+02  0.00000000000E+00 0. -1.
          6    2    1    2  501    0  0.36647255569E+00  0.91636827587E+01  0.20852546970E+02  0.17385429866E+03  0.17235539174E+03 0.  0.
         24    2    3    3    0    0  0.43446285429E+02  0.18523277010E+02  0.51940135704E+02  0.11970634897E+03  0.96959480086E+02 0.  0.
         -6    2    1    2    0  502 -0.36647255569E+00 -0.91636827587E+01  0.32500673217E+03  0.36793014857E+03  0.17221820719E+03 0.  0.
        -24    2    5    5    0    0  0.36269366675E+02 -0.22585903315E+02  0.31373814391E+03  0.32704724503E+03  0.81869942912E+02 0.  0.
          5    1    3    3  501    0 -0.43079812874E+02 -0.93595942517E+01 -0.31087588734E+02  0.54147949685E+02  0.47000000000E+01 0. -1.
        -13    1    4    4    0    0  0.36692882075E+02 -0.33169546044E+02  0.52824640962E+01  0.49744254006E+02  0.00000000000E+00 0.  1.
         14    1    4    4    0    0  0.67534033548E+01  0.51692823054E+02  0.46657671607E+02  0.69962094966E+02  0.00000000000E+00 0. -1.
         -5    1    5    5    0  502 -0.36635839230E+02  0.13422220556E+02  0.11268588267E+02  0.40882903545E+02  0.47000000000E+01 0.  1.
         13    1    6    6    0    0 -0.14977477094E+02  0.20037974165E+02  0.10427971467E+03  0.10723853841E+03  0.00000000000E+00 0. -1.
        -14    1    6    6    0    0  0.51246843768E+02 -0.42623877480E+02  0.20945842923E+03  0.21980870662E+03  0.00000000000E+00 0.  1.
</event>
<event>
12    1  0.9017558E-003  0.1773207E+03  0.7818608E-02  0.1170928E+00
         21   -1    0    0  501  502  0.00000000000E+00  0.00000000000E+00  0.16689206915E+03  0.16689206915E+03  0.00000000000E+00 0. -1.
         21   -1    0    0  502  503 -0.00000000000E+00 -0.00000000000E+00 -0.27087226699E+03  0.27087226699E+03  0.00000000000E+00 0. -1.
          6    2    1    2  501    0 -0.23168941622E+02  0.40003820539E+02  0.70563985512E+02  0.18895051245E+03  0.16907369573E+03 0.  0.
         24    2    3    3    0    0 -0.61356316914E+02  0.48538521006E+02  0.29734579915E+01  0.11070930748E+03  0.78275945626E+02 0.  0.
         -6    2    1    2    0  503  0.23168941622E+02 -0.40003820539E+02 -0.17454418336E+03  0.24881382370E+03  0.17118861354E+03 0.  0.
        -24    2    5    5    0    0 -0.46489689715E+01 -0.53322105335E+02 -0.19104159418E+03  0.21352264316E+03  0.78931417113E+02 0.  0.
          5    1    3    3  501    0  0.38187375292E+02 -0.85347004667E+01  0.67590527521E+02  0.78241204965E+02  0.47000000000E+01 0. -1.
        -11    1    4    4    0    0 -0.46787716246E+02  0.86037982704E+01 -0.30580278511E+02  0.56553241905E+02  0.00000000000E+00 0.  1.
         12    1    4    4    0    0 -0.14568600669E+02  0.39934722736E+02  0.33553736502E+02  0.54156065576E+02  0.00000000000E+00 0. -1.
         -5    1    5    5    0  503  0.27817910593E+02  0.13318284796E+02  0.16497410821E+02  0.35291180534E+02  0.47000000000E+01 0.  1.
         13    1    6    6    0    0 -0.41079013216E+02 -0.23215921285E+02 -0.11025764042E+03  0.11993002793E+03  0.00000000000E+00 0. -1.
        -14    1    6    6    0    0  0.36430044245E+02 -0.30106184050E+02 -0.80783953758E+02  0.93592615235E+02  0.00000000000E+00 0.  1.
</event>
<event>
12    1  0.9017558E-003  0.2143665E+03  0.7818608E-02  0.1138348E+00
         21   -1    0    0  501  502  0.00000000000E+00  0.00000000000E+00  0.93359984986E+03  0.93359984986E+03  0.00000000000E+00 0.  1.
         21   -1    0    0  502  503 -0.00000000000E+00 -0.00000000000E+00 -0.50513868296E+02  0.50513868296E+02  0.00000000000E+00 0.  1.
          6    2    1    2  501    0 -0.11880174921E+03  0.46452337411E+02  0.52597995565E+03  0.56760718076E+03  0.17103018047E+03 0.  0.
         24    2    3    3    0    0 -0.76168852332E+02 -0.39195261505E+02  0.29474236600E+03  0.31731537513E+03  0.80486162713E+02 0.  0.
         -6    2    1    2    0  503  0.11880174921E+03 -0.46452337411E+02  0.35710602592E+03  0.41650653740E+03  0.17228263605E+03 0.  0.
        -24    2    5    5    0    0  0.45871369067E+02 -0.13566081975E+02  0.66691411825E+02  0.11523741482E+03  0.80893116408E+02 0.  0.
          5    1    3    3  501    0 -0.42632896883E+02  0.85647598916E+02  0.23123758965E+03  0.25029180563E+03  0.47000000000E+01 0. -1.
        -13    1    4    4    0    0 -0.75573194333E+02 -0.13551297562E+01  0.23242666220E+03  0.24440805506E+03  0.00000000000E+00 0.  1.
         14    1    4    4    0    0 -0.59565799972E+00 -0.37840131749E+02  0.62315703802E+02  0.72907320068E+02  0.00000000000E+00 0. -1.
         -5    1    5    5    0  503  0.72930380148E+02 -0.32886255437E+02  0.29041461409E+03  0.30126912259E+03  0.47000000000E+01 0.  1.
         11    1    6    6    0    0  0.18815145487E+02  0.19181004290E+02  0.67605682015E+02  0.72749219006E+02  0.00000000000E+00 0. -1.
        -12    1    6    6    0    0  0.27056223580E+02 -0.32747086265E+02 -0.91427019021E+00  0.42488195810E+02  0.00000000000E+00 0.  1.
</event>
<event>
12    1  0.9017558E-003  0.1770114E+03  0.7818608E-02  0.1172444E+00
         21   -1    0    0  501  502  0.00000000000E+00  0.00000000000E+00  0.10767331354E+03  0.10767331354E+03  0.00000000000E+00 0. -1.
         21   -1    0    0  502  503 -0.00000000000E+00 -0.00000000000E+00 -0.33600877975E+03  0.33600877975E+03  0.00000000000E+00 0. -1.
          6    2    1    2  501    0 -0.21257994733E+01 -0.24067286200E+02 -0.21696383368E+02  0.17159252437E+03  0.16849186354E+03 0.  0.
         24    2    3    3    0    0 -0.87028377126E+01 -0.37931783745E+02  0.47185549612E+02  0.10086563829E+03  0.80204995435E+02 0.  0.
         -6    2    1    2    0  503  0.21257994733E+01  0.24067286200E+02 -0.20663908284E+03  0.27208956892E+03  0.17535469674E+03 0.  0.
        -24    2    5    5    0    0 -0.13365690147E+02  0.22680652987E+00 -0.22414163357E+03  0.23837334131E+03  0.80023026907E+02 0.  0.
          5    1    3    3  501    0  0.65770382393E+01  0.13864497545E+02 -0.68881932980E+02  0.70726886085E+02  0.47000000000E+01 0. -1.
        -13    1    4    4    0    0 -0.40965961542E+02 -0.26954902723E+02  0.45258897290E+02  0.66731885705E+02  0.00000000000E+00 0.  1.
         14    1    4    4    0    0  0.32263123829E+02 -0.10976881022E+02  0.19266523218E+01  0.34133752583E+02  0.00000000000E+00 0. -1.
         -5    1    5    5    0  503  0.15491489620E+02  0.23840479670E+02  0.17502550731E+02  0.33716227601E+02  0.47000000000E+01 0.  1.
         13    1    6    6    0    0 -0.18141926764E+02  0.11730769845E+02 -0.98906605222E+01  0.23760589922E+02  0.00000000000E+00 0. -1.
        -14    1    6    6    0    0  0.47762366168E+01 -0.11503963315E+02 -0.21425097305E+03  0.21461275139E+03  0.00000000000E+00 0.  1.
</event>
<event>
12    1  0.9017558E-003  0.2430111E+03  0.7818608E-02  0.1117997E+00
         21   -1    0    0  503  502  0.00000000000E+00  0.00000000000E+00  0.93165551814E+03  0.93165551814E+03  0.00000000000E+00 0. -1.
         21   -1    0    0  501  503 -0.00000000000E+00 -0.00000000000E+00 -0.64206202905E+02  0.64206202905E+02  0.00000000000E+00 0.  1.
          6    2    1    2  501    0  0.11536698116E+02 -0.17121099821E+03  0.49865257520E+03  0.55419958362E+03  0.17040095781E+03 0.  0.
         24    2    3    3    0    0  0.46474526459E+02 -0.17173460966E+03  0.47270234669E+03  0.51042253052E+03  0.73695273480E+02 0.  0.
         -6    2    1    2    0  502 -0.11536698116E+02  0.17121099821E+03  0.36879674004E+03  0.44166213742E+03  0.17207006382E+03 0.  0.
        -24    2    5    5    0    0  0.30325198332E+02  0.17155441003E+03  0.28823981947E+03  0.35075535133E+03  0.97962185090E+02 0.  0.
          5    1    3    3  501    0 -0.34937828343E+02  0.52361145664E+00  0.25950228512E+02  0.43777053100E+02  0.47000000000E+01 0. -1.
        -13    1    4    4    0    0  0.22413050554E+02 -0.12708658099E+02  0.30770292982E+02  0.40133100503E+02  0.00000000000E+00 0.  1.
         14    1    4    4    0    0  0.24061475905E+02 -0.15902595157E+03  0.44193205371E+03  0.47028943002E+03  0.00000000000E+00 0. -1.
         -5    1    5    5    0  502 -0.41861896448E+02 -0.34341182166E+00  0.80556920566E+02  0.90906786089E+02  0.47000000000E+01 0.  1.
         13    1    6    6    0    0  0.46754022625E+02  0.27677689193E+02  0.92410581555E+02  0.10719938756E+03  0.00000000000E+00 0. -1.
        -14    1    6    6    0    0 -0.16428824293E+02  0.14387672084E+03  0.19582923791E+03  0.24355596377E+03  0.00000000000E+00 0.  1.
</event>
<event>
12    1  0.9017558E-003  0.1951266E+03  0.7818608E-02  0.1154994E+00
         21   -1    0    0  503  502  0.00000000000E+00  0.00000000000E+00  0.74910965209E+03  0.74910965209E+03  0.00000000000E+00 0.  1.
         21   -1    0    0  501  503 -0.00000000000E+00 -0.00000000000E+00 -0.64255547565E+02  0.64255547565E+02  0.00000000000E+00 0.  1.
          6    2    1    2  501    0  0.38278938683E+02  0.73632434817E+02  0.15131783274E+03  0.24692403625E+03  0.17659949198E+03 0.  0.
         24    2    3    3    0    0  0.24470941337E+02  0.94747402580E+02  0.17255207822E+03  0.21361509098E+03  0.79254590606E+02 0.  0.
         -6    2    1    2    0  502 -0.38278938683E+02 -0.73632434817E+02  0.53353627178E+03  0.56644116340E+03  0.17119470110E+03 0.  0.
        -24    2    5    5    0    0 -0.13187836058E+01  0.95146297729E+01  0.14017443484E+03  0.16266509653E+03  0.81968250426E+02 0.  0.
          5    1    3    3  501    0  0.13807997346E+02 -0.21114967763E+02 -0.21234245473E+02  0.33308945272E+02  0.47000000000E+01 0. -1.
        -11    1    4    4    0    0  0.40178426597E+02  0.47147449192E+02  0.44992189462E+02  0.76560335957E+02  0.00000000000E+00 0.  1.
         12    1    4    4    0    0 -0.15707485260E+02  0.47599953387E+02  0.12755988875E+03  0.13705475502E+03  0.00000000000E+00 0. -1.
         -5    1    5    5    0  502 -0.36960155077E+02 -0.83147064589E+02  0.39336183694E+03  0.40377606687E+03  0.47000000000E+01 0.  1.
         13    1    6    6    0    0 -0.38399987025E+02  0.17444736137E+02  0.93171734584E+02  0.10227340782E+03  0.00000000000E+00 0. -1.
        -14    1    6    6    0    0  0.37081203419E+02 -0.79301063644E+01  0.47002700256E+02  0.60391688710E+02  0.00000000000E+00 0.  1.
</event>
<event>
12    1  0.9017558E-003  0.2042302E+03  0.7818608E-02  0.1146385E+00
         21   -1    0    0  501  502  0.00000000000E+00  0.00000000000E+00  0.49310663377E+02  0.49310663377E+02  0.00000000000E+00 0.  1.
         21   -1    0    0  502  503 -0.00000000000E+00 -0.00000000000E+00 -0.91535854767E+03  0.91535854767E+03  0.00000000000E+00 0. -1.
          6    2    1    2  501    0  0.93547060663E+01  0.10733454797E+03 -0.29773955254E+03  0.36105239408E+03  0.17349862940E+03 0.  0.
         24    2    3    3    0    0 -0.34630183066E+02  0.97942274669E+02 -0.12124560397E+03  0.17885719888E+03  0.80606838183E+02 0.  0.
         -6    2    1    2    0  503 -0.93547060663E+01 -0.10733454797E+03 -0.56830833175E+03  0.60361681697E+03  0.17254183863E+03 0.  0.
        -24    2    5    5    0    0 -0.72919189784E+02 -0.62058517012E+02 -0.35775999488E+03  0.37902150373E+03  0.80601604096E+02 0.  0.
          5    1    3    3  501    0  0.43984889132E+02  0.93922733040E+01 -0.17649394858E+03  0.18219519520E+03  0.47000000000E+01 0. -1.
        -13    1    4    4    0    0 -0.37322147035E+02  0.52474130866E+02 -0.11643665614E+03  0.13305627366E+03  0.00000000000E+00 0.  1.
         14    1    4    4    0    0  0.26919639689E+01  0.45468143803E+02 -0.48089478299E+01  0.45800925211E+02  0.00000000000E+00 0. -1.
         -5    1    5    5    0  503  0.63564483717E+02 -0.45276030962E+02 -0.21054833687E+03  0.22459531324E+03  0.47000000000E+01 0.  1.
         13    1    6    6    0    0  0.50143582799E+01 -0.38718990625E+02 -0.16945243355E+03  0.17389201034E+03  0.00000000000E+00 0. -1.
        -14    1    6    6    0    0 -0.77933548063E+02 -0.23339526387E+02 -0.18830756134E+03  0.20512949340E+03  0.00000000000E+00 0.  1.
</event>
<event>
12    1  0.9017558E-003  0.2123324E+03  0.7818608E-02  0.1141041E+00
         21   -1    0    0  501  502  0.00000000000E+00  0.00000000000E+00  0.20674300924E+03  0.20674300924E+03  0.00000000000E+00 0.  1.
         21   -1    0    0  502  503 -0.00000000000E+00 -0.00000000000E+00 -0.26775425761E+03  0.26775425761E+03  0.00000000000E+00 0. -1.
          6    2    1    2  501    0  0.11400926113E+03 -0.36072432736E+01  0.77991097532E+02  0.22620270904E+03  0.17909196089E+03 0.  0.
         24    2    3    3    0    0  0.23307175096E+02  0.52349600325E+02  0.72204243755E+01  0.98184683219E+02  0.79400204190E+02 0.  0.
         -6    2    1    2    0  503 -0.11400926113E+03  0.36072432736E+01 -0.13900234590E+03  0.24829455781E+03  0.17122327952E+03 0.  0.
        -24    2    5    5    0    0  0.15094820100E+02  0.71569291280E+01 -0.63978575881E+02  0.98858551018E+02  0.73489316975E+02 0.  0.
          5    1    3    3  501    0  0.90702086032E+02 -0.55956843598E+02  0.70770673157E+02  0.12801802582E+03  0.47000000000E+01 0. -1.
        -11    1    4    4    0    0  0.42679492034E+01 -0.17752903955E+02  0.16926034197E+02  0.24897221188E+02  0.00000000000E+00 0.  1.
         12    1    4    4    0    0  0.19039225893E+02  0.70102504280E+02 -0.97056098219E+01  0.73287462031E+02  0.00000000000E+00 0. -1.
         -5    1    5    5    0  503 -0.12910408123E+03 -0.35496858545E+01 -0.75023770016E+02  0.14943600679E+03  0.47000000000E+01 0.  1.
         13    1    6    6    0    0 -0.24777588537E+02  0.11790836623E+02 -0.48719155458E+02  0.55915193199E+02  0.00000000000E+00 0. -1.
        -14    1    6    6    0    0  0.39872408636E+02 -0.46339074952E+01 -0.15259420423E+02  0.42943357819E+02  0.00000000000E+00 0.  1.
</event>
<event>
12    1  0.9017558E-003  0.2029121E+03  0.7818608E-02  0.1147554E+00
         21   -1    0    0  501  502  0.00000000000E+00  0.00000000000E+00  0.13062384236E+04  0.13062384236E+04  0.00000000000E+00 0. -1.
         21   -1    0    0  502  503 -0.00000000000E+00 -0.00000000000E+00 -0.42690634706E+02  0.42690634706E+02  0.00000000000E+00 0. -1.
          6    2    1    2  501    0  0.43350208924E+02 -0.96657285196E+02  0.98100883864E+03  0.10017742662E+04  0.17306492264E+03 0.  0.
         24    2    3    3    0    0  0.78652400815E+02 -0.82565836028E+02  0.49633639323E+03  0.51559088200E+03  0.80503570864E+02 0.  0.
         -6    2    1    2    0  503 -0.43350208924E+02  0.96657285196E+02  0.28253895024E+03  0.34715479214E+03  0.17165756583E+03 0.  0.
        -24    2    5    5    0    0 -0.46437676638E+02  0.12119571101E+03  0.13344464548E+03  0.19595006830E+03  0.61189032364E+02 0.  0.
          5    1    3    3  501    0 -0.35302191891E+02 -0.14091449168E+02  0.48467244540E+03  0.48618338415E+03  0.47000000000E+01 0. -1.
        -13    1    4    4    0    0  0.78482674650E+02 -0.26689666253E+02  0.32317622505E+03  0.33363863827E+03  0.00000000000E+00 0.  1.
         14    1    4    4    0    0  0.16972616481E+00 -0.55876169776E+02  0.17316016818E+03  0.18195224373E+03  0.00000000000E+00 0. -1.
         -5    1    5    5    0  503  0.30874677145E+01 -0.24538425810E+02  0.14909430476E+03  0.15120472384E+03  0.47000000000E+01 0.  1.
         13    1    6    6    0    0 -0.16892573313E+02  0.23817234202E+02  0.13869197210E+01  0.29232571295E+02  0.00000000000E+00 0. -1.
        -14    1    6    6    0    0 -0.29545103325E+02  0.97378476804E+02  0.13205772576E+03  0.16671749700E+03  0.00000000000E+00 0.  1.
</event>
<event>
12    1  0.9017558E-003  0.1750569E+03  0.7818608E-02  0.1172931E+00
         21   -1    0    0  503  502  0.00000000000E+00  0.00000000000E+00  0.12885085163E+03  0.12885085163E+03  0.00000000000E+00 0.  1.
         21   -1    0    0  501  503 -0.00000000000E+00 -0.00000000000E+00 -0.23666004531E+03  0.23666004531E+03  0.00000000000E+00 0.  1.
          6    2    1    2  501    0  0.21006390144E+02  0.99813812449E+01 -0.59500989762E+02  0.18489266496E+03  0.17350513934E+03 0.  0.
         24    2    3    3    0    0  0.60558182308E+02 -0.74478511556E+01 -0.87631172225E+02  0.13310927408E+03  0.79473848341E+02 0.  0.
         -6    2    1    2    0  502 -0.21006390144E+02 -0.99813812449E+01 -0.48308203912E+02  0.18061823198E+03  0.17247714851E+03 0.  0.
        -24    2    5    5    0    0  0.40262153738E+02  0.18278648052E+01 -0.73551510685E+02  0.11314522035E+03  0.75944940911E+02 0.  0.
          5    1    3    3  501    0 -0.39551792165E+02  0.17429232401E+02  0.28130182463E+02  0.51783390879E+02  0.47000000000E+01 0. -1.
        -13    1    4    4    0    0 -0.28719810679E+01 -0.17478326792E+02  0.67475277333E+01  0.18954400893E+02  0.00000000000E+00 0.  1.
         14    1    4    4    0    0  0.63430163376E+02  0.10030475636E+02 -0.94378699958E+02  0.11415487319E+03  0.00000000000E+00 0. -1.
         -5    1    5    5    0  502 -0.61268543882E+02 -0.11809246050E+02  0.25243306773E+02  0.67473011630E+02  0.47000000000E+01 0.  1.
         13    1    6    6    0    0  0.41806134593E+02 -0.30173697272E-01 -0.23175786969E+01  0.41870335216E+02  0.00000000000E+00 0. -1.
        -14    1    6    6    0    0 -0.15439808550E+01  0.18580385025E+01 -0.71233931988E+02  0.71274885131E+02  0.00000000000E+00 0.  1.
</event>
<event>
12    1  0.9017558E-003  0.1788732E+03  0.7818608E-02  0.1168930E+00
         21   -1    0    0  501  502  0.00000000000E+00  0.00000000000E+00  0.14236018684E+03  0.14236018684E+03  0.00000000000E+00 0.  1.
         21   -1    0    0  502  503 -0.00000000000E+00 -0.00000000000E+00 -0.35627976236E+03  0.35627976236E+03  0.00000000000E+00 0.  1.
          6    2    1    2  501    0  0.36232252870E+02 -0.27238742932E+02  0.44596914459E+02  0.18434884983E+03  0.17303435610E+03 0.  0.
         24    2    3    3    0    0  0.70721267039E+02 -0.50984224984E+01  0.70764205097E+02  0.13549700251E+03  0.91238004379E+02 0.  0.
         -6    2    1    2    0  503 -0.36232252870E+02  0.27238742932E+02 -0.25851648998E+03  0.31429109938E+03  0.17289706270E+03 0.  0.
        -24    2    5    5    0    0 -0.46166712152E+02 -0.46895329374E+02 -0.14315582147E+03  0.17672392307E+03  0.80045103139E+02 0.  0.
          5    1    3    3  501    0 -0.34489014168E+02 -0.22140320434E+02 -0.26167290638E+02  0.48851847320E+02  0.47000000000E+01 0. -1.
        -13    1    4    4    0    0  0.69972687413E+02 -0.25341584924E+02  0.14663531583E+02  0.75851117782E+02  0.00000000000E+00 0.  1.
         14    1    4    4    0    0  0.74857962555E+00  0.20243162426E+02  0.56100673514E+02  0.59645884729E+02  0.00000000000E+00 0. -1.
         -5    1    5    5    0  503  0.99344592818E+01  0.74134072307E+02 -0.11536066851E+03  0.13756717631E+03  0.47000000000E+01 0.  1.
         13    1    6    6    0    0 -0.39588030577E+02  0.23485277434E-01 -0.19151719783E+02  0.43977279215E+02  0.00000000000E+00 0. -1.
        -14    1    6    6    0    0 -0.65786815749E+01 -0.46918814652E+02 -0.12400410168E+03  0.13274664385E+03  0.00000000000E+00 0.  1.
</event>
<event>
12    1  0.9017558E-003  0.2084565E+03  0.7818608E-02  0.1142863E+00
         21   -1    0    0  503  502  0.00000000000E+00  0.00000000000E+00  0.29919445199E+03  0.29919445199E+03  0.00000000000E+00 0.  1.
         21   -1    0    0  501  503 -0.00000000000E+00 -0.00000000000E+00 -0.14636870247E+03  0.14636870247E+03  0.00000000000E+00 0. -1.
          6    2    1    2  501    0  0.11624311624E+03  0.95549035013E+01  0.97920219265E+02  0.22999706788E+03  0.17235580535E+03 0.  0.
         24    2    3    3    0    0  0.11712307992E+03 -0.36120738301E+02  0.10957169229E+03  0.18261684612E+03  0.79501151885E+02 0.  0.
         -6    2    1    2    0  502 -0.11624311624E+03 -0.95549035013E+01  0.54905530252E+02  0.21556608658E+03  0.17277257356E+03 0.  0.
        -24    2    5    5    0    0 -0.12733654899E+03  0.38976952986E+02  0.56925760879E+02  0.16552034075E+03  0.80141383680E+02 0.  0.
          5    1    3    3  501    0 -0.87996367878E+00  0.45675641803E+02 -0.11651473023E+02  0.47380221757E+02  0.47000000000E+01 0. -1.
        -13    1    4    4    0    0  0.31581238390E+01 -0.14342103196E+02  0.50155221457E+02  0.52261036247E+02  0.00000000000E+00 0.  1.
         14    1    4    4    0    0  0.11396495608E+03 -0.21778635106E+02  0.59416470831E+02  0.13035580988E+03  0.00000000000E+00 0. -1.
         -5    1    5    5    0  502  0.11093432741E+02 -0.48531856487E+02 -0.20202306270E+01  0.50045745832E+02  0.47000000000E+01 0.  1.
         13    1    6    6    0    0 -0.96684473324E+00  0.21326795107E+02 -0.74407298188E+01  0.22608216172E+02  0.00000000000E+00 0. -1.
        -14    1    6    6    0    0 -0.12636970425E+03  0.17650157880E+02  0.64366490698E+02  0.14291212458E+03  0.00000000000E+00 0.  1.
</event>
<event>
12    1  0.9017558E-003  0.1815139E+03  0.7818608E-02  0.1166820E+00
         21   -1    0    0  503  502  0.00000000000E+00  0.00000000000E+00  0.31599325584E+02  0.31599325584E+02  0.00000000000E+00 0. -1.
         21   -1    0    0  501  503 -0.00000000000E+00 -0.00000000000E+00 -0.10792847653E+04  0.10792847653E+04  0.00000000000E+00 0. -1.
          6    2    1    2  501    0 -0.48291391629E+02 -0.59385645698E+01 -0.64358394935E+03  0.66869095928E+03  0.17487130726E+03 0.  0.
         24    2    3    3    0    0  0.21983759587E+02 -0.52351871619E+02 -0.35919694827E+03  0.37205844532E+03  0.78619558280E+02 0.  0.
         -6    2    1    2    0  502  0.48291391629E+02  0.59385645698E+01 -0.40410149033E+03  0.44219313157E+03  0.17282773524E+03 0.  0.
        -24    2    5    5    0    0  0.78308309898E+02  0.25825747602E+02 -0.38429888873E+03  0.40083193646E+03  0.78622164590E+02 0.  0.
          5    1    3    3  501    0 -0.70275151215E+02  0.46413307049E+02 -0.28438700109E+03  0.29663251396E+03  0.47000000000E+01 0. -1.
        -13    1    4    4    0    0 -0.47467559273E+01  0.17732767441E+02 -0.37761668637E+02  0.41987216521E+02  0.00000000000E+00 0.  1.
         14    1    4    4    0    0  0.26730515514E+02 -0.70084639060E+02 -0.32143527963E+03  0.33007122880E+03  0.00000000000E+00 0. -1.
         -5    1    5    5    0  502 -0.30016918269E+02 -0.19887183032E+02 -0.19802601598E+02  0.41361195115E+02  0.47000000000E+01 0.  1.
         11    1    6    6    0    0  0.51131366982E+02 -0.13489869403E+02 -0.10599537743E+03  0.11845426671E+03  0.00000000000E+00 0. -1.
        -12    1    6    6    0    0  0.27176942916E+02  0.39315617005E+02 -0.27830351131E+03  0.28237766975E+03  0.00000000000E+00 0.  1.
</event>
<event>
12    1  0.9017558E-003  0.2384195E+03  0.7818608E-02  0.1120920E+00
         21   -1    0    0  501  502  0.00000000000E+00  0.00000000000E+00  0.21631093114E+03  0.21631093114E+03  0.00000000000E+00 0. -1.
         21   -1    0    0  502  503 -0.00000000000E+00 -0.00000000000E+00 -0.28921728115E+03  0.28921728115E+03  0.00000000000E+00 0. -1.
          6    2    1    2  501    0 -0.10069535157E+03  0.13004975678E+03  0.40643886115E+02  0.24144960521E+03  0.17202759462E+03 0.  0.
         24    2    3    3    0    0 -0.11057672792E+03  0.37872533629E+02  0.68029440310E+01  0.14264888949E+03  0.81491619595E+02 0.  0.
         -6    2    1    2    0  503  0.10069535157E+03 -0.13004975678E+03 -0.11355023612E+03  0.26407860708E+03  0.17260174255E+03 0.  0.
        -24    2    5    5    0    0  0.91382188772E+02 -0.51389068857E+02 -0.66472411816E+01  0.13094491806E+03  0.78171893466E+02 0.  0.
          5    1    3    3  501    0  0.98813763487E+01  0.92177223150E+02  0.33840942084E+02  0.98800715723E+02  0.47000000000E+01 0. -1.
        -11    1    4    4    0    0 -0.50921120294E+01 -0.13954608199E+02 -0.17165763411E+02  0.22700751714E+02  0.00000000000E+00 0.  1.
         12    1    4    4    0    0 -0.10548461589E+03  0.51827141828E+02  0.23968707441E+02  0.11994813777E+03  0.00000000000E+00 0. -1.
         -5    1    5    5    0  503  0.93131627972E+01 -0.78660687923E+02 -0.10690299494E+03  0.13313368902E+03  0.47000000000E+01 0.  1.
         13    1    6    6    0    0  0.80735520844E+02 -0.31013903129E+01 -0.98530476308E+01  0.81393645301E+02  0.00000000000E+00 0. -1.
        -14    1    6    6    0    0  0.10646667928E+02 -0.48287678544E+02  0.32058064492E+01  0.49551272760E+02  0.00000000000E+00 0.  1.
</event>
<event>
12    1  0.9017558E-003  0.1951204E+03  0.7818608E-02  0.1154216E+00
         21   -1    0    0  503  502  0.00000000000E+00  0.00000000000E+00  0.26691246739E+03  0.26691246739E+03  0.00000000000E+00 0. -1.
         21   -1    0    0  501  503 -0.00000000000E+00 -0.00000000000E+00 -0.14984578490E+03  0.14984578490E+03  0.00000000000E+00 0.  1.
          6    2    1    2  501    0 -0.88575974801E+02 -0.66508181385E+00  0.10013372066E+02  0.19537721097E+03  0.17385580606E+03 0.  0.
         24    2    3    3    0    0 -0.39063023883E+02 -0.53703144139E+02 -0.35299850692E+02  0.10970372312E+03  0.79867890177E+02 0.  0.
         -6    2    1    2    0  502  0.88575974801E+02  0.66508181385E+00  0.10705331043E+03  0.22138104132E+03  0.17234560782E+03 0.  0.
        -24    2    5    5    0    0  0.86774221173E+02 -0.41855222293E+02  0.12518941354E+03  0.17488124762E+03  0.75029570251E+02 0.  0.
          5    1    3    3  501    0 -0.49512950919E+02  0.53038062326E+02  0.45313222758E+02  0.85673487851E+02  0.47000000000E+01 0. -1.
        -13    1    4    4    0    0 -0.62525097681E+02 -0.49371138847E+02 -0.23344212646E+02  0.83017163618E+02  0.00000000000E+00 0.  1.
         14    1    4    4    0    0  0.23462073798E+02 -0.43320052923E+01 -0.11955638046E+02  0.26686559498E+02  0.00000000000E+00 0. -1.
         -5    1    5    5    0  502  0.18017536282E+01  0.42520304107E+02 -0.18136103118E+02  0.46499793696E+02  0.47000000000E+01 0.  1.
         11    1    6    6    0    0 -0.25607024825E+01 -0.11341880869E+02 -0.61354709140E+01  0.13146842290E+02  0.00000000000E+00 0. -1.
        -12    1    6    6    0    0  0.89334923656E+02 -0.30513341424E+02  0.13132488446E+03  0.16173440533E+03  0.00000000000E+00 0.  1.
</event>
<event>
12    1  0.9017558E-003  0.1901915E+03  0.7818608E-02  0.1160211E+00
         21   -1    0    0  501  502  0.00000000000E+00  0.00000000000E+00  0.94827543913E+03  0.94827543913E+03  0.00000000000E+00 0.  1.
         21   -1    0    0  502  503 -0.00000000000E+00 -0.00000000000E+00 -0.43755677272E+02  0.43755677272E+02  0.00000000000E+00 0.  1.
          6    2    1    2  501    0 -0.61138555225E+02 -0.47523410165E+02  0.64585298616E+03  0.67096831862E+03  0.16454788792E+03 0.  0.
         24    2    3    3    0    0 -0.22383997153E+02 -0.43065025121E+02  0.17244089242E+03  0.19592843244E+03  0.79350170400E+02 0.  0.
         -6    2    1    2    0  503  0.61138555225E+02  0.47523410165E+02  0.25866677570E+03  0.32106279778E+03  0.17371362013E+03 0.  0.
        -24    2    5    5    0    0  0.69194820099E+02  0.45334039454E+02  0.75978765136E+02  0.13812374795E+03  0.80388424134E+02 0.  0.
          5    1    3    3  501    0 -0.38754558073E+02 -0.44583850441E+01  0.47341209373E+03  0.47503988618E+03  0.47000000000E+01 0. -1.
        -13    1    4    4    0    0 -0.43677571723E+02 -0.94700000652E+01  0.49391765430E+02  0.66610492155E+02  0.00000000000E+00 0.  1.
         14    1    4    4    0    0  0.21293574570E+02 -0.33595025056E+02  0.12304912699E+03  0.12931794029E+03  0.00000000000E+00 0. -1.
         -5    1    5    5    0  503 -0.80562648731E+01  0.21893707106E+01  0.18268801056E+03  0.18293904983E+03  0.47000000000E+01 0.  1.
         11    1    6    6    0    0 -0.13110961760E+02 -0.33931916972E+01 -0.32451059423E+01  0.13926298171E+02  0.00000000000E+00 0. -1.
        -12    1    6    6    0    0  0.82305781859E+02  0.48727231151E+02  0.79223871079E+02  0.12419744978E+03  0.00000000000E+00 0.  1.
</event>
<event>
12    1  0.9017558E-003  0.2377272E+03  0.7818608E-02  0.1121547E+00
         21   -1    0    0  503  502  0.00000000000E+00  0.00000000000E+00  0.13068953150E+04  0.13068953150E+04  0.00000000000E+00 0. -1.
         21   -1    0    0  501  503 -0.00000000000E+00 -0.00000000000E+00 -0.43000450762E+02  0.43000450762E+02  0.00000000000E+00 0.  1.
          6    2    1    2  501    0  0.12069726364E+03 -0.11142634372E+03  0.62262189953E+03  0.66597672449E+03  0.16995089957E+03 0.  0.
         24    2    3    3    0    0  0.48992072739E+02 -0.13240283527E+03  0.43728705777E+03  0.46609490648E+03  0.78062519686E+02 0.  0.
         -6    2    1    2    0  502 -0.12069726364E+03  0.11142634372E+03  0.64127296471E+03  0.68391904127E+03  0.17184463979E+03 0.  0.
        -24    2    5    5    0    0 -0.64129436919E+01  0.18224913242E+02  0.14704105030E+03  0.16813353580E+03  0.79212007168E+02 0.  0.
          5    1    3    3  501    0  0.71705190899E+02  0.20976491547E+02  0.18533484176E+03  0.19988181801E+03  0.47000000000E+01 0. -1.
        -11    1    4    4    0    0  0.48076848811E+02 -0.47242607413E+02  0.27113522998E+03  0.27938783131E+03  0.00000000000E+00 0.  1.
         12    1    4    4    0    0  0.91522392844E+00 -0.85160227853E+02  0.16615182779E+03  0.18670707517E+03  0.00000000000E+00 0. -1.
         -5    1    5    5    0  502 -0.11428431995E+03  0.93201430477E+02  0.49423191441E+03  0.51578550547E+03  0.47000000000E+01 0.  1.
         11    1    6    6    0    0 -0.34300812878E+01  0.43522665920E+02  0.13087278305E+03  0.13796257917E+03  0.00000000000E+00 0. -1.
        -12    1    6    6    0    0 -0.29828624041E+01 -0.25297752678E+02  0.16168267245E+02  0.30170956636E+02  0.00000000000E+00 0.  1.
</event>
<event>
12    1  0.9017558E-003  0.2196493E+03  0.7818608E-02  0.1134199E+00
         21   -1    0    0  503  502  0.00000000000E+00  0.00000000000E+00  0.35183025515E+03  0.35183025515E+03  0.00000000000E+00 0.  1.
         21   -1    0    0  501  503 -0.00000000000E+00 -0.00000000000E+00 -0.17466550880E+03  0.17466550880E+03  0.00000000000E+00 0.  1.
          6    2    1    2  501    0  0.13041435230E+03 -0.33708925672E+02  0.21086611180E+03  0.30427605672E+03  0.17313349367E+03 0.  0.
         24    2    3    3    0    0  0.55694465845E+02 -0.12935735939E+02  0.20243551397E+03  0.22612394975E+03  0.82962018705E+02 0.  0.
         -6    2    1    2    0  502 -0.13041435230E+03  0.33708925672E+02 -0.33701365451E+02  0.22221970722E+03  0.17349818815E+03 0.  0.
        -24    2    5    5    0    0 -0.11389434810E+03  0.24987846789E+02  0.39649044983E+02  0.14638211453E+03  0.79116127737E+02 0.  0.
          5    1    3    3  501    0  0.74719886453E+02 -0.20773189733E+02  0.84305978372E+01  0.78152106966E+02  0.47000000000E+01 0. -1.
        -11    1    4    4    0    0  0.42712913199E+02 -0.34611732459E+02  0.59649809399E+02  0.81120063727E+02  0.00000000000E+00 0.  1.
         12    1    4    4    0    0  0.12981552646E+02  0.21675996520E+02  0.14278570457E+03  0.14500388603E+03  0.00000000000E+00 0. -1.
         -5    1    5    5    0  502 -0.16520004196E+02  0.87210788836E+01 -0.73350410434E+02  0.75837592699E+02  0.47000000000E+01 0.  1.
         11    1    6    6    0    0 -0.14658183266E+02 -0.24652701985E+02  0.16310756666E+02  0.32994830426E+02  0.00000000000E+00 0. -1.
        -12    1    6    6    0    0 -0.99236164836E+02  0.49640548773E+02  0.23338288317E+02  0.11338728410E+03  0.00000000000E+00 0.  1.
</event>
<event>
12    1  0.9017558E-003  0.2025327E+03  0.7818608E-02  0.1147781E+00
         21   -1    0    0  501  502  0.00000000000E+00  0.00000000000E+00  0.97056098866E+03  0.97056098866E+03  0.00000000000E+00 0. -1.
         21   -1    0    0  502  503 -0.00000000000E+00 -0.00000000000E+00 -0.50985050234E+02  0.50985050234E+02  0.00000000000E+00 0. -1.
          6    2    1    2  501    0  0.47621011718E+02  0.93008966284E+02  0.67226175017E+03  0.70188404957E+03  0.17258890386E+03 0.  0.
         24    2    3    3    0    0  0.56674891827E+02  0.12684905003E+03  0.60289412790E+03  0.62403110466E+03  0.81429510977E+02 0.  0.
         -6    2    1    2    0  503 -0.47621011718E+02 -0.93008966284E+02  0.24731418826E+03  0.31966198932E+03  0.17349654503E+03 0.  0.
        -24    2    5    5    0    0 -0.92399219880E+01 -0.85617652875E+02  0.68644664382E+02  0.13670672615E+03  0.80999261620E+02 0.  0.
          5    1    3    3  501    0 -0.90538801085E+01 -0.33840083750E+02  0.69367622264E+02  0.77852944914E+02  0.47000000000E+01 0. -1.
        -11    1    4    4    0    0  0.16877102957E+02  0.15771021453E+01  0.18919683135E+03  0.18995463892E+03  0.00000000000E+00 0.  1.
         12    1    4    4    0    0  0.39797788870E+02  0.12527194789E+03  0.41369729656E+03  0.43407646573E+03  0.00000000000E+00 0. -1.
         -5    1    5    5    0  503 -0.38381089730E+02 -0.73913134085E+01  0.17866952388E+03  0.18295526318E+03  0.47000000000E+01 0.  1.
         11    1    6    6    0    0 -0.26848728710E+02 -0.41403484732E+01  0.40417553967E+02  0.48698823266E+02  0.00000000000E+00 0. -1.
        -12    1    6    6    0    0  0.17608806722E+02 -0.81477304402E+02  0.28227110415E+02  0.88007902879E+02  0.00000000000E+00 0.  1.
</event>
<event>
12    1  0.9017558E-003  0.2884322E+03  0.7818608E-02  0.1091269E+00
         21   -1    0    0  501  502  0.00000000000E+00  0.00000000000E+00  0.11432503483E+04  0.11432503483E+04  0.00000000000E+00 0. -1.
         21   -1    0    0  502  503 -0.00000000000E+00 -0.00000000000E+00 -0.10014443748E+03  0.10014443748E+03  0.00000000000E+00 0.  1.
          6    2    1    2  501    0 -0.79826277961E+02 -0.21527977478E+03  0.84722909859E+03  0.89473899766E+03  0.17332949074E+03 0.  0.
         24    2    3    3    0    0 -0.28910249646E+02 -0.38403150738E+02  0.19873931381E+03  0.22061818280E+03  0.82852056137E+02 0.  0.
         -6    2    1    2    0  503  0.79826277961E+02  0.21527977478E+03  0.19587681221E+03  0.34865578809E+03  0.17457238305E+03 0.  0.
        -24    2    5    5    0    0  0.98867196946E+02  0.22984139102E+03  0.18800416215E+03  0.32299130129E+03  0.79850034881E+02 0.  0.
          5    1    3    3  501    0 -0.50916028314E+02 -0.17687662404E+03  0.64848978477E+03  0.67412081486E+03  0.47000000000E+01 0. -1.
        -11    1    4    4    0    0  0.24608229326E+02 -0.34158343333E+02  0.86947023009E+02  0.96603013307E+02  0.00000000000E+00 0.  1.
         12    1    4    4    0    0 -0.53518478972E+02 -0.42448074051E+01  0.11179229081E+03  0.12401516950E+03  0.00000000000E+00 0. -1.
         -5    1    5    5    0  503 -0.19040918985E+02 -0.14561616240E+02  0.78726500628E+01  0.25664486792E+02  0.47000000000E+01 0.  1.
         13    1    6    6    0    0  0.99639402061E+01  0.42098482980E+02  0.74824976816E+02  0.86431125928E+02  0.00000000000E+00 0. -1.
        -14    1    6    6    0    0  0.88903256739E+02  0.18774290804E+03  0.11317918533E+03  0.23656017537E+03  0.00000000000E+00 0.  1.
</event>
<event>
12    1  0.9017558E-003  0.2666402E+03  0.7818608E-02  0.1103297E+00
         21   -1    0    0  501  502  0.00000000000E+00  0.00000000000E+00  0.16406447078E+04  0.16406447078E+04  0.00000000000E+00 0.  1.
         21   -1    0    0  502  503 -0.00000000000E+00 -0.00000000000E+00 -0.44787287903E+02  0.44787287903E+02  0.00000000000E+00 0.  1.
          6    2    1    2  501    0  0.85316878534E+02 -0.18490986437E+03  0.95502778878E+03  0.99155185881E+03  0.17212316420E+03 0.  0.
         24    2    3    3    0    0  0.75479412013E+02 -0.94659197839E+02  0.34982193831E+03  0.37955662189E+03  0.83847094935E+02 0.  0.
         -6    2    1    2    0  503 -0.85316878534E+02  0.18490986437E+03  0.64082963111E+03  0.69388013689E+03  0.17127872184E+03 0.  0.
        -24    2    5    5    0    0  0.18152452708E+02  0.11029039578E+03  0.29582943735E+03  0.32601984916E+03  0.79248994298E+02 0.  0.
          5    1    3    3  501    0  0.98374665212E+01 -0.90250666533E+02  0.60520585048E+03  0.61199523692E+03  0.47000000000E+01 0. -1.
        -11    1    4    4    0    0  0.23167942901E+02 -0.23024619434E+02  0.21946978740E+03  0.22188707547E+03  0.00000000000E+00 0.  1.
         12    1    4    4    0    0  0.52311469112E+02 -0.71634578405E+02  0.13035215091E+03  0.15766954642E+03  0.00000000000E+00 0. -1.
         -5    1    5    5    0  503 -0.10346933124E+03  0.74619468594E+02  0.34500019375E+03  0.36786028773E+03  0.47000000000E+01 0.  1.
         11    1    6    6    0    0  0.17771803922E+01  0.10257186878E+03  0.28900591437E+03  0.30667338518E+03  0.00000000000E+00 0. -1.
        -12    1    6    6    0    0  0.16375272315E+02  0.77185269935E+01  0.68235229800E+01  0.19346463972E+02  0.00000000000E+00 0.  1.
</event>
<event>
12    1  0.9017558E-003  0.7204212E+03  0.7818608E-02  0.9683010E-01
         21   -1    0    0  501  502  0.00000000000E+00  0.00000000000E+00  0.91297257138E+03  0.91297257138E+03  0.00000000000E+00 0.  1.
         21   -1    0    0  502  503 -0.00000000000E+00 -0.00000000000E+00 -0.75134744504E+03  0.75134744504E+03  0.00000000000E+00 0. -1.
          6    2    1    2  501    0 -0.17756691584E+03  0.67664961875E+03  0.49152630110E+03  0.87212659904E+03  0.17211038296E+03 0.  0.
         24    2    3    3    0    0 -0.11958039664E+03  0.30151097680E+03  0.17152592468E+03  0.37562507034E+03  0.80403421808E+02 0.  0.
         -6    2    1    2    0  503  0.17756691584E+03 -0.67664961875E+03 -0.32990117477E+03  0.79219341738E+03  0.17132107072E+03 0.  0.
        -24    2    5    5    0    0  0.43372594958E+02 -0.14095091400E+03 -0.86501714597E+02  0.18866495472E+03  0.79772027435E+02 0.  0.
          5    1    3    3  501    0 -0.57986519205E+02  0.37513864196E+03  0.32000037642E+03  0.49650152871E+03  0.47000000000E+01 0. -1.
        -13    1    4    4    0    0 -0.81568176927E+02  0.15487704687E+03  0.13153028851E+03  0.21895315464E+03  0.00000000000E+00 0.  1.
         14    1    4    4    0    0 -0.38012219709E+02  0.14663392993E+03  0.39995636174E+02  0.15667191569E+03  0.00000000000E+00 0. -1.
         -5    1    5    5    0  503  0.13419432088E+03 -0.53569870475E+03 -0.24339946017E+03  0.60352846266E+03  0.47000000000E+01 0.  1.
         11    1    6    6    0    0  0.44812111108E+02 -0.11549736717E+03 -0.31177114747E+02  0.12774889279E+03  0.00000000000E+00 0. -1.
        -12    1    6    6    0    0 -0.14395161499E+01 -0.25453546835E+02 -0.55324599850E+02  0.60916061936E+02  0.00000000000E+00 0.  1.
</event>
<event>
12    1  0.9017558E-003  0.2111168E+03  0.7818608E-02  0.1140905E+00
         21   -1    0    0  501  502  0.00000000000E+00  0.00000000000E+00  0.13672121922E+04  0.13672121922E+04  0.00000000000E+00 0. -1.
         21   -1    0    0  502  503 -0.00000000000E+00 -0.00000000000E+00 -0.33169979346E+02  0.33169979346E+02  0.00000000000E+00 0.  1.
          6    2    1    2  501    0  0.12068476536E+03 -0.26205225745E+02  0.77008314132E+03  0.79820267040E+03  0.16984678993E+03 0.  0.
         24    2    3    3    0    0  0.13047631149E+03  0.23712588208E+02  0.63984982285E+03  0.65830817528E+03  0.79846747877E+02 0.  0.
         -6    2    1    2    0  503 -0.12068476536E+03  0.26205225745E+02  0.56395907157E+03  0.60217950118E+03  0.17122730736E+03 0.  0.
        -24    2    5    5    0    0 -0.42072318807E+02 -0.64262081854E+01  0.13244983649E+03  0.16233062122E+03  0.83647446106E+02 0.  0.
          5    1    3    3  501    0 -0.97915461247E+01 -0.49917813953E+02  0.13023331847E+03  0.13989449512E+03  0.47000000000E+01 0. -1.
        -13    1    4    4    0    0 -0.53077548600E+01 -0.12682960749E+02  0.43901280581E+02  0.46003828011E+02  0.00000000000E+00 0.  1.
         14    1    4    4    0    0  0.13578406635E+03  0.36395548957E+02  0.59594854227E+03  0.61230434727E+03  0.00000000000E+00 0. -1.
         -5    1    5    5    0  503 -0.78612446555E+02  0.32631433931E+02  0.43150923508E+03  0.43984887995E+03  0.47000000000E+01 0.  1.
         13    1    6    6    0    0  0.21856103724E+01  0.13751690626E+02  0.10610295099E+03  0.10701271932E+03  0.00000000000E+00 0. -1.
        -14    1    6    6    0    0 -0.44257929179E+02 -0.20177898812E+02  0.26346885499E+02  0.55317901905E+02  0.00000000000E+00 0.  1.
</event>
<event>
12    1  0.9017558E-003  0.2496612E+03  0.7818608E-02  0.1113650E+00
         21   -1    0    0  503  502  0.00000000000E+00  0.00000000000E+00  0.13322141038E+04  0.13322141038E+04  0.00000000000E+00 0.  1.
         21   -1    0    0  501  503 -0.00000000000E+00 -0.00000000000E+00 -0.51511703400E+02  0.51511703400E+02  0.00000000000E+00 0.  1.
          6    2    1    2  501    0  0.97824088964E+02 -0.15081826419E+03  0.42839150221E+03  0.49583264495E+03  0.17324846734E+03 0.  0.
         24    2    3    3    0    0  0.84284795240E+02 -0.13066691229E+03  0.19781621110E+03  0.26393515827E+03  0.79704113571E+02 0.  0.
         -6    2    1    2    0  502 -0.97824088964E+02  0.15081826419E+03  0.85231089822E+03  0.88789316229E+03  0.17206016160E+03 0.  0.
        -24    2    5    5    0    0 -0.11520324054E+03  0.15903577691E+03  0.60944834382E+03  0.64422561673E+03  0.70959118509E+02 0.  0.
          5    1    3    3  501    0  0.13539293725E+02 -0.20151351905E+02  0.23057529111E+03  0.23189748668E+03  0.47000000000E+01 0. -1.
        -11    1    4    4    0    0  0.24429793266E+02 -0.11409948622E+02  0.20790192741E+01  0.27043003674E+02  0.00000000000E+00 0.  1.
         12    1    4    4    0    0  0.59855001974E+02 -0.11925696366E+03  0.19573719183E+03  0.23689215459E+03  0.00000000000E+00 0. -1.
         -5    1    5    5    0  502  0.17379151578E+02 -0.82175127237E+01  0.24286255440E+03  0.24366754555E+03  0.47000000000E+01 0.  1.
         11    1    6    6    0    0 -0.75699021387E+02  0.46447551618E+02  0.23476395219E+03  0.25100165366E+03  0.00000000000E+00 0. -1.
        -12    1    6    6    0    0 -0.39504219155E+02  0.11258822530E+03  0.37468439163E+03  0.39322396307E+03  0.00000000000E+00 0.  1.
</event>
<event>
12    1  0.9017558E-003  0.1747399E+03  0.7818608E-02  0.1173042E+00
         21   -1    0    0  501  502  0.00000000000E+00  0.00000000000E+00  0.31081634860E+03  0.31081634860E+03  0.00000000000E+00 0.  1.
         21   -1    0    0  502  503 -0.00000000000E+00 -0.00000000000E+00 -0.98519773657E+02  0.98519773657E+02  0.00000000000E+00 0.  1.
          6    2    1    2  501    0  0.16735346705E+02 -0.22675547959E+02  0.11896238886E+03  0.21123182448E+03  0.17225731161E+03 0.  0.
         24    2    3    3    0    0  0.33125904915E+02 -0.77766693744E+02  0.83000305932E+02  0.14326825960E+03  0.80571453948E+02 0.  0.
         -6    2    1    2    0  503 -0.16735346705E+02  0.22675547959E+02  0.93334186084E+02  0.19810429778E+03  0.17245228385E+03 0.  0.
        -24    2    5    5    0    0 -0.25032690440E+02 -0.24693908598E+02 -0.53728899608E+01  0.88204851976E+02  0.80714331151E+02 0.  0.
          5    1    3    3  501    0 -0.16390558210E+02  0.55091145785E+02  0.35962082930E+02  0.67963564879E+02  0.47000000000E+01 0. -1.
        -13    1    4    4    0    0  0.30091527951E+02 -0.18063315325E+02 -0.64463269952E+01  0.35683869559E+02  0.00000000000E+00 0.  1.
         14    1    4    4    0    0  0.30343769636E+01 -0.59703378419E+02  0.89446632927E+02  0.10758439004E+03  0.00000000000E+00 0. -1.
         -5    1    5    5    0  503  0.82973437354E+01  0.47369456557E+02  0.98707076045E+02  0.10989944581E+03  0.47000000000E+01 0.  1.
         11    1    6    6    0    0 -0.93283897432E+01 -0.23544777953E+02  0.35955006511E+02  0.43978834878E+02  0.00000000000E+00 0. -1.
        -12    1    6    6    0    0 -0.15704300697E+02 -0.11491306447E+01 -0.41327896471E+02  0.44226017098E+02  0.00000000000E+00 0.  1.
</event>
<event>
12    1  0.9017558E-003  0.1859510E+03  0.7818608E-02  0.1162384E+00
         21   -1    0    0  501  502  0.00000000000E+00  0.00000000000E+00  0.90752093931E+02  0.90752093931E+02  0.00000000000E+00 0. -1.
         21   -1    0    0  502  503 -0.00000000000E+00 -0.00000000000E+00 -0.40080490160E+03  0.40080490160E+03  0.00000000000E+00 0.  1.
          6    2    1    2  501    0  0.20702372135E+02  0.62951733125E+02 -0.98180693826E+02  0.21027895730E+03  0.17374199931E+03 0.  0.
         24    2    3    3    0    0  0.14112064751E+02 -0.11195649648E+01  0.12643920676E+02  0.82010689319E+02  0.79783962269E+02 0.  0.
         -6    2    1    2    0  503 -0.20702372135E+02 -0.62951733125E+02 -0.21187211384E+03  0.28127803823E+03  0.17273110100E+03 0.  0.
        -24    2    5    5    0    0  0.52184314564E+01  0.28094255146E+02 -0.76575617767E+02  0.11608575061E+03  0.82435168830E+02 0.  0.
          5    1    3    3  501    0  0.65903073840E+01  0.64071298090E+02 -0.11082461450E+03  0.12826826798E+03  0.47000000000E+01 0. -1.
        -13    1    4    4    0    0  0.11015067359E+02  0.56905819681E+01 -0.33262840129E+02  0.35498323418E+02  0.00000000000E+00 0.  1.
         14    1    4    4    0    0  0.30969973925E+01 -0.68101469329E+01  0.45906760805E+02  0.46512365901E+02  0.00000000000E+00 0. -1.
         -5    1    5    5    0  503 -0.25920803592E+02 -0.91045988271E+02 -0.13529649608E+03  0.16519228762E+03  0.47000000000E+01 0.  1.
         11    1    6    6    0    0 -0.35177976443E+02  0.26026146582E+02 -0.54864296592E+02  0.70177926538E+02  0.00000000000E+00 0. -1.
        -12    1    6    6    0    0  0.40396407900E+02  0.20681085636E+01 -0.21711321175E+02  0.45907824076E+02  0.00000000000E+00 0.  1.
</event>
<event>
12    1  0.9017558E-003  0.1833501E+03  0.7818608E-02  0.1165829E+00
         21   -1    0    0  501  502  0.00000000000E+00  0.00000000000E+00  0.40098961240E+03  0.40098961240E+03  0.00000000000E+00 0. -1.
         21   -1    0    0  502  503 -0.00000000000E+00 -0.00000000000E+00 -0.84095871220E+02  0.84095871220E+02  0.00000000000E+00 0.  1.
          6    2    1    2  501    0 -0.38728568216E+02  0.44132795605E+02  0.11372743242E+03  0.21141813543E+03  0.16827386446E+03 0.  0.
         24    2    3    3    0    0 -0.40373122098E+02 -0.37036708129E+02  0.71579830257E+02  0.11982281207E+03  0.78943824678E+02 0.  0.
         -6    2    1    2    0  503  0.38728568216E+02 -0.44132795605E+02  0.20316630876E+03  0.27366734819E+03  0.17369416457E+03 0.  0.
        -24    2    5    5    0    0 -0.14257000472E+02  0.29256976317E+02  0.13334320982E+03  0.15925194600E+03  0.80756039869E+02 0.  0.
          5    1    3    3  501    0  0.16445538826E+01  0.81169503734E+02  0.42147602161E+02  0.91595323362E+02  0.47000000000E+01 0. -1.
        -11    1    4    4    0    0  0.89140613146E+01 -0.26877989331E+02 -0.44320460559E+01  0.28662341702E+02  0.00000000000E+00 0.  1.
         12    1    4    4    0    0 -0.49287183413E+02 -0.10158718798E+02  0.76011876313E+02  0.91160470364E+02  0.00000000000E+00 0. -1.
         -5    1    5    5    0  503  0.52985568688E+02 -0.73389771922E+02  0.69823098941E+02  0.11441540219E+03  0.47000000000E+01 0.  1.
         13    1    6    6    0    0  0.33387495613E+02  0.82694345145E+01  0.62444881678E+02  0.71291455718E+02  0.00000000000E+00 0. -1.
        -14    1    6    6    0    0 -0.47644496085E+02  0.20987541803E+02  0.70898328142E+02  0.87960490287E+02  0.00000000000E+00 0.  1.
</event>
<event>
12    1  0.9017558E-003  0.2069570E+03  0.7818608E-02  0.1146395E+00
         21   -1    0    0  501  502  0.00000000000E+00  0.00000000000E+00  0.13703018518E+04  0.13703018518E+04  0.00000000000E+00 0.  1.
         21   -1    0    0  502  503 -0.00000000000E+00 -0.00000000000E+00 -0.34051011314E+02  0.34051011314E+02  0.00000000000E+00 0. -1.
          6    2    1    2  501    0  0.86176373857E+02 -0.30966711359E+02  0.94016439012E+03  0.96267350522E+03  0.18559604675E+03 0.  0.
         24    2    3    3    0    0 -0.30516242546E+01 -0.82445141579E+02  0.45820749727E+03  0.46980820821E+03  0.62921603351E+02 0.  0.
         -6    2    1    2    0  503 -0.86176373857E+02  0.30966711359E+02  0.39608645037E+03  0.44167935790E+03  0.17265825902E+03 0.  0.
        -24    2    5    5    0    0  0.10741074759E+02  0.33557943389E+02  0.11420490637E+03  0.14355354356E+03  0.79519513191E+02 0.  0.
          5    1    3    3  501    0  0.89227998112E+02  0.51478430219E+02  0.48195689285E+03  0.49286529701E+03  0.47000000000E+01 0. -1.
        -13    1    4    4    0    0  0.27460828516E+02 -0.36231099461E+02  0.26288270907E+03  0.26678476043E+03  0.00000000000E+00 0.  1.
         14    1    4    4    0    0 -0.30512452770E+02 -0.46214042118E+02  0.19532478820E+03  0.20302344778E+03  0.00000000000E+00 0. -1.
         -5    1    5    5    0  503 -0.96917448617E+02 -0.25912320294E+01  0.28188154400E+03  0.29812581434E+03  0.47000000000E+01 0.  1.
         11    1    6    6    0    0 -0.56277839627E+01  0.25010631253E+02  0.12114396100E+03  0.12382674555E+03  0.00000000000E+00 0. -1.
        -12    1    6    6    0    0  0.16368858722E+02  0.85473121357E+01 -0.69390546252E+01  0.19726798009E+02  0.00000000000E+00 0.  1.
</event>
<event>
12    1  0.9017558E-003  0.2134115E+03  0.7818608E-02  0.1139868E+00
         21   -1    0    0  501  502  0.00000000000E+00  0.00000000000E+00  0.16603108771E+03  0.16603108771E+03  0.00000000000E+00 0.  1.
         21   -1    0    0  502  503 -0.00000000000E+00 -0.00000000000E+00 -0.33338395501E+03  0.33338395501E+03  0.00000000000E+00 0. -1.
          6    2    1    2  501    0  0.12081909657E+03  0.22345157866E+02 -0.19507735362E+03  0.28913600654E+03  0.17449325547E+03 0.  0.
         24    2    3    3    0    0  0.95991973145E+02 -0.20756284080E+02 -0.20184379942E+03  0.23871780403E+03  0.81240312405E+02 0.  0.
         -6    2    1    2    0  503 -0.12081909657E+03 -0.22345157866E+02  0.27724486331E+02  0.21027903618E+03  0.16838071665E+03 0.  0.
        -24    2    5    5    0    0 -0.96252171210E+02  0.37651738357E+02 -0.21615955954E+02  0.12867186356E+03  0.73532748192E+02 0.  0.
          5    1    3    3  501    0  0.24827123427E+02  0.43101441946E+02  0.67664457986E+01  0.50418202509E+02  0.47000000000E+01 0. -1.
        -11    1    4    4    0    0 -0.74636889768E+01 -0.22019744148E+02 -0.27775750577E+02  0.36222480666E+02  0.00000000000E+00 0.  1.
         12    1    4    4    0    0  0.10345566212E+03  0.12634600683E+01 -0.17406804884E+03  0.20249532337E+03  0.00000000000E+00 0. -1.
         -5    1    5    5    0  503 -0.24566925362E+02 -0.59996896223E+02  0.49340442285E+02  0.81607172620E+02  0.47000000000E+01 0.  1.
         13    1    6    6    0    0 -0.34947302970E+01 -0.46140872333E+01 -0.26007950649E+02  0.26644257126E+02  0.00000000000E+00 0. -1.
        -14    1    6    6    0    0 -0.92757440913E+02  0.42265825590E+02  0.43919946950E+01  0.10202760644E+03  0.00000000000E+00 0.  1.
</event>
<event>
12    1  0.9017558E-003  0.1924591E+03  0.7818608E-02  0.1156818E+00
         21   -1    0    0  501  502  0.00000000000E+00  0.00000000000E+00  0.52852116143E+03  0.52852116143E+03  0.00000000000E+00 0. -1.
         21   -1    0    0  502  503 -0.00000000000E+00 -0.00000000000E+00 -0.74789295805E+02  0.74789295805E+02  0.00000000000E+00 0. -1.
          6    2    1    2  501    0 -0.90233704955E+02  0.66030855907E+01  0.14288207008E+03  0.23770398589E+03  0.16703944657E+03 0.  0.
         24    2    3    3    0    0 -0.10553705337E+03  0.10039608828E+02  0.48689785846E+02  0.14209918176E+03  0.81133339830E+02 0.  0.
         -6    2    1    2    0  503  0.90233704955E+02 -0.66030855907E+01  0.31084979555E+03  0.36560647134E+03  0.16986693099E+03 0.  0.
        -24    2    5    5    0    0  0.12340959872E+03 -0.24077933761E+02  0.27899330744E+03  0.31618040454E+03  0.79517964425E+02 0.  0.
          5    1    3    3  501    0  0.15303348413E+02 -0.34365232376E+01  0.94192284232E+02  0.95604804133E+02  0.47000000000E+01 0. -1.
        -13    1    4    4    0    0 -0.13445163839E+02  0.17675712604E+02 -0.17630518251E+02  0.28355571243E+02  0.00000000000E+00 0.  1.
         14    1    4    4    0    0 -0.92091889529E+02 -0.76361037760E+01  0.66320304097E+02  0.11374361052E+03  0.00000000000E+00 0. -1.
         -5    1    5    5    0  503 -0.33175893760E+02  0.17474848170E+02  0.31856488105E+02  0.49426066804E+02  0.47000000000E+01 0.  1.
         11    1    6    6    0    0  0.73225266030E+02  0.14622715343E+02  0.90555818239E+02  0.11737171553E+03  0.00000000000E+00 0. -1.
        -12    1    6    6    0    0  0.50184332686E+02 -0.38700649103E+02  0.18843748920E+03  0.19880868901E+03  0.00000000000E+00 0.  1.
</event>
<event>
12    1  0.9017558E-003  0.1843152E+03  0.7818608E-02  0.1164384E+00
         21   -1    0    0  501  502  0.00000000000E+00  0.00000000000E+00  0.48985829758E+02  0.48985829758E+02  0.00000000000E+00 0. -1.
         21   -1    0    0  502  503 -0.00000000000E+00 -0.00000000000E+00 -0.72321460197E+03  0.72321460197E+03  0.00000000000E+00 0.  1.
          6    2    1    2  501    0 -0.62212052938E+02 -0.21414155356E+02 -0.24299757914E+03  0.30323089283E+03  0.16903326690E+03 0.  0.
         24    2    3    3    0    0  0.14872975231E+02 -0.48890664252E+02 -0.10489401345E+03  0.14263280764E+03  0.82035731945E+02 0.  0.
         -6    2    1    2    0  503  0.62212052938E+02  0.21414155356E+02 -0.43123119308E+03  0.46896953890E+03  0.17217195171E+03 0.  0.
        -24    2    5    5    0    0 -0.22258969436E+02  0.36634821938E+02 -0.16420072193E+03  0.18844434425E+03  0.81925709640E+02 0.  0.
          5    1    3    3  501    0 -0.77085028169E+02  0.27476508896E+02 -0.13810356569E+03  0.16059808519E+03  0.47000000000E+01 0. -1.
        -13    1    4    4    0    0 -0.18541689857E+01  0.10195157910E+02 -0.72438044950E+02  0.73175470915E+02  0.00000000000E+00 0.  1.
         14    1    4    4    0    0  0.16727144216E+02 -0.59085822163E+02 -0.32455968498E+02  0.69457336729E+02  0.00000000000E+00 0. -1.
         -5    1    5    5    0  503  0.84471022374E+02 -0.15220666581E+02 -0.26703047115E+03  0.28052519465E+03  0.47000000000E+01 0.  1.
         13    1    6    6    0    0  0.27683520000E+02  0.19454207872E+02 -0.98486815123E+02  0.10413691102E+03  0.00000000000E+00 0. -1.
        -14    1    6    6    0    0 -0.49942489435E+02  0.17180614066E+02 -0.65713906803E+02  0.84307433231E+02  0.00000000000E+00 0.  1.
</event>
<event>
12    1  0.9017558E-003  0.3042249E+03  0.7818608E-02  0.1083200E+00
         21   -1    0    0  501  502  0.00000000000E+00  0.00000000000E+00  0.87789753286E+03  0.87789753286E+03  0.00000000000E+00 0.  1.
         21   -1    0    0  502  503 -0.00000000000E+00 -0.00000000000E+00 -0.13301869862E+03  0.13301869862E+03  0.00000000000E+00 0.  1.
          6    2    1    2  501    0 -0.21912548083E+03  0.12207964073E+03  0.60305983770E+03  0.67525949843E+03  0.17139080299E+03 0.  0.
         24    2    3    3    0    0 -0.19191297297E+03  0.36977220447E+02  0.46276565499E+03  0.50886391488E+03  0.81194386572E+02 0.  0.
         -6    2    1    2    0  503  0.21912548083E+03 -0.12207964073E+03  0.14181899654E+03  0.33565673305E+03  0.17214354369E+03 0.  0.
        -24    2    5    5    0    0  0.55234107317E+02 -0.83306229115E-02  0.49804514787E+02  0.11149040660E+03  0.83059101790E+02 0.  0.
          5    1    3    3  501    0 -0.27212507860E+02  0.85102420282E+02  0.14029418271E+03  0.16639558355E+03  0.47000000000E+01 0. -1.
        -11    1    4    4    0    0 -0.31088093062E+02 -0.17588499478E+02  0.42103507174E+02  0.55213496180E+02  0.00000000000E+00 0.  1.
         12    1    4    4    0    0 -0.16082487990E+03  0.54565719926E+02  0.42066214781E+03  0.45365041870E+03  0.00000000000E+00 0. -1.
         -5    1    5    5    0  503  0.16389137351E+03 -0.12207131011E+03  0.92014481755E+02  0.22416632645E+03  0.47000000000E+01 0.  1.
         13    1    6    6    0    0  0.35255986358E+02  0.99567127478E+01 -0.17485210866E+02  0.40593759395E+02  0.00000000000E+00 0. -1.
        -14    1    6    6    0    0  0.19978120959E+02 -0.99650433707E+01  0.67289725653E+02  0.70896647205E+02  0.00000000000E+00 0.  1.
</event>
<event>
12    1  0.9017558E-003  0.1867658E+03  0.7818608E-02  0.1161462E+00
         21   -1    0    0  503  502  0.00000000000E+00  0.00000000000E+00  0.13530968082E+03  0.13530968082E+03  0.00000000000E+00 0.  1.
         21   -1    0    0  501  503 -0.00000000000E+00 -0.00000000000E+00 -0.25821784201E+03  0.25821784201E+03  0.00000000000E+00 0.  1.
          6    2    1    2  501    0 -0.29343206490E+02  0.69310656613E+02 -0.71908055379E+02  0.19992361316E+03  0.17068594489E+03 0.  0.
         24    2    3    3    0    0 -0.57033329729E+02  0.50596388620E+02  0.10701995357E+02  0.11068529609E+03  0.79522995564E+02 0.  0.
         -6    2    1    2    0  502  0.29343206490E+02 -0.69310656613E+02 -0.51000105806E+02  0.19360390967E+03  0.17092826612E+03 0.  0.
        -24    2    5    5    0    0  0.22392820240E+02 -0.40866340512E+02 -0.10021874719E+03  0.13614129881E+03  0.79493142905E+02 0.  0.
          5    1    3    3  501    0  0.27690123239E+02  0.18714267993E+02 -0.82610050737E+02  0.89238317074E+02  0.47000000000E+01 0. -1.
        -11    1    4    4    0    0 -0.26469510638E+02  0.65263772342E+02 -0.97406717349E+01  0.71097648763E+02  0.00000000000E+00 0.  1.
         12    1    4    4    0    0 -0.30563819090E+02 -0.14667383723E+02  0.20442667092E+02  0.39587647322E+02  0.00000000000E+00 0. -1.
         -5    1    5    5    0  502  0.69503862492E+01 -0.28444316101E+02  0.49218641379E+02  0.57462610859E+02  0.47000000000E+01 0.  1.
         13    1    6    6    0    0  0.61328621154E+01  0.77388629089E+01  0.10329505420E+02  0.14289880303E+02  0.00000000000E+00 0. -1.
        -14    1    6    6    0    0  0.16259958125E+02 -0.48605203421E+02 -0.11054825261E+03  0.12185141851E+03  0.00000000000E+00 0.  1.
</event>
<event>
12    1  0.9017558E-003  0.2213772E+03  0.7818608E-02  0.1132943E+00
         21   -1    0    0  501  502  0.00000000000E+00  0.00000000000E+00  0.15114025591E+03  0.15114025591E+03  0.00000000000E+00 0.  1.
         21   -1    0    0  502  503 -0.00000000000E+00 -0.00000000000E+00 -0.36810684864E+03  0.36810684864E+03  0.00000000000E+00 0.  1.
          6    2    1    2  501    0 -0.12733308838E+03 -0.53409566936E+02 -0.18307009566E+02  0.22213288435E+03  0.17303633860E+03 0.  0.
         24    2    3    3    0    0 -0.11563798963E+03 -0.26903863823E+02  0.46626750036E+02  0.15087412511E+03  0.80579062260E+02 0.  0.
         -6    2    1    2    0  503  0.12733308838E+03  0.53409566936E+02 -0.19865958317E+03  0.29711422020E+03  0.17246719288E+03 0.  0.
        -24    2    5    5    0    0  0.73174789106E+02 -0.10844603990E+02 -0.41748116219E+02  0.11905518975E+03  0.83421087281E+02 0.  0.
          5    1    3    3  501    0 -0.11695098749E+02 -0.26505703112E+02 -0.64933759603E+02  0.71258759240E+02  0.47000000000E+01 0. -1.
        -11    1    4    4    0    0 -0.67401502337E+02  0.25229151462E+02  0.17208588060E+02  0.73997352005E+02  0.00000000000E+00 0.  1.
         12    1    4    4    0    0 -0.48236487297E+02 -0.52133015285E+02  0.29418161977E+02  0.76876773109E+02  0.00000000000E+00 0. -1.
         -5    1    5    5    0  503  0.54158299277E+02  0.64254170925E+02 -0.15691146695E+03  0.17805903044E+03  0.47000000000E+01 0.  1.
         11    1    6    6    0    0  0.27166817531E+02 -0.28079559973E+02  0.16881910027E+02  0.42561679351E+02  0.00000000000E+00 0. -1.
        -12    1    6    6    0    0  0.46007971576E+02  0.17234955983E+02 -0.58630026246E+02  0.76493510403E+02  0.00000000000E+00 0.  1.
</event>
<event>
12    1  0.9017558E-003  0.2985828E+03  0.7818608E-02  0.1085995E+00
         21   -1    0    0  501  502  0.00000000000E+00  0.00000000000E+00  0.43022764809E+03  0.43022764809E+03  0.00000000000E+00 0.  1.
         21   -1    0    0  502  503 -0.00000000000E+00 -0.00000000000E+00 -0.32826890549E+03  0.32826890549E+03  0.00000000000E+00 0. -1.
          6    2    1    2  501    0 -0.96378384536E+02 -0.22419185303E+03  0.28152608752E+03  0.41037621283E+03  0.17204917359E+03 0.  0.
         24    2    3    3    0    0  0.16445745747E+02 -0.11820064690E+03  0.13545318886E+03  0.19748468676E+03  0.80067344474E+02 0.  0.
         -6    2    1    2    0  503  0.96378384536E+02  0.22419185303E+03 -0.17956734493E+03  0.34812034075E+03  0.17144258604E+03 0.  0.
        -24    2    5    5    0    0  0.70481817699E+02  0.23225211239E+03 -0.19065931429E+03  0.31844338438E+03  0.78399519075E+02 0.  0.
          5    1    3    3  501    0 -0.11282413028E+03 -0.10599120613E+03  0.14607289866E+03  0.21289152607E+03  0.47000000000E+01 0. -1.
        -13    1    4    4    0    0  0.38319709813E+01 -0.10438464405E+03  0.14318953121E+03  0.17724017537E+03  0.00000000000E+00 0.  1.
         14    1    4    4    0    0  0.12613774766E+02 -0.13816002858E+02 -0.77363423497E+01  0.20244511399E+02  0.00000000000E+00 0. -1.
         -5    1    5    5    0  503  0.25896566837E+02 -0.80602593650E+01  0.11091969364E+02  0.29676956369E+02  0.47000000000E+01 0.  1.
         11    1    6    6    0    0  0.36549934138E+02  0.61532473145E+02 -0.97721036872E+02  0.12112614905E+03  0.00000000000E+00 0. -1.
        -12    1    6    6    0    0  0.33931883561E+02  0.17071963925E+03 -0.92938277419E+02  0.19731723533E+03  0.00000000000E+00 0.  1.
</event>
<event>
12    1  0.9017558E-003  0.1805710E+03  0.7818608E-02  0.1167653E+00
         21   -1    0    0  503  502  0.00000000000E+00  0.00000000000E+00  0.20123628978E+03  0.20123628978E+03  0.00000000000E+00 0. -1.
         21   -1    0    0  501  503 -0.00000000000E+00 -0.00000000000E+00 -0.20880151983E+03  0.20880151983E+03  0.00000000000E+00 0. -1.
          6    2    1    2  501    0 -0.38205021580E+02  0.27381758763E+02 -0.10232990910E+03  0.20611081550E+03  0.17262929526E+03 0.  0.
         24    2    3    3    0    0 -0.68774686190E+02 -0.11226470338E+02 -0.18401048424E+02  0.10868780280E+03  0.81353849316E+02 0.  0.
         -6    2    1    2    0  502  0.38205021580E+02 -0.27381758763E+02  0.94764679053E+02  0.20392699411E+03  0.17434589225E+03 0.  0.
        -24    2    5    5    0    0  0.71228373565E+02  0.84094306340E+01  0.10917486220E+03  0.15292410799E+03  0.79513725497E+02 0.  0.
          5    1    3    3  501    0  0.30569664610E+02  0.38608229101E+02 -0.83928860673E+02  0.97423012695E+02  0.47000000000E+01 0. -1.
        -13    1    4    4    0    0 -0.43417880982E+01  0.12401495777E+02  0.24466226068E+02  0.27771288040E+02  0.00000000000E+00 0.  1.
         14    1    4    4    0    0 -0.64432898092E+02 -0.23627966115E+02 -0.42867274492E+02  0.80916514764E+02  0.00000000000E+00 0. -1.
         -5    1    5    5    0  502 -0.33023351986E+02 -0.35791189397E+02 -0.14410183147E+02  0.51002886126E+02  0.47000000000E+01 0.  1.
         11    1    6    6    0    0  0.41505302600E+02  0.37596364039E+02  0.92337736275E+02  0.10799275102E+03  0.00000000000E+00 0. -1.
        -12    1    6    6    0    0  0.29723070965E+02 -0.29186933405E+02  0.16837125925E+02  0.44931356964E+02  0.00000000000E+00 0.  1.
</event>
<event>
12    1  0.9017558E-003  0.2092406E+03  0.7818608E-02  0.1142354E+00
         21   -1    0    0  503  502  0.00000000000E+00  0.00000000000E+00  0.49254229019E+03  0.49254229019E+03  0.00000000000E+00 0. -1.
         21   -1    0    0  501  503 -0.00000000000E+00 -0.00000000000E+00 -0.10488419326E+03  0.10488419326E+03  0.00000000000E+00 0. -1.
          6    2    1    2  501    0  0.86233060011E+02 -0.78762716240E+02  0.75388748183E+02  0.22153584610E+03  0.17249626559E+03 0.  0.
         24    2    3    3    0    0  0.11140637378E+02 -0.23178870313E+02  0.93892907186E+02  0.12617899125E+03  0.80273818794E+02 0.  0.
         -6    2    1    2    0  502 -0.86233060011E+02  0.78762716240E+02  0.31226934874E+03  0.37589063735E+03  0.17361428219E+03 0.  0.
        -24    2    5    5    0    0 -0.11347393602E+02  0.94352791938E+02  0.24111007860E+03  0.27131222074E+03  0.80280996719E+02 0.  0.
          5    1    3    3  501    0  0.75092422633E+02 -0.55583845927E+02 -0.18504159003E+02  0.95356854842E+02  0.47000000000E+01 0. -1.
        -13    1    4    4    0    0  0.45281703844E+02 -0.19814967089E+02  0.62447854994E+02  0.79641698984E+02  0.00000000000E+00 0.  1.
         14    1    4    4    0    0 -0.34141066466E+02 -0.33639032239E+01  0.31445052192E+02  0.46537292269E+02  0.00000000000E+00 0. -1.
         -5    1    5    5    0  502 -0.74885666409E+02 -0.15590075698E+02  0.71159270143E+02  0.10457841661E+03  0.47000000000E+01 0.  1.
         11    1    6    6    0    0 -0.44634719430E+02  0.63432324323E+02  0.17100414749E+03  0.18777203308E+03  0.00000000000E+00 0. -1.
        -12    1    6    6    0    0  0.33287325828E+02  0.30920467615E+02  0.70105931108E+02  0.83540187664E+02  0.00000000000E+00 0.  1.
</event>
<event>
12    1  0.9017558E-003  0.1923474E+03  0.7818608E-02  0.1157015E+00
         21   -1    0    0  501  502  0.00000000000E+00  0.00000000000E+00  0.42540500307E+02  0.42540500307E+02  0.00000000000E+00 0.  1.
         21   -1    0    0  502  503 -0.00000000000E+00 -0.00000000000E+00 -0.86003743260E+03  0.86003743260E+03  0.00000000000E+00 0. -1.
          6    2    1    2  501    0 -0.78800213059E+02  0.14135961948E+02 -0.44065072601E+03  0.48080201996E+03  0.17489488579E+03 0.  0.
         24    2    3    3    0    0 -0.68777136496E+02  0.76560060709E+02 -0.30164252874E+03  0.32801917054E+03  0.77566898220E+02 0.  0.
         -6    2    1    2    0  503  0.78800213059E+02 -0.14135961948E+02 -0.37684620628E+03  0.42177591294E+03  0.17167573663E+03 0.  0.
        -24    2    5    5    0    0 -0.12207045178E+02 -0.38020306112E+02 -0.23863309187E+03  0.25451044148E+03  0.78963641357E+02 0.  0.
          5    1    3    3  501    0 -0.10023076563E+02 -0.62424098761E+02 -0.13900819727E+03  0.15278284943E+03  0.47000000000E+01 0. -1.
        -13    1    4    4    0    0 -0.22760193297E+02  0.45841698184E+02 -0.54521618557E+02  0.74780308781E+02  0.00000000000E+00 0.  1.
         14    1    4    4    0    0 -0.46016943199E+02  0.30718362525E+02 -0.24712091018E+03  0.25323886176E+03  0.00000000000E+00 0. -1.
         -5    1    5    5    0  503  0.91007258237E+02  0.23884344164E+02 -0.13821311441E+03  0.16726547146E+03  0.47000000000E+01 0.  1.
         13    1    6    6    0    0  0.14160775086E+02 -0.36316895099E+02 -0.21667871058E+03  0.22015700770E+03  0.00000000000E+00 0. -1.
        -14    1    6    6    0    0 -0.26367820264E+02 -0.17034110126E+01 -0.21954381295E+02  0.34353433782E+02  0.00000000000E+00 0.  1.
</event>
<event>
12    1  0.9017558E-003  0.1747565E+03  0.7818608E-02  0.1173094E+00
         21   -1    0    0  501  502  0.00000000000E+00  0.00000000000E+00  0.42191278417E+02  0.42191278417E+02  0.00000000000E+00 0.  1.
         21   -1    0    0  502  503 -0.00000000000E+00 -0.00000000000E+00 -0.79074979293E+03  0.79074979293E+03  0.00000000000E+00 0.  1.
          6    2    1    2  501    0  0.21440476674E+02  0.19120300081E+02 -0.25185916744E+03  0.30654995007E+03  0.17237909313E+03 0.  0.
         24    2    3    3    0    0 -0.86031914879E+01  0.71103824380E+01 -0.26047346997E+03  0.27273935519E+03  0.80098407397E+02 0.  0.
         -6    2    1    2    0  503 -0.21440476674E+02 -0.19120300081E+02 -0.49669934707E+03  0.52639112128E+03  0.17190721703E+03 0.  0.
        -24    2    5    5    0    0  0.75369662638E+00 -0.33049402483E+02 -0.49190796911E+03  0.49934211899E+03  0.79222917499E+02 0.  0.
          5    1    3    3  501    0  0.30043668161E+02  0.12009917643E+02  0.86143025247E+01  0.33810594883E+02  0.47000000000E+01 0. -1.
        -11    1    4    4    0    0 -0.16569187015E+02 -0.23102042282E+01 -0.57096088377E+01  0.17676952084E+02  0.00000000000E+00 0.  1.
         12    1    4    4    0    0  0.79659955267E+01  0.94205866662E+01 -0.25476386113E+03  0.25506240310E+03  0.00000000000E+00 0. -1.
         -5    1    5    5    0  503 -0.22194173300E+02  0.13929102402E+02 -0.47913779584E+01  0.27049002291E+02  0.47000000000E+01 0.  1.
         11    1    6    6    0    0 -0.23096506758E+01 -0.27164384691E+02 -0.46630311768E+02  0.54015037328E+02  0.00000000000E+00 0. -1.
        -12    1    6    6    0    0  0.30633473022E+01 -0.58850177913E+01 -0.44527765734E+03  0.44532708166E+03  0.00000000000E+00 0.  1.
</event>
<event>
12    1  0.9017558E-003  0.1819248E+03  0.7818608E-02  0.1166016E+00
         21   -1    0    0  503  502  0.00000000000E+00  0.00000000000E+00  0.15327712300E+03  0.15327712300E+03  0.00000000000E+00 0.  1.
         21   -1    0    0  501  503 -0.00000000000E+00 -0.00000000000E+00 -0.41024597872E+03  0.41024597872E+03  0.00000000000E+00 0.  1.
          6    2    1    2  501    0  0.29770640969E+02  0.50942553193E+02 -0.32260539936E+03  0.37036586463E+03  0.17209065982E+03 0.  0.
         24    2    3    3    0    0  0.80172539604E+02  0.29913347639E+02 -0.26873621564E+03  0.29351173119E+03  0.81286765692E+02 0.  0.
         -6    2    1    2    0  502 -0.29770640969E+02 -0.50942553193E+02  0.65636543640E+02  0.19315723709E+03  0.17181422406E+03 0.  0.
        -24    2    5    5    0    0 -0.24762815954E+02  0.17487414199E+02 -0.13651010112E+02  0.88198459808E+02  0.81692175427E+02 0.  0.
          5    1    3    3  501    0 -0.50401898635E+02  0.21029205554E+02 -0.53869183729E+02  0.76854133447E+02  0.47000000000E+01 0. -1.
        -11    1    4    4    0    0  0.64116838784E+02  0.25319150160E+02 -0.86954261218E+02  0.11096428220E+03  0.00000000000E+00 0.  1.
         12    1    4    4    0    0  0.16055700820E+02  0.45941974782E+01 -0.18178195442E+03  0.18254744899E+03  0.00000000000E+00 0. -1.
         -5    1    5    5    0  502 -0.50078250146E+01 -0.68429967391E+02  0.79287553752E+02  0.10495877728E+03  0.47000000000E+01 0.  1.
         11    1    6    6    0    0 -0.10987263505E+02 -0.32972979029E+02 -0.36805696593E+01  0.34949733881E+02  0.00000000000E+00 0. -1.
        -12    1    6    6    0    0 -0.13775552450E+02  0.50460393227E+02 -0.99704404531E+01  0.53248725926E+02  0.00000000000E+00 0.  1.
</event>
<event>
12    1  0.9017558E-003  0.2613024E+03  0.7818608E-02  0.1106851E+00
         21   -1    0    0  501  502  0.00000000000E+00  0.00000000000E+00  0.67960085023E+02  0.67960085023E+02  0.00000000000E+00 0.  1.
         21   -1    0    0  502  503 -0.00000000000E+00 -0.00000000000E+00 -0.10163461655E+04  0.10163461655E+04  0.00000000000E+00 0.  1.
          6    2    1    2  501    0 -0.16624987080E+03 -0.96525590659E+02 -0.55477017663E+03  0.61185265329E+03  0.17215548571E+03 0.  0.
         24    2    3    3    0    0 -0.23180470189E+02 -0.65962743250E+02 -0.18203133455E+03  0.21140381083E+03  0.81656272126E+02 0.  0.
         -6    2    1    2    0  503  0.16624987080E+03  0.96525590659E+02 -0.39361590387E+03  0.47245359726E+03  0.17698223808E+03 0.  0.
        -24    2    5    5    0    0  0.10166167385E+03  0.19673609186E+02 -0.32511887330E+03  0.35083207187E+03  0.81600943947E+02 0.  0.
          5    1    3    3  501    0 -0.14306940061E+03 -0.30562847409E+02 -0.37273884208E+03  0.40044884246E+03  0.47000000000E+01 0. -1.
        -13    1    4    4    0    0 -0.26205731259E+02 -0.34117625253E+02 -0.22215015161E+02  0.48417554692E+02  0.00000000000E+00 0.  1.
         14    1    4    4    0    0  0.30252610703E+01 -0.31845117997E+02 -0.15981631939E+03  0.16298625614E+03  0.00000000000E+00 0. -1.
         -5    1    5    5    0  503  0.64588196945E+02  0.76851981473E+02 -0.68497030574E+02  0.12162152539E+03  0.47000000000E+01 0.  1.
         11    1    6    6    0    0  0.84710246638E+02  0.24128748142E+01 -0.13649305209E+03  0.16066113755E+03  0.00000000000E+00 0. -1.
        -12    1    6    6    0    0  0.16951427213E+02  0.17260734372E+02 -0.18862582120E+03  0.19017093432E+03  0.00000000000E+00 0.  1.
</event>
<event>
12    1  0.9017558E-003  0.1815501E+03  0.7818608E-02  0.1166574E+00
         21   -1    0    0  503  502  0.00000000000E+00  0.00000000000E+00  0.20716144741E+03  0.20716144741E+03  0.00000000000E+00 0.  1.
         21   -1    0    0  501  503 -0.00000000000E+00 -0.00000000000E+00 -0.15815599043E+03  0.15815599043E+03  0.00000000000E+00 0.  1.
          6    2    1    2  501    0 -0.48639052934E+02 -0.24303125779E+02  0.26029692875E+02  0.18340657579E+03  0.17321670745E+03 0.  0.
         24    2    3    3    0    0 -0.89598190735E+02 -0.37671102042E+02  0.53046292867E+02  0.13233466146E+03  0.72467963432E+02 0.  0.
         -6    2    1    2    0  502  0.48639052934E+02  0.24303125779E+02  0.22975764110E+02  0.18191086205E+03  0.17206765124E+03 0.  0.
        -24    2    5    5    0    0 -0.40131178774E+02  0.16141280021E+02  0.27591186813E+02  0.92523156575E+02  0.76994860104E+02 0.  0.
          5    1    3    3  501    0  0.40959137801E+02  0.13367976263E+02 -0.27016599992E+02  0.51071914335E+02  0.47000000000E+01 0. -1.
        -11    1    4    4    0    0 -0.32925306786E+02  0.14194596815E+02 -0.47907592913E+01  0.36173384971E+02  0.00000000000E+00 0.  1.
         12    1    4    4    0    0 -0.56672883949E+02 -0.51865698857E+02  0.57837052158E+02  0.96161276485E+02  0.00000000000E+00 0. -1.
         -5    1    5    5    0  502  0.88770231708E+02  0.81618457581E+01 -0.46154227028E+01  0.89387705476E+02  0.47000000000E+01 0.  1.
         11    1    6    6    0    0 -0.18113146387E+02 -0.29990471798E+02  0.13445161792E+01  0.35061691266E+02  0.00000000000E+00 0. -1.
        -12    1    6    6    0    0 -0.22018032387E+02  0.46131751819E+02  0.26246670633E+02  0.57461465309E+02  0.00000000000E+00 0.  1.
</event>
<event>
12    1  0.9017558E-003  0.1773237E+03  0.7818608E-02  0.1170910E+00
         21   -1    0    0  503  502  0.00000000000E+00  0.00000000000E+00  0.10780807416E+04  0.10780807416E+04  0.00000000000E+00 0.  1.
         21   -1    0    0  501  503 -0.00000000000E+00 -0.00000000000E+00 -0.39050384562E+02  0.39050384562E+02  0.00000000000E+00 0.  1.
          6    2    1    2  501    0  0.24649430507E+02 -0.17472775703E+02  0.23607847928E+03  0.29525706221E+03  0.17473062722E+03 0.  0.
         24    2    3    3    0    0  0.70053356151E+02  0.33874473357E+02  0.18003332333E+03  0.20659362016E+03  0.64915127122E+02 0.  0.
         -6    2    1    2    0  502 -0.24649430507E+02  0.17472775703E+02  0.80295187774E+03  0.82187406393E+03  0.17272048718E+03 0.  0.
        -24    2    5    5    0    0  0.38097366707E+02  0.35712491200E+02  0.62027137521E+03  0.62780164501E+03  0.81679466205E+02 0.  0.
          5    1    3    3  501    0 -0.45403925644E+02 -0.51347249060E+02  0.56045155953E+02  0.88663442048E+02  0.47000000000E+01 0. -1.
        -13    1    4    4    0    0  0.19533953679E+02 -0.95236149825E+01  0.98836721063E+01  0.23873867784E+02  0.00000000000E+00 0.  1.
         14    1    4    4    0    0  0.50519402472E+02  0.43398088339E+02  0.17014965122E+03  0.18271975237E+03  0.00000000000E+00 0. -1.
         -5    1    5    5    0  502 -0.62746797214E+02 -0.18239715497E+02  0.18268050253E+03  0.19407241892E+03  0.47000000000E+01 0.  1.
         11    1    6    6    0    0 -0.10437915763E+01  0.50039027976E+02  0.23428797157E+03  0.23957430464E+03  0.00000000000E+00 0. -1.
        -12    1    6    6    0    0  0.39141158283E+02 -0.14326536776E+02  0.38598340364E+03  0.38822734038E+03  0.00000000000E+00 0.  1.
</event>
<event>
12    1  0.9017558E-003  0.2281377E+03  0.7818608E-02  0.1128057E+00
         21   -1    0    0  503  502  0.00000000000E+00  0.00000000000E+00  0.22130401959E+03  0.22130401959E+03  0.00000000000E+00 0. -1.
         21   -1    0    0  501  503 -0.00000000000E+00 -0.00000000000E+00 -0.25059225240E+03  0.25059225240E+03  0.00000000000E+00 0.  1.
          6    2    1    2  501    0 -0.75959912272E+02  0.12981565047E+03 -0.74226151412E+02  0.23937482540E+03  0.17078868260E+03 0.  0.
         24    2    3    3    0    0 -0.29744496144E+02  0.11587953861E+03 -0.10706962927E+03  0.18080124826E+03  0.83140744169E+02 0.  0.
         -6    2    1    2    0  502  0.75959912272E+02 -0.12981565047E+03  0.44937918608E+02  0.23252144659E+03  0.17153657107E+03 0.  0.
        -24    2    5    5    0    0 -0.17745732298E+02 -0.29906925797E+02  0.87568892581E+00  0.88555925803E+02  0.81437398892E+02 0.  0.
          5    1    3    3  501    0 -0.46215416128E+02  0.13936111864E+02  0.32843477857E+02  0.58573577145E+02  0.47000000000E+01 0. -1.
        -13    1    4    4    0    0 -0.26006092683E+02  0.12698996084E+03 -0.10843466040E+03  0.16899953429E+03  0.00000000000E+00 0.  1.
         14    1    4    4    0    0 -0.37384034608E+01 -0.11110422236E+02  0.13650311339E+01  0.11801713973E+02  0.00000000000E+00 0. -1.
         -5    1    5    5    0  502  0.93705644570E+02 -0.99908724676E+02  0.44062229682E+02  0.14396552079E+03  0.47000000000E+01 0.  1.
         11    1    6    6    0    0 -0.23644156174E+02 -0.24848861873E+02  0.37672134456E+02  0.50948030109E+02  0.00000000000E+00 0. -1.
        -12    1    6    6    0    0  0.58984238759E+01 -0.50580639235E+01 -0.36796445530E+02  0.37607895694E+02  0.00000000000E+00 0.  1.
</event>
<event>
12    1  0.9017558E-003  0.2067658E+03  0.7818608E-02  0.1144315E+00
         21   -1    0    0  503  502  0.00000000000E+00  0.00000000000E+00  0.73523143766E+02  0.73523143766E+02  0.00000000000E+00 0. -1.
         21   -1    0    0  501  503 -0.00000000000E+00 -0.00000000000E+00 -0.58994583958E+03  0.58994583958E+03  0.00000000000E+00 0. -1.
          6    2    1    2  501    0  0.10682079770E+03  0.40580030767E+02 -0.30341358404E+03  0.36716742616E+03  0.17232148482E+03 0.  0.
         24    2    3    3    0    0  0.48481624093E+02 -0.28538525368E+02 -0.23195169718E+03  0.25179964359E+03  0.80228145843E+02 0.  0.
         -6    2    1    2    0  502 -0.10682079770E+03 -0.40580030767E+02 -0.21300911177E+03  0.29630155718E+03  0.17136017441E+03 0.  0.
        -24    2    5    5    0    0 -0.94921871894E+02 -0.26773254630E+02 -0.56074716136E+02  0.13824237196E+03  0.78991206390E+02 0.  0.
          5    1    3    3  501    0  0.58339173611E+02  0.69118556135E+02 -0.71461886868E+02  0.11536778257E+03  0.47000000000E+01 0. -1.
        -11    1    4    4    0    0  0.37198830333E+02  0.18142742543E+02 -0.16019226786E+03  0.16545233382E+03  0.00000000000E+00 0.  1.
         12    1    4    4    0    0  0.11282793760E+02 -0.46681267911E+02 -0.71759429319E+02  0.86347309772E+02  0.00000000000E+00 0. -1.
         -5    1    5    5    0  502 -0.11898925809E+02 -0.13806776138E+02 -0.15693439563E+03  0.15805918523E+03  0.47000000000E+01 0.  1.
         13    1    6    6    0    0 -0.59767271388E+02 -0.38849347233E+02 -0.68685608196E+02  0.98990460565E+02  0.00000000000E+00 0. -1.
        -14    1    6    6    0    0 -0.35154600507E+02  0.12076092603E+02  0.12610892060E+02  0.39251911392E+02  0.00000000000E+00 0.  1.
</event>
<event>
12    1  0.9017558E-003  0.1780164E+03  0.7818608E-02  0.1170241E+00
         21   -1    0    0  501  502  0.00000000000E+00  0.00000000000E+00  0.49918905552E+02  0.49918905552E+02  0.00000000000E+00 0. -1.
         21   -1    0    0  502  503 -0.00000000000E+00 -0.00000000000E+00 -0.62777380161E+03  0.62777380161E+03  0.00000000000E+00 0. -1.
          6    2    1    2  501    0  0.14778340057E+02 -0.35361037845E+02 -0.29670369954E+03  0.34601003115E+03  0.17384203751E+03 0.  0.
         24    2    3    3    0    0  0.28090901415E+02 -0.74345270447E+02 -0.23401508439E+03  0.27085055303E+03  0.11081806882E+03 0.  0.
         -6    2    1    2    0  503 -0.14778340057E+02  0.35361037845E+02 -0.28115119651E+03  0.33168267600E+03  0.17175156456E+03 0.  0.
        -24    2    5    5    0    0  0.16731388706E+02  0.31686865344E+02 -0.28649044133E+03  0.29917175345E+03  0.78377090303E+02 0.  0.
          5    1    3    3  501    0 -0.13312561358E+02  0.38984232603E+02 -0.62688615153E+02  0.75159478121E+02  0.47000000000E+01 0. -1.
        -13    1    4    4    0    0  0.12402237731E+02 -0.23805012821E+02 -0.21173945629E+03  0.21343404481E+03  0.00000000000E+00 0.  1.
         14    1    4    4    0    0  0.15688663683E+02 -0.50540257626E+02 -0.22275628101E+02  0.57416508222E+02  0.00000000000E+00 0. -1.
         -5    1    5    5    0  503 -0.31509728764E+02  0.36741725006E+01  0.53392448157E+01  0.32510922557E+02  0.47000000000E+01 0.  1.
         11    1    6    6    0    0 -0.47501146741E+01  0.54413007836E+02 -0.19368543751E+03  0.20123962760E+03  0.00000000000E+00 0. -1.
        -12    1    6    6    0    0  0.21481503381E+02 -0.22726142492E+02 -0.92805003820E+02  0.97932125853E+02  0.00000000000E+00 0.  1.
</event>
<event>
12    1  0.9017558E-003  0.1809534E+03  0.7818608E-02  0.1167119E+00
         21   -1    0    0  503  502  0.00000000000E+00  0.00000000000E+00  0.17388963256E+03  0.17388963256E+03  0.00000000000E+00 0.  1.
         21   -1    0    0  501  503 -0.00000000000E+00 -0.00000000000E+00 -0.18800229131E+03  0.18800229131E+03  0.00000000000E+00 0.  1.
          6    2    1    2  501    0 -0.50961380222E+02  0.10871950710E+02  0.40652781177E+01  0.18099908017E+03  0.17328842705E+03 0.  0.
         24    2    3    3    0    0 -0.65803021924E+02  0.35126794925E+02 -0.48810029052E+02  0.12077898465E+03  0.81493648713E+02 0.  0.
         -6    2    1    2    0  502  0.50961380222E+02 -0.10871950710E+02 -0.18177936870E+02  0.18089284370E+03  0.17226874912E+03 0.  0.
        -24    2    5    5    0    0 -0.37026286112E+02  0.12595468360E+01 -0.24629292249E+02  0.91714860730E+02  0.80202751328E+02 0.  0.
          5    1    3    3  501    0  0.14841641702E+02 -0.24254844215E+02  0.52875307170E+02  0.60220095522E+02  0.47000000000E+01 0. -1.
        -13    1    4    4    0    0 -0.76625223063E+02  0.27617666369E+02 -0.12818590572E+02  0.82452874840E+02  0.00000000000E+00 0.  1.
         14    1    4    4    0    0  0.10822201139E+02  0.75091285561E+01 -0.35991438480E+02  0.38326109809E+02  0.00000000000E+00 0. -1.
         -5    1    5    5    0  502  0.87987666334E+02 -0.12131497546E+02  0.64513553785E+01  0.89177982966E+02  0.47000000000E+01 0.  1.
         13    1    6    6    0    0  0.74355526675E+01 -0.16509241048E+02  0.19492718218E+02  0.26604671526E+02  0.00000000000E+00 0. -1.
        -14    1    6    6    0    0 -0.44461838779E+02  0.17768787884E+02 -0.44122010467E+02  0.65110189204E+02  0.00000000000E+00 0.  1.
</event>
<event>
12    1  0.9017558E-003  0.2348589E+03  0.7818608E-02  0.1123550E+00
         21   -1    0    0  501  502  0.00000000000E+00  0.00000000000E+00  0.15558095516E+03  0.15558095516E+03  0.00000000000E+00 0.  1.
         21   -1    0    0  502  503 -0.00000000000E+00 -0.00000000000E+00 -0.38218743293E+03  0.38218743293E+03  0.00000000000E+00 0. -1.
          6    2    1    2  501    0  0.13499785266E+03  0.81036199118E+02 -0.18918674862E+03  0.30157974886E+03  0.17426254124E+03 0.  0.
         24    2    3    3    0    0  0.13637865483E+03  0.11862573862E+03 -0.15888625818E+03  0.25305048124E+03  0.78220839035E+02 0.  0.
         -6    2    1    2    0  503 -0.13499785266E+03 -0.81036199118E+02 -0.37419729154E+02  0.23618863923E+03  0.17202776340E+03 0.  0.
        -24    2    5    5    0    0 -0.12990942400E+02  0.20822278607E+01  0.61992881267E+01  0.82178679408E+02  0.80881418872E+02 0.  0.
          5    1    3    3  501    0 -0.13808021712E+01 -0.37589539505E+02 -0.30300490436E+02  0.48529267618E+02  0.47000000000E+01 0. -1.
        -13    1    4    4    0    0  0.45260115456E+02  0.36206819970E+02 -0.80648535528E+01  0.58518832236E+02  0.00000000000E+00 0.  1.
         14    1    4    4    0    0  0.91118539376E+02  0.82418918653E+02 -0.15082140463E+03  0.19453164901E+03  0.00000000000E+00 0. -1.
         -5    1    5    5    0  503 -0.12200691026E+03 -0.83118426979E+02 -0.43619017281E+02  0.15400995982E+03  0.47000000000E+01 0.  1.
         13    1    6    6    0    0 -0.12244051557E+02  0.33694319612E+02  0.26518486736E+02  0.44592085748E+02  0.00000000000E+00 0. -1.
        -14    1    6    6    0    0 -0.74689084365E+00 -0.31612091751E+02 -0.20319198610E+02  0.37586593660E+02  0.00000000000E+00 0.  1.
</event>
<event>
12    1  0.9017558E-003  0.1838768E+03  0.7818608E-02  0.1164306E+00
         21   -1    0    0  503  502  0.00000000000E+00  0.00000000000E+00  0.12430832068E+04  0.12430832068E+04  0.00000000000E+00 0. -1.
         21   -1    0    0  501  503 -0.00000000000E+00 -0.00000000000E+00 -0.27315593705E+02  0.27315593705E+02  0.00000000000E+00 0. -1.
          6    2    1    2  501    0 -0.53141684972E+02 -0.37808685367E+02  0.66643738545E+03  0.69111098445E+03  0.17100312493E+03 0.  0.
         24    2    3    3    0    0 -0.58295103664E+02  0.12892883071E+02  0.59651527247E+03  0.60445996802E+03  0.77310006442E+02 0.  0.
         -6    2    1    2    0  502  0.53141684972E+02  0.37808685367E+02  0.54933022769E+03  0.57928781610E+03  0.17192189929E+03 0.  0.
        -24    2    5    5    0    0  0.78714467579E+02  0.60661359120E+02  0.27784131473E+03  0.30560089319E+03  0.79500577693E+02 0.  0.
          5    1    3    3  501    0  0.51534186919E+01 -0.50701568438E+02  0.69922112976E+02  0.86651016436E+02  0.47000000000E+01 0. -1.
        -11    1    4    4    0    0 -0.48837250140E+02 -0.13538899609E+02  0.17996085804E+03  0.18696066226E+03  0.00000000000E+00 0.  1.
         12    1    4    4    0    0 -0.94578535233E+01  0.26431782680E+02  0.41655441443E+03  0.41749930576E+03  0.00000000000E+00 0. -1.
         -5    1    5    5    0  502 -0.25572782608E+02 -0.22852673753E+02  0.27148891296E+03  0.27368692291E+03  0.47000000000E+01 0.  1.
         13    1    6    6    0    0  0.14860725245E+01  0.13532323953E+02  0.14037574870E+03  0.14103433279E+03  0.00000000000E+00 0. -1.
        -14    1    6    6    0    0  0.77228395055E+02  0.47129035168E+02  0.13746556603E+03  0.16456656040E+03  0.00000000000E+00 0.  1.
</event>
<event>
12    1  0.9017558E-003  0.1965242E+03  0.7818608E-02  0.1153007E+00
         21   -1    0    0  501  502  0.00000000000E+00  0.00000000000E+00  0.10386161128E+02  0.10386161128E+02  0.00000000000E+00 0.  1.
         21   -1    0    0  502  503 -0.00000000000E+00 -0.00000000000E+00 -0.41973410015E+04  0.41973410015E+04  0.00000000000E+00 0. -1.
          6    2    1    2  501    0 -0.68732573015E+02  0.63719138237E+02 -0.13571479444E+04  0.13711043769E+04  0.17115015039E+03 0.  0.
         24    2    3    3    0    0  0.87180797225E+01  0.16207689227E+01 -0.88848581278E+03  0.89202077797E+03  0.78837789169E+02 0.  0.
         -6    2    1    2    0  503  0.68732573015E+02 -0.63719138237E+02 -0.28298068960E+04  0.28366227858E+04  0.17273524625E+03 0.  0.
        -24    2    5    5    0    0  0.94913676583E+02 -0.93613666284E+02 -0.22219941314E+04  0.22274942446E+04  0.81856979115E+02 0.  0.
          5    1    3    3  501    0 -0.77450652738E+02  0.62098369314E+02 -0.46866213166E+03  0.47908359890E+03  0.47000000000E+01 0. -1.
        -13    1    4    4    0    0 -0.19911240965E+02  0.13418952344E+02 -0.96934311313E+02  0.99863839844E+02  0.00000000000E+00 0.  1.
         14    1    4    4    0    0  0.28629320687E+02 -0.11798183421E+02 -0.79155150147E+03  0.79215693812E+03  0.00000000000E+00 0. -1.
         -5    1    5    5    0  503 -0.26181103568E+02  0.29894528047E+02 -0.60781276454E+03  0.60912854122E+03  0.47000000000E+01 0.  1.
         11    1    6    6    0    0  0.80384158587E+02 -0.61280561949E+02 -0.20113591391E+04  0.20138973427E+04  0.00000000000E+00 0. -1.
        -12    1    6    6    0    0  0.14529517996E+02 -0.32333104335E+02 -0.21063499230E+03  0.21359690193E+03  0.00000000000E+00 0.  1.
</event>
<event>
12    1  0.9017558E-003  0.1745736E+03  0.7818608E-02  0.1174428E+00
         21   -1    0    0  501  502  0.00000000000E+00  0.00000000000E+00  0.37293204528E+03  0.37293204528E+03  0.00000000000E+00 0.  1.
         21   -1    0    0  502  503 -0.00000000000E+00 -0.00000000000E+00 -0.20214882112E+03  0.20214882112E+03  0.00000000000E+00 0.  1.
          6    2    1    2  501    0  0.16238722615E+02  0.51963168114E+01  0.30894807398E+03  0.35244785674E+03  0.16875983373E+03 0.  0.
         24    2    3    3    0    0  0.53165186857E+02 -0.39895226413E+02  0.14623405890E+03  0.17954686849E+03  0.80215408867E+02 0.  0.
         -6    2    1    2    0  503 -0.16238722615E+02 -0.51963168114E+01 -0.13816484982E+03  0.22263300967E+03  0.17373898080E+03 0.  0.
        -24    2    5    5    0    0 -0.19378097882E+02  0.30697353747E+01  0.52857415410E+01  0.78833338405E+02  0.76169693629E+02 0.  0.
          5    1    3    3  501    0 -0.36926464242E+02  0.45091543224E+02  0.16271401508E+03  0.17290098824E+03  0.47000000000E+01 0. -1.
        -11    1    4    4    0    0  0.24684956748E+02  0.12078365743E+02  0.72010252561E+01  0.28409307866E+02  0.00000000000E+00 0.  1.
         12    1    4    4    0    0  0.28480230109E+02 -0.51973592156E+02  0.13903303364E+03  0.15113756063E+03  0.00000000000E+00 0. -1.
         -5    1    5    5    0  503  0.31393752669E+01 -0.82660521861E+01 -0.14345059136E+03  0.14379967127E+03  0.47000000000E+01 0.  1.
         13    1    6    6    0    0 -0.34487697712E+02 -0.23759913042E+02  0.17916833671E+02  0.45551593715E+02  0.00000000000E+00 0. -1.
        -14    1    6    6    0    0  0.15109599829E+02  0.26829648416E+02 -0.12631092130E+02  0.33281744689E+02  0.00000000000E+00 0.  1.
</event>
<event>
12    1  0.9017558E-003  0.2586878E+03  0.7818608E-02  0.1109547E+00
         21   -1    0    0  503  502  0.00000000000E+00  0.00000000000E+00  0.14982866885E+04  0.14982866885E+04  0.00000000000E+00 0.  1.
         21   -1    0    0  501  503 -0.00000000000E+00 -0.00000000000E+00 -0.47791597065E+02  0.47791597065E+02  0.00000000000E+00 0.  1.
          6    2    1    2  501    0  0.64051379791E+02  0.16588033098E+03  0.95962102489E+03  0.99121188406E+03  0.17323286125E+03 0.  0.
         24    2    3    3    0    0 -0.31809324968E+01  0.13675178149E+03  0.46364268049E+03  0.48982853339E+03  0.79096705847E+02 0.  0.
         -6    2    1    2    0  502 -0.64051379791E+02 -0.16588033098E+03  0.49087406650E+03  0.55486640147E+03  0.18788430178E+03 0.  0.
        -24    2    5    5    0    0  0.44169363695E+02 -0.59874413479E+02  0.18080510945E+03  0.20973768346E+03  0.75917917395E+02 0.  0.
          5    1    3    3  501    0  0.67232312288E+02  0.29128549489E+02  0.49597834440E+03  0.50138335067E+03  0.47000000000E+01 0. -1.
        -11    1    4    4    0    0  0.14341180420E+02  0.10872352503E+03  0.42526887436E+03  0.43918115835E+03  0.00000000000E+00 0.  1.
         12    1    4    4    0    0 -0.17522112917E+02  0.28028256460E+02  0.38373806134E+02  0.50647375040E+02  0.00000000000E+00 0. -1.
         -5    1    5    5    0  502 -0.10822074349E+03 -0.10600591750E+03  0.31006895705E+03  0.34512871801E+03  0.47000000000E+01 0.  1.
         13    1    6    6    0    0  0.18672628704E+02 -0.17941314081E+02  0.39438248391E+01  0.26193731464E+02  0.00000000000E+00 0. -1.
        -14    1    6    6    0    0  0.25496734992E+02 -0.41933099399E+02  0.17686128461E+03  0.18354395200E+03  0.00000000000E+00 0.  1.
</event>
<event>
12    1  0.9017558E-003  0.2384948E+03  0.7818608E-02  0.1122312E+00
         21   -1    0    0  501  502  0.00000000000E+00  0.00000000000E+00  0.82017536712E+02  0.82017536712E+02  0.00000000000E+00 0.  1.
         21   -1    0    0  502  503 -0.00000000000E+00 -0.00000000000E+00 -0.67834308210E+03  0.67834308210E+03  0.00000000000E+00 0.  1.
          6    2    1    2  501    0  0.15831129449E+03  0.54725191184E+02 -0.35047556397E+03  0.42392558176E+03  0.16977180397E+03 0.  0.
         24    2    3    3    0    0  0.14653217627E+03  0.26378346223E+01 -0.32447620948E+03  0.36434457159E+03  0.77353212428E+02 0.  0.
         -6    2    1    2    0  503 -0.15831129449E+03 -0.54725191184E+02 -0.24584998142E+03  0.33643503705E+03  0.15712736324E+03 0.  0.
        -24    2    5    5    0    0 -0.13818218684E+03 -0.41042215076E+02 -0.26066066434E+03  0.30755855633E+03  0.76612684744E+02 0.  0.
          5    1    3    3  501    0  0.11779118218E+02  0.52087356562E+02 -0.25999354485E+02  0.59581010173E+02  0.47000000000E+01 0. -1.
        -13    1    4    4    0    0  0.16857590059E+02 -0.20112140018E+02 -0.21239205836E+02  0.33760633632E+02  0.00000000000E+00 0.  1.
         14    1    4    4    0    0  0.12967458621E+03  0.22749974640E+02 -0.30323700365E+03  0.33058393796E+03  0.00000000000E+00 0. -1.
         -5    1    5    5    0  503 -0.20129107652E+02 -0.13682976108E+02  0.14810682918E+02  0.28876480715E+02  0.47000000000E+01 0.  1.
         13    1    6    6    0    0 -0.87084905357E+02 -0.55251324306E+02 -0.12597740649E+03  0.16280907998E+03  0.00000000000E+00 0. -1.
        -14    1    6    6    0    0 -0.51097281479E+02  0.14209109229E+02 -0.13468325785E+03  0.14474947635E+03  0.00000000000E+00 0.  1.
</event>
<event>
12    1  0.1179556E-002  0.1756495E+03  0.7818608E-02  0.1174110E+00
         21   -1    0    0  501  502  0.00000000000E+00  0.00000000000E+00  0.67315371667E+02  0.67315371667E+02  0.00000000000E+00 0.  1.
         21   -1    0    0  502  503 -0.00000000000E+00 -0.00000000000E+00 -0.43790408012E+03  0.43790408012E+03  0.00000000000E+00 0.  1.
          6    2    1    2  501    0  0.30433464130E+02  0.18325989408E+01 -0.18792289744E+03  0.25723098187E+03  0.17298326074E+03 0.  0.
         24    2    3    3    0    0  0.78779946094E+02 -0.79742367946E+01 -0.14750064919E+03  0.19328096624E+03  0.96598250716E+02 0.  0.
         -6    2    1    2    0  503 -0.30433464130E+02 -0.18325989408E+01 -0.18266581101E+03  0.24798846991E+03  0.16493007166E+03 0.  0.
        -24    2    5    5    0    0  0.20630798683E+02 -0.31391181324E+02 -0.51935600137E+02  0.10448325480E+03  0.82513076858E+02 0.  0.
          5    1    3    3  501    0 -0.48346481965E+02  0.98068357353E+01 -0.40422248249E+02  0.63950015629E+02  0.47000000000E+01 0. -1.
        -11    1    4    4    0    0  0.35901101215E+02 -0.52036153832E+02 -0.69265033148E+02  0.93777903533E+02  0.00000000000E+00 0.  1.
         12    1    4    4    0    0  0.42878844879E+02  0.44061917037E+02 -0.78235616042E+02  0.99503062710E+02  0.00000000000E+00 0. -1.
         -5    1    5    5    0  503 -0.51064262813E+02  0.29558582383E+02 -0.13073021087E+03  0.14350521511E+03  0.47000000000E+01 0.  1.
         11    1    6    6    0    0  0.17987201410E+02  0.56670921190E+00 -0.66768922903E+02  0.69151642349E+02  0.00000000000E+00 0. -1.
        -12    1    6    6    0    0  0.26435972735E+01 -0.31957890536E+02  0.14833322766E+02  0.35331612450E+02  0.00000000000E+00 0.  1.
</event>
<event>
12    1  0.9017558E-003  0.1992073E+03  0.7818608E-02  0.1151493E+00
         21   -1    0    0  501  502  0.00000000000E+00  0.00000000000E+00  0.34963467684E+03  0.34963467684E+03  0.00000000000E+00 0. -1.
         21   -1    0    0  502  503 -0.00000000000E+00 -0.00000000000E+00 -0.14610232417E+03  0.14610232417E+03  0.00000000000E+00 0. -1.
          6    2    1    2  501    0  0.76086215006E+02  0.63752563276E+02  0.22287893100E+03  0.29559241210E+03  0.16687227081E+03 0.  0.
         24    2    3    3    0    0  0.48141482075E+02  0.11662539442E+02  0.21501729599E+03  0.23577457206E+03  0.83087869944E+02 0.  0.
         -6    2    1    2    0  503 -0.76086215006E+02 -0.63752563276E+02 -0.19346578335E+02  0.20014458891E+03  0.17271382382E+03 0.  0.
        -24    2    5    5    0    0  0.72483162350E+01 -0.80010249551E+02 -0.49832799141E+01  0.11390451237E+03  0.80592969536E+02 0.  0.
          5    1    3    3  501    0  0.27944732931E+02  0.52090023834E+02  0.78616350099E+01  0.59817840037E+02  0.47000000000E+01 0. -1.
        -13    1    4    4    0    0  0.17665338091E+02 -0.32716561336E+02  0.50766046093E+02  0.62925582965E+02  0.00000000000E+00 0.  1.
         14    1    4    4    0    0  0.30476143984E+02  0.44379100778E+02  0.16425124990E+03  0.17284898909E+03  0.00000000000E+00 0. -1.
         -5    1    5    5    0  503 -0.83334531241E+02  0.16257686275E+02 -0.14363298421E+02  0.86240076540E+02  0.47000000000E+01 0.  1.
         13    1    6    6    0    0  0.20200488748E+02 -0.23775093175E+02  0.32532697460E+02  0.45074285409E+02  0.00000000000E+00 0. -1.
        -14    1    6    6    0    0 -0.12952172513E+02 -0.56235156376E+02 -0.37515977374E+02  0.68830226963E+02  0.00000000000E+00 0.  1.
</event>
<event>
12    1  0.9017558E-003  0.1902991E+03  0.7818608E-02  0.1158202E+00
         21   -1    0    0  503  502  0.00000000000E+00  0.00000000000E+00  0.41983806849E+03  0.41983806849E+03  0.00000000000E+00 0. -1.
         21   -1    0    0  501  503 -0.00000000000E+00 -0.00000000000E+00 -0.11768879607E+03  0.11768879607E+03  0.00000000000E+00 0. -1.
          6    2    1    2  501    0  0.39854766810E+02 -0.71307283001E+02  0.12146908244E+02  0.19068637067E+03  0.17187383027E+03 0.  0.
         24    2    3    3    0    0  0.41976861301E+01  0.97899688118E+01  0.48273663309E+02  0.94897936679E+02  0.81004986010E+02 0.  0.
         -6    2    1    2    0  502 -0.39854766810E+02  0.71307283001E+02  0.29000236418E+03  0.34684049389E+03  0.17182498633E+03 0.  0.
        -24    2    5    5    0    0  0.37551169704E+02  0.76123038772E+01  0.14471902149E+03  0.17026736729E+03  0.81113153480E+02 0.  0.
          5    1    3    3  501    0  0.35657080680E+02 -0.81097251813E+02 -0.36126755066E+02  0.95788433987E+02  0.47000000000E+01 0. -1.
        -13    1    4    4    0    0 -0.33189138231E+02 -0.14539218627E+02  0.28529391607E+02  0.46117610088E+02  0.00000000000E+00 0.  1.
         14    1    4    4    0    0  0.37386824361E+02  0.24329187439E+02  0.19744271702E+02  0.48780326591E+02  0.00000000000E+00 0. -1.
         -5    1    5    5    0  502 -0.77405936514E+02  0.63694979124E+02  0.14528334269E+03  0.17657312660E+03  0.47000000000E+01 0.  1.
         11    1    6    6    0    0 -0.17116659140E+02  0.14148079967E+02  0.89789982432E+02  0.92495346543E+02  0.00000000000E+00 0. -1.
        -12    1    6    6    0    0  0.54667828844E+02 -0.65357760902E+01  0.54929039054E+02  0.77772020747E+02  0.00000000000E+00 0.  1.
</event>
<event>
12    1  0.9017558E-003  0.2467449E+03  0.7818608E-02  0.1115438E+00
         21   -1    0    0  501  502  0.00000000000E+00  0.00000000000E+00  0.58983442061E+03  0.58983442061E+03  0.00000000000E+00 0.  1.
         21   -1    0    0  502  503 -0.00000000000E+00 -0.00000000000E+00 -0.11122900403E+03  0.11122900403E+03  0.00000000000E+00 0.  1.
          6    2    1    2  501    0 -0.16990276592E+03  0.47677572302E+02  0.33441447103E+03  0.41559126743E+03  0.17246148081E+03 0.  0.
         24    2    3    3    0    0 -0.18974387969E+03  0.67308753369E+02  0.31524520589E+03  0.38140642003E+03  0.74552727956E+02 0.  0.
         -6    2    1    2    0  503  0.16990276592E+03 -0.47677572302E+02  0.14419094554E+03  0.28547215721E+03  0.17193959113E+03 0.  0.
        -24    2    5    5    0    0  0.39728981567E+02 -0.24834978980E+02 -0.11595571113E+02  0.81123124976E+02  0.65202269740E+02 0.  0.
          5    1    3    3  501    0  0.19841113768E+02 -0.19631181067E+02  0.19169265144E+02  0.34184847401E+02  0.47000000000E+01 0. -1.
        -11    1    4    4    0    0 -0.11122731406E+02  0.61727301796E+01  0.73919099876E+02  0.75005673641E+02  0.00000000000E+00 0.  1.
         12    1    4    4    0    0 -0.17862114829E+03  0.61136023189E+02  0.24132610601E+03  0.30640074639E+03  0.00000000000E+00 0. -1.
         -5    1    5    5    0  503  0.13017378436E+03 -0.22842593321E+02  0.15578651665E+03  0.20434903223E+03  0.47000000000E+01 0.  1.
         11    1    6    6    0    0  0.87743888443E+01  0.17992532718E+02  0.11904493292E+02  0.23290300422E+02  0.00000000000E+00 0. -1.
        -12    1    6    6    0    0  0.30954592723E+02 -0.42827511698E+02 -0.23500064405E+02  0.57832824554E+02  0.00000000000E+00 0.  1.
</event>
<event>
12    1  0.9017558E-003  0.1926660E+03  0.7818608E-02  0.1157346E+00
         21   -1    0    0  503  502  0.00000000000E+00  0.00000000000E+00  0.40879995136E+03  0.40879995136E+03  0.00000000000E+00 0.  1.
         21   -1    0    0  501  503 -0.00000000000E+00 -0.00000000000E+00 -0.10767022680E+03  0.10767022680E+03  0.00000000000E+00 0.  1.
          6    2    1    2  501    0  0.60758241386E+02  0.41828848597E+02  0.38836971538E+02  0.19102021449E+03  0.17186970506E+03 0.  0.
         24    2    3    3    0    0 -0.17787955411E+02  0.47200641948E+02 -0.17205399791E+02  0.94266927318E+02  0.77755487562E+02 0.  0.
         -6    2    1    2    0  502 -0.60758241386E+02 -0.41828848597E+02  0.26229275302E+03  0.32544996366E+03  0.17798588171E+03 0.  0.
        -24    2    5    5    0    0 -0.94463117833E+02  0.14751737096E+02  0.19597788828E+03  0.23187041109E+03  0.78839460086E+02 0.  0.
          5    1    3    3  501    0  0.78546196797E+02 -0.53717933509E+01  0.56042371330E+02  0.96753287176E+02  0.47000000000E+01 0. -1.
        -11    1    4    4    0    0 -0.26250345372E+02 -0.86391634593E+01  0.12639630339E+02  0.30388748453E+02  0.00000000000E+00 0.  1.
         12    1    4    4    0    0  0.84623899604E+01  0.55839805407E+02 -0.29845030130E+02  0.63878178866E+02  0.00000000000E+00 0. -1.
         -5    1    5    5    0  502  0.33704876448E+02 -0.56580585693E+02  0.66314864741E+02  0.93579552570E+02  0.47000000000E+01 0.  1.
         13    1    6    6    0    0 -0.61876878841E+02  0.47241602047E+02  0.12653053994E+03  0.14856141706E+03  0.00000000000E+00 0. -1.
        -14    1    6    6    0    0 -0.32586238992E+02 -0.32489864952E+02  0.69447348337E+02  0.83308994036E+02  0.00000000000E+00 0.  1.
</event>
<event>
12    1  0.9017558E-003  0.1753737E+03  0.7818608E-02  0.1173935E+00
         21   -1    0    0  501  502  0.00000000000E+00  0.00000000000E+00  0.27125741355E+04  0.27125741355E+04  0.00000000000E+00 0.  1.
         21   -1    0    0  502  503 -0.00000000000E+00 -0.00000000000E+00 -0.12056600241E+02  0.12056600241E+02  0.00000000000E+00 0.  1.
          6    2    1    2  501    0 -0.11699609186E+02 -0.30553518329E+02  0.17424014142E+04  0.17505966279E+04  0.16599839500E+03 0.  0.
         24    2    3    3    0    0  0.18869638206E+02  0.11339268765E+02  0.15173015400E+04  0.15195521996E+04  0.79688655020E+02 0.  0.
         -6    2    1    2    0  503  0.11699609186E+02  0.30553518329E+02  0.95811612109E+03  0.97403410785E+03  0.17229493153E+03 0.  0.
        -24    2    5    5    0    0  0.39578839219E+02 -0.15438066434E+02  0.27694005589E+03  0.29072202751E+03  0.77580179915E+02 0.  0.
          5    1    3    3  501    0 -0.30569247392E+02 -0.41892787093E+02  0.22509987422E+03  0.23104442835E+03  0.47000000000E+01 0. -1.
        -13    1    4    4    0    0 -0.24526446672E+02  0.27041525095E+02  0.68532813797E+03  0.68629982323E+03  0.00000000000E+00 0.  1.
         14    1    4    4    0    0  0.43396084878E+02 -0.15702256331E+02  0.83197340203E+03  0.83325237637E+03  0.00000000000E+00 0. -1.
         -5    1    5    5    0  503 -0.27879230033E+02  0.45991584763E+02  0.68117606520E+03  0.68331208034E+03  0.47000000000E+01 0.  1.
         13    1    6    6    0    0  0.17964415399E+02 -0.11497272015E+02  0.26472730075E+03  0.26558511111E+03  0.00000000000E+00 0. -1.
        -14    1    6    6    0    0  0.21614423820E+02 -0.39407944192E+01  0.12212755137E+02  0.25136916394E+02  0.00000000000E+00 0.  1.
</event>
<event>
12    1  0.9017558E-003  0.1767538E+03  0.7818608E-02  0.1171087E+00
         21   -1    0    0  501  502  0.00000000000E+00  0.00000000000E+00  0.75655496632E+03  0.75655496632E+03  0.00000000000E+00 0.  1.
         21   -1    0    0  502  503 -0.00000000000E+00 -0.00000000000E+00 -0.52683974102E+02  0.52683974102E+02  0.00000000000E+00 0.  1.
          6    2    1    2  501    0  0.40532281916E+02 -0.58504668258E+01  0.54054498707E+03  0.56857879947E+03  0.17151056621E+03 0.  0.
         24    2    3    3    0    0 -0.11244842680E+02 -0.56443155037E+02  0.37635232857E+03  0.38907445457E+03  0.80159713970E+02 0.  0.
         -6    2    1    2    0  503 -0.40532281916E+02  0.58504668258E+01  0.16332600514E+03  0.24066014095E+03  0.17194425156E+03 0.  0.
        -24    2    5    5    0    0  0.10400604865E+02  0.54567185364E+02  0.13459529427E+03  0.16440385354E+03  0.76334680988E+02 0.  0.
          5    1    3    3  501    0  0.51777124595E+02  0.50592688211E+02  0.16419265850E+03  0.17950434490E+03  0.47000000000E+01 0. -1.
        -11    1    4    4    0    0  0.81270162701E+00 -0.75533807295E+02  0.30609471932E+03  0.31527764546E+03  0.00000000000E+00 0.  1.
         12    1    4    4    0    0 -0.12057544307E+02  0.19090652259E+02  0.70257609249E+02  0.73796809116E+02  0.00000000000E+00 0. -1.
         -5    1    5    5    0  503 -0.50932886781E+02 -0.48716718538E+02  0.28730710878E+02  0.76256287404E+02  0.47000000000E+01 0.  1.
         13    1    6    6    0    0  0.33926870050E+02  0.42671603285E+02  0.12496310847E+03  0.13633663014E+03  0.00000000000E+00 0. -1.
        -14    1    6    6    0    0 -0.23526265184E+02  0.11895582079E+02  0.96321857915E+01  0.28067223404E+02  0.00000000000E+00 0.  1.
</event>
<event>
12    1  0.9017558E-003  0.2395805E+03  0.7818608E-02  0.1120516E+00
         21   -1    0    0  501  502  0.00000000000E+00  0.00000000000E+00  0.77043182661E+03  0.77043182661E+03  0.00000000000E+00 0.  1.
         21   -1    0    0  502  503 -0.00000000000E+00 -0.00000000000E+00 -0.98238415383E+02  0.98238415383E+02  0.00000000000E+00 0.  1.
          6    2    1    2  501    0 -0.14711185118E+03 -0.79257995263E+02  0.55463899862E+03  0.60417151106E+03  0.17168304931E+03 0.  0.
         24    2    3    3    0    0 -0.14886148325E+03 -0.85239108967E+02  0.33967315199E+03  0.38906400271E+03  0.81040120481E+02 0.  0.
         -6    2    1    2    0  503  0.14711185118E+03  0.79257995263E+02  0.11755441261E+03  0.26449873093E+03  0.16797860628E+03 0.  0.
        -24    2    5    5    0    0  0.14337530678E+02  0.64237582578E+02  0.33669546937E+02  0.10665895878E+03  0.76879537564E+02 0.  0.
          5    1    3    3  501    0  0.17496320680E+01  0.59811137044E+01  0.21496584663E+03  0.21510750836E+03  0.47000000000E+01 0. -1.
        -11    1    4    4    0    0 -0.41765425251E+02 -0.69705124064E+02  0.15544805589E+03  0.17540596668E+03  0.00000000000E+00 0.  1.
         12    1    4    4    0    0 -0.10709605800E+03 -0.15533984903E+02  0.18422509609E+03  0.21365803602E+03  0.00000000000E+00 0. -1.
         -5    1    5    5    0  503  0.13277432051E+03  0.15020412685E+02  0.83884865670E+02  0.15783977215E+03  0.47000000000E+01 0.  1.
         13    1    6    6    0    0  0.11463558707E+02  0.60572510057E+02  0.56340437116E+02  0.83514591583E+02  0.00000000000E+00 0. -1.
        -14    1    6    6    0    0  0.28739719708E+01  0.36650725212E+01 -0.22670890180E+02  0.23144367199E+02  0.00000000000E+00 0.  1.
</event>
<event>
12    1  0.9017558E-003  0.1964853E+03  0.7818608E-02  0.1152842E+00
         21   -1    0    0  501  502  0.00000000000E+00  0.00000000000E+00  0.24135721070E+03  0.24135721070E+03  0.00000000000E+00 0.  1.
         21   -1    0    0  502  503 -0.00000000000E+00 -0.00000000000E+00 -0.17511395499E+03  0.17511395499E+03  0.00000000000E+00 0.  1.
          6    2    1    2  501    0 -0.63897901257E+02  0.70633236412E+02  0.95204029440E+02  0.21833528677E+03  0.17185602799E+03 0.  0.
         24    2    3    3    0    0 -0.31309494628E+02  0.33002176851E+02 -0.18179133774E+02  0.94416230158E+02  0.80712548477E+02 0.  0.
         -6    2    1    2    0  503  0.63897901257E+02 -0.70633236412E+02 -0.28960773737E+02  0.19813587892E+03  0.17130996535E+03 0.  0.
        -24    2    5    5    0    0 -0.23820166410E+02 -0.50510227295E+02  0.14094746682E+02  0.98259641859E+02  0.79609119735E+02 0.  0.
          5    1    3    3  501    0 -0.32588406629E+02  0.37631059561E+02  0.11338316321E+03  0.12391905661E+03  0.47000000000E+01 0. -1.
        -11    1    4    4    0    0  0.48961815579E+01  0.51030173183E+02 -0.34809531031E+01  0.51382567116E+02  0.00000000000E+00 0.  1.
         12    1    4    4    0    0 -0.36205676185E+02 -0.18027996332E+02 -0.14698180671E+02  0.43033663042E+02  0.00000000000E+00 0. -1.
         -5    1    5    5    0  503  0.87718067667E+02 -0.20123009117E+02 -0.43055520418E+02  0.99876237062E+02  0.47000000000E+01 0.  1.
         11    1    6    6    0    0 -0.36075455592E+01  0.21270494594E+02  0.94196218536E+01  0.23540977064E+02  0.00000000000E+00 0. -1.
        -12    1    6    6    0    0 -0.20212620851E+02 -0.71780721890E+02  0.46751248283E+01  0.74718664796E+02  0.00000000000E+00 0.  1.
</event>
<event>
12    1  0.9017558E-003  0.2111341E+03  0.7818608E-02  0.1140691E+00
         21   -1    0    0  503  502  0.00000000000E+00  0.00000000000E+00  0.13217431252E+04  0.13217431252E+04  0.00000000000E+00 0.  1.
         21   -1    0    0  501  503 -0.00000000000E+00 -0.00000000000E+00 -0.60533404194E+02  0.60533404194E+02  0.00000000000E+00 0.  1.
          6    2    1    2  501    0  0.41851856775E+02  0.11418759727E+03  0.17061948482E+03  0.27145650804E+03  0.17258980813E+03 0.  0.
         24    2    3    3    0    0 -0.44174758363E+01  0.12718493248E+02  0.23323617472E+02  0.86645813680E+02  0.82354306099E+02 0.  0.
         -6    2    1    2    0  502 -0.41851856775E+02 -0.11418759727E+03  0.10905902362E+04  0.11108200213E+04  0.17246353612E+03 0.  0.
        -24    2    5    5    0    0 -0.24377776050E+02 -0.14947200065E+03  0.89418008667E+03  0.91044694569E+03  0.80121523778E+02 0.  0.
          5    1    3    3  501    0  0.46269332612E+02  0.10146910402E+03  0.14729586735E+03  0.18481069436E+03  0.47000000000E+01 0. -1.
        -11    1    4    4    0    0 -0.10261548305E+02  0.37251446028E+02  0.40622312587E+02  0.56063730563E+02  0.00000000000E+00 0.  1.
         12    1    4    4    0    0  0.58440724689E+01 -0.24532952780E+02 -0.17298695114E+02  0.30582083117E+02  0.00000000000E+00 0. -1.
         -5    1    5    5    0  502 -0.17474080726E+02  0.35284403378E+02  0.19641014951E+03  0.20037307566E+03  0.47000000000E+01 0.  1.
         13    1    6    6    0    0  0.47023270947E+01 -0.87167763454E+01  0.81252660614E+01  0.12810699377E+02  0.00000000000E+00 0. -1.
        -14    1    6    6    0    0 -0.29080103144E+02 -0.14075522430E+03  0.88605482061E+03  0.89763624631E+03  0.00000000000E+00 0.  1.
</event>
<event>
12    1  0.9017558E-003  0.2899077E+03  0.7818608E-02  0.1090483E+00
         21   -1    0    0  501  502  0.00000000000E+00  0.00000000000E+00  0.75373924913E+03  0.75373924913E+03  0.00000000000E+00 0.  1.
         21   -1    0    0  502  503 -0.00000000000E+00 -0.00000000000E+00 -0.15392499454E+03  0.15392499454E+03  0.00000000000E+00 0.  1.
          6    2    1    2  501    0  0.17793611588E+03 -0.14851582021E+03  0.61200758044E+02  0.29629720605E+03  0.17415019765E+03 0.  0.
         24    2    3    3    0    0  0.12592812218E+03 -0.12341825395E+03 -0.22150281599E+02  0.19478757572E+03  0.79759684777E+02 0.  0.
         -6    2    1    2    0  503 -0.17793611588E+03  0.14851582021E+03  0.53861349655E+03  0.61136703762E+03  0.17305185881E+03 0.  0.
        -24    2    5    5    0    0 -0.42707714575E+02  0.11836482807E+03  0.24706058531E+03  0.28853427457E+03  0.79868099889E+02 0.  0.
          5    1    3    3  501    0  0.52007993699E+02 -0.25097566255E+02  0.83351039643E+02  0.10150963033E+03  0.47000000000E+01 0. -1.
        -13    1    4    4    0    0  0.15821327232E+01 -0.34110530637E+01 -0.21651752077E+02  0.21975822964E+02  0.00000000000E+00 0.  1.
         14    1    4    4    0    0  0.12434598945E+03 -0.12000720089E+03 -0.49852952192E+00  0.17281175275E+03  0.00000000000E+00 0. -1.
         -5    1    5    5    0  503 -0.13522840130E+03  0.30150992135E+02  0.29155291124E+03  0.32283276305E+03  0.47000000000E+01 0.  1.
         13    1    6    6    0    0 -0.40131188204E+02  0.12592770879E+03  0.19318793339E+03  0.23407237708E+03  0.00000000000E+00 0. -1.
        -14    1    6    6    0    0 -0.25765263707E+01 -0.75628807146E+01  0.53872651922E+02  0.54461897488E+02  0.00000000000E+00 0.  1.
</event>
<event>
12    1  0.9017558E-003  0.2579778E+03  0.7818608E-02  0.1108385E+00
         21   -1    0    0  503  502  0.00000000000E+00  0.00000000000E+00  0.87455007452E+03  0.87455007452E+03  0.00000000000E+00 0.  1.
         21   -1    0    0  501  503 -0.00000000000E+00 -0.00000000000E+00 -0.92240291180E+02  0.92240291180E+02  0.00000000000E+00 0. -1.
          6    2    1    2  501    0 -0.16480591079E+03  0.96364125200E+02  0.18877203508E+03  0.31966769005E+03  0.17350941754E+03 0.  0.
         24    2    3    3    0    0 -0.14045910522E+02  0.11973701249E+02  0.84300047874E+02  0.11771025036E+03  0.80053406199E+02 0.  0.
         -6    2    1    2    0  502  0.16480591079E+03 -0.96364125200E+02  0.59353774826E+03  0.64712267565E+03  0.17330223852E+03 0.  0.
        -24    2    5    5    0    0  0.98654411223E+02 -0.37691047805E+02  0.16931188552E+03  0.21375421403E+03  0.76622721835E+02 0.  0.
          5    1    3    3  501    0 -0.15076000027E+03  0.84390423951E+02  0.10447198721E+03  0.20195743969E+03  0.47000000000E+01 0. -1.
        -13    1    4    4    0    0  0.50883954327E+01  0.42904049977E+02  0.60125048843E+02  0.74038306105E+02  0.00000000000E+00 0.  1.
         14    1    4    4    0    0 -0.19134305954E+02 -0.30930348728E+02  0.24174999030E+02  0.43671944254E+02  0.00000000000E+00 0. -1.
         -5    1    5    5    0  502  0.66151499566E+02 -0.58673077395E+02  0.42422586274E+03  0.43336846162E+03  0.47000000000E+01 0.  1.
         11    1    6    6    0    0  0.27529000372E+02  0.23849823944E+02  0.47051094974E+02  0.59501810912E+02  0.00000000000E+00 0. -1.
        -12    1    6    6    0    0  0.71125410851E+02 -0.61540871749E+02  0.12226079054E+03  0.15425240312E+03  0.00000000000E+00 0.  1.
</event>
<event>
12    1  0.9017558E-003  0.1937178E+03  0.7818608E-02  0.1156959E+00
         21   -1    0    0  503  502  0.00000000000E+00  0.00000000000E+00  0.54565819116E+03  0.54565819116E+03  0.00000000000E+00 0.  1.
         21   -1    0    0  501  503 -0.00000000000E+00 -0.00000000000E+00 -0.67284931723E+02  0.67284931723E+02  0.00000000000E+00 0. -1.
          6    2    1    2  501    0 -0.60274980811E+02  0.37318556631E+02  0.20096830427E+03  0.27913227701E+03  0.18027984017E+03 0.  0.
         24    2    3    3    0    0  0.22674858257E+02 -0.28525084087E+02  0.95663753307E+02  0.12970938962E+03  0.79656402375E+02 0.  0.
         -6    2    1    2    0  502  0.60274980811E+02 -0.37318556631E+02  0.27740495517E+03  0.33381084587E+03  0.17161125746E+03 0.  0.
        -24    2    5    5    0    0  0.78115293451E+01  0.40945886162E+02  0.12264217239E+03  0.15256144399E+03  0.80599666012E+02 0.  0.
          5    1    3    3  501    0 -0.82949839068E+02  0.65843640719E+02  0.10530455096E+03  0.14942288739E+03  0.47000000000E+01 0. -1.
        -11    1    4    4    0    0 -0.50891195810E+00 -0.52756136403E+02  0.69039083072E+02  0.86889952877E+02  0.00000000000E+00 0.  1.
         12    1    4    4    0    0  0.23183770215E+02  0.24231052316E+02  0.26624670234E+02  0.42819436741E+02  0.00000000000E+00 0. -1.
         -5    1    5    5    0  502  0.52463451466E+02 -0.78264442794E+02  0.15476278278E+03  0.18124940187E+03  0.47000000000E+01 0.  1.
         11    1    6    6    0    0  0.24822908959E+01  0.48826156724E+02  0.25849433508E+02  0.55302337756E+02  0.00000000000E+00 0. -1.
        -12    1    6    6    0    0  0.53292384492E+01 -0.78802705619E+01  0.96792738878E+02  0.97259106237E+02  0.00000000000E+00 0.  1.
</event>
<event>
12    1  0.9017558E-003  0.1816618E+03  0.7818608E-02  0.1166719E+00
         21   -1    0    0  503  502  0.00000000000E+00  0.00000000000E+00  0.64505328773E+03  0.64505328773E+03  0.00000000000E+00 0.  1.
         21   -1    0    0  501  503 -0.00000000000E+00 -0.00000000000E+00 -0.79068993404E+02  0.79068993404E+02  0.00000000000E+00 0.  1.
          6    2    1    2  501    0 -0.19843772093E+02  0.55446151696E+02  0.64516759905E+02  0.19076434832E+03  0.16958942554E+03 0.  0.
         24    2    3    3    0    0  0.25542791571E+01  0.55745077943E+02 -0.23916919472E+02  0.99416837659E+02  0.78725158090E+02 0.  0.
         -6    2    1    2    0  502  0.19843772093E+02 -0.55446151696E+02  0.50146753442E+03  0.53335793281E+03  0.17185152133E+03 0.  0.
        -24    2    5    5    0    0  0.67641712384E+02 -0.18799138838E+02  0.21625405490E+03  0.24181639967E+03  0.82344070895E+02 0.  0.
          5    1    3    3  501    0 -0.22398051250E+02 -0.29892624716E+00  0.88433679377E+02  0.91347510665E+02  0.47000000000E+01 0. -1.
        -11    1    4    4    0    0 -0.29564496141E+02  0.14199018121E+02 -0.32538782134E+02  0.46200042104E+02  0.00000000000E+00 0.  1.
         12    1    4    4    0    0  0.32118775298E+02  0.41546059822E+02  0.86218626623E+01  0.53216795555E+02  0.00000000000E+00 0. -1.
         -5    1    5    5    0  502 -0.47797940292E+02 -0.36647012858E+02  0.28521347952E+03  0.29154153314E+03  0.47000000000E+01 0.  1.
         13    1    6    6    0    0 -0.17093077633E+01  0.11724680283E+02 -0.84086862271E+00  0.11878422488E+02  0.00000000000E+00 0. -1.
        -14    1    6    6    0    0  0.69351020148E+02 -0.30523819121E+02  0.21709492353E+03  0.22993797718E+03  0.00000000000E+00 0.  1.
</event>
<event>
12    1  0.9017558E-003  0.2614436E+03  0.7818608E-02  0.1106373E+00
         21   -1    0    0  503  502  0.00000000000E+00  0.00000000000E+00  0.89962072295E+02  0.89962072295E+02  0.00000000000E+00 0. -1.
         21   -1    0    0  501  503 -0.00000000000E+00 -0.00000000000E+00 -0.83533176294E+03  0.83533176294E+03  0.00000000000E+00 0.  1.
          6    2    1    2  501    0 -0.10144134690E+03  0.16805440165E+03 -0.51306991600E+03  0.57555685252E+03  0.17173329032E+03 0.  0.
         24    2    3    3    0    0 -0.18428700618E+02  0.43037604164E+02 -0.30685943934E+03  0.32047813961E+03  0.79697365555E+02 0.  0.
         -6    2    1    2    0  502  0.10144134690E+03 -0.16805440165E+03 -0.23229977464E+03  0.34973698271E+03  0.17268509781E+03 0.  0.
        -24    2    5    5    0    0  0.89002348681E+02 -0.34760977604E+02 -0.84121045967E+02  0.14998490838E+03  0.79305603408E+02 0.  0.
          5    1    3    3  501    0 -0.83012646287E+02  0.12501679748E+03 -0.20621047666E+03  0.25507871291E+03  0.47000000000E+01 0. -1.
        -11    1    4    4    0    0 -0.40204271297E+02  0.63201218074E+01 -0.81334210781E+02  0.90948233702E+02  0.00000000000E+00 0.  1.
         12    1    4    4    0    0  0.21775570679E+02  0.36717482357E+02 -0.22552522856E+03  0.22952990590E+03  0.00000000000E+00 0. -1.
         -5    1    5    5    0  502  0.12438998224E+02 -0.13329342404E+03 -0.14817872868E+03  0.19975207434E+03  0.47000000000E+01 0.  1.
         13    1    6    6    0    0  0.68266007045E+02 -0.59151815049E+02 -0.50192455367E+02  0.10333667073E+03  0.00000000000E+00 0. -1.
        -14    1    6    6    0    0  0.20736341636E+02  0.24390837445E+02 -0.33928590600E+02  0.46648237649E+02  0.00000000000E+00 0.  1.
</event>
<event>
12    1  0.9017558E-003  0.1937382E+03  0.7818608E-02  0.1155165E+00
         21   -1    0    0  501  502  0.00000000000E+00  0.00000000000E+00  0.71765733196E+02  0.71765733196E+02  0.00000000000E+00 0.  1.
         21   -1    0    0  502  503 -0.00000000000E+00 -0.00000000000E+00 -0.81635151707E+03  0.81635151707E+03  0.00000000000E+00 0.  1.
          6    2    1    2  501    0 -0.11207338866E+01 -0.88121920414E+02 -0.10582972185E+03  0.22062657575E+03  0.17236422772E+03 0.  0.
         24    2    3    3    0    0  0.65006784131E+02 -0.55643484955E+02 -0.46061843560E+02  0.12564243663E+03  0.79638238612E+02 0.  0.
         -6    2    1    2    0  503  0.11207338866E+01  0.88121920414E+02 -0.63875606202E+03  0.66749067451E+03  0.17253337327E+03 0.  0.
        -24    2    5    5    0    0  0.30942440375E+02  0.86006422845E+02 -0.62053096705E+03  0.63216287250E+03  0.78845906198E+02 0.  0.
          5    1    3    3  501    0 -0.66127518018E+02 -0.32478435459E+02 -0.59767878293E+02  0.94984139122E+02  0.47000000000E+01 0. -1.
        -11    1    4    4    0    0  0.68734342456E+01 -0.54458679864E+02 -0.64099473329E+01  0.55263725314E+02  0.00000000000E+00 0.  1.
         12    1    4    4    0    0  0.58133349886E+02 -0.11848050910E+01 -0.39651896227E+02  0.70378711316E+02  0.00000000000E+00 0. -1.
         -5    1    5    5    0  503 -0.29821706489E+02  0.21154975686E+01 -0.18225094973E+02  0.35327802007E+02  0.47000000000E+01 0.  1.
         13    1    6    6    0    0 -0.25390649317E+02  0.41683604790E+02 -0.23268629256E+03  0.23775011825E+03  0.00000000000E+00 0. -1.
        -14    1    6    6    0    0  0.56333089692E+02  0.44322818055E+02 -0.38784467448E+03  0.39441275425E+03  0.00000000000E+00 0.  1.
</event>
<event>
12    1  0.9017558E-003  0.2228948E+03  0.7818608E-02  0.1133113E+00
         21   -1    0    0  503  502  0.00000000000E+00  0.00000000000E+00  0.92183276360E+02  0.92183276360E+02  0.00000000000E+00 0.  1.
         21   -1    0    0  501  503 -0.00000000000E+00 -0.00000000000E+00 -0.52135542985E+03  0.52135542985E+03  0.00000000000E+00 0. -1.
          6    2    1    2  501    0  0.10836581457E+03  0.88455208207E+02 -0.21685862141E+03  0.31098193092E+03  0.17353566218E+03 0.  0.
         24    2    3    3    0    0  0.11065219002E+03  0.94242228336E+02 -0.98745815811E+02  0.19261199401E+03  0.78886876857E+02 0.  0.
         -6    2    1    2    0  502 -0.10836581457E+03 -0.88455208207E+02 -0.21231353208E+03  0.30255677529E+03  0.16400028277E+03 0.  0.
        -24    2    5    5    0    0 -0.55302383522E+02 -0.94393871783E+02 -0.71348718599E+02  0.15174509114E+03  0.77248795365E+02 0.  0.
          5    1    3    3  501    0 -0.22863754507E+01 -0.57870201291E+01 -0.11811280560E+03  0.11836993690E+03  0.47000000000E+01 0. -1.
        -13    1    4    4    0    0  0.98799533313E+02  0.47038060248E+02 -0.40431067945E+02  0.11665589634E+03  0.00000000000E+00 0.  1.
         14    1    4    4    0    0  0.11852656706E+02  0.47204168088E+02 -0.58314747866E+02  0.75956097679E+02  0.00000000000E+00 0. -1.
         -5    1    5    5    0  502 -0.53063431046E+02  0.59386635756E+01 -0.14096481348E+03  0.15081168416E+03  0.47000000000E+01 0.  1.
         11    1    6    6    0    0 -0.15917153505E+02 -0.67738268093E+02 -0.77081740023E+02  0.10384326355E+03  0.00000000000E+00 0. -1.
        -12    1    6    6    0    0 -0.39385230017E+02 -0.26655603690E+02  0.57330214233E+01  0.47901827587E+02  0.00000000000E+00 0.  1.
</event>
<event>
12    1  0.9017558E-003  0.2205970E+03  0.7818608E-02  0.1133670E+00
         21   -1    0    0  501  502  0.00000000000E+00  0.00000000000E+00  0.26909504378E+03  0.26909504378E+03  0.00000000000E+00 0. -1.
         21   -1    0    0  502  503 -0.00000000000E+00 -0.00000000000E+00 -0.29137046196E+03  0.29137046196E+03  0.00000000000E+00 0. -1.
          6    2    1    2  501    0 -0.20533002857E+02 -0.13554332021E+03  0.16223219569E+03  0.27382897928E+03  0.17282774289E+03 0.  0.
         24    2    3    3    0    0 -0.31185205148E+02 -0.14807975026E+03  0.77885992085E+02  0.18776502889E+03  0.79305415046E+02 0.  0.
         -6    2    1    2    0  503  0.20533002857E+02  0.13554332021E+03 -0.18450761387E+03  0.28663652647E+03  0.17124205930E+03 0.  0.
        -24    2    5    5    0    0  0.63695953494E+02  0.51389566616E+02 -0.14411495701E+03  0.18368726091E+03  0.79207492945E+02 0.  0.
          5    1    3    3  501    0  0.10652202292E+02  0.12536430052E+02  0.84346203610E+02  0.86063950383E+02  0.47000000000E+01 0. -1.
        -13    1    4    4    0    0  0.23720049934E+02 -0.75283438552E+02  0.27475302642E+02  0.83577085043E+02  0.00000000000E+00 0.  1.
         14    1    4    4    0    0 -0.54905255082E+02 -0.72796311706E+02  0.50410689442E+02  0.10418794385E+03  0.00000000000E+00 0. -1.
         -5    1    5    5    0  503 -0.43162950637E+02  0.84153753590E+02 -0.40392656863E+02  0.10294926556E+03  0.47000000000E+01 0.  1.
         13    1    6    6    0    0  0.32886631307E+01  0.12538362506E+01 -0.85857436651E+02  0.85929545785E+02  0.00000000000E+00 0. -1.
        -14    1    6    6    0    0  0.60407290363E+02  0.50135730365E+02 -0.58257520356E+02  0.97757715124E+02  0.00000000000E+00 0.  1.
</event>
<event>
12    1  0.9017558E-003  0.3709256E+03  0.7818608E-02  0.1054573E+00
         21   -1    0    0  501  502  0.00000000000E+00  0.00000000000E+00  0.75674926475E+03  0.75674926475E+03  0.00000000000E+00 0. -1.
         21   -1    0    0  502  503 -0.00000000000E+00 -0.00000000000E+00 -0.18073376840E+03  0.18073376840E+03  0.00000000000E+00 0. -1.
          6    2    1    2  501    0 -0.94820143641E+02 -0.31139716945E+03  0.27711379611E+03  0.46300957189E+03  0.17783911517E+03 0.  0.
         24    2    3    3    0    0 -0.11280911959E+03 -0.15144690508E+03  0.19191036396E+03  0.28082997595E+03  0.79836239106E+02 0.  0.
         -6    2    1    2    0  503  0.94820143641E+02  0.31139716945E+03  0.29890170025E+03  0.47447346126E+03  0.17269563470E+03 0.  0.
        -24    2    5    5    0    0  0.70799974362E+02  0.27118877031E+03  0.17219987511E+03  0.33931012900E+03  0.83202050094E+02 0.  0.
          5    1    3    3  501    0  0.17988975947E+02 -0.15995026437E+03  0.85203432146E+02  0.18217959594E+03  0.47000000000E+01 0. -1.
        -13    1    4    4    0    0 -0.12106389332E+00 -0.59333008597E+02  0.60469824674E+02  0.84717296119E+02  0.00000000000E+00 0.  1.
         14    1    4    4    0    0 -0.11268805569E+03 -0.92113896485E+02  0.13144053929E+03  0.19611267983E+03  0.00000000000E+00 0. -1.
         -5    1    5    5    0  503  0.24020169279E+02  0.40208399141E+02  0.12670182514E+03  0.13516333226E+03  0.47000000000E+01 0.  1.
         11    1    6    6    0    0  0.75242327439E+02  0.12360248888E+03  0.83761755091E+02  0.16719753201E+03  0.00000000000E+00 0. -1.
        -12    1    6    6    0    0 -0.44423530771E+01  0.14758628144E+03  0.88438120017E+02  0.17211259699E+03  0.00000000000E+00 0.  1.
</event>
<event>
12    1  0.9017558E-003  0.2515943E+03  0.7818608E-02  0.1112458E+00
         21   -1    0    0  501  502  0.00000000000E+00  0.00000000000E+00  0.18551385620E+03  0.18551385620E+03  0.00000000000E+00 0. -1.
         21   -1    0    0  502  503 -0.00000000000E+00 -0.00000000000E+00 -0.42549696646E+03  0.42549696646E+03  0.00000000000E+00 0. -1.
          6    2    1    2  501    0 -0.17025108729E+03  0.67905037127E+02 -0.25723400992E+03  0.35981804535E+03  0.17234605627E+03 0.  0.
         24    2    3    3    0    0 -0.10571623402E+03  0.10461435753E+03 -0.13081113387E+03  0.21313077569E+03  0.78696180763E+02 0.  0.
         -6    2    1    2    0  503  0.17025108729E+03 -0.67905037127E+02  0.17250899652E+02  0.25119277730E+03  0.17089087466E+03 0.  0.
        -24    2    5    5    0    0  0.10416174108E+03 -0.87627838597E+02  0.62248445948E+02  0.16870847727E+03  0.77841986591E+02 0.  0.
          5    1    3    3  501    0 -0.64534853269E+02 -0.36709320405E+02 -0.12642287605E+03  0.14668726965E+03  0.47000000000E+01 0. -1.
        -11    1    4    4    0    0 -0.81428653993E+02  0.54403268305E+02 -0.38396330069E+02  0.10518849488E+03  0.00000000000E+00 0.  1.
         12    1    4    4    0    0 -0.24287580028E+02  0.50211089227E+02 -0.92414803800E+02  0.10794228081E+03  0.00000000000E+00 0. -1.
         -5    1    5    5    0  503  0.66089346208E+02  0.19722801470E+02 -0.44997546296E+02  0.82484300037E+02  0.47000000000E+01 0.  1.
         13    1    6    6    0    0  0.10717627353E+03 -0.49468061690E+02  0.52610705165E+02  0.12923516949E+03  0.00000000000E+00 0. -1.
        -14    1    6    6    0    0 -0.30145324475E+01 -0.38159776907E+02  0.96377407830E+01  0.39473307778E+02  0.00000000000E+00 0.  1.
</event>
<event>
12    1  0.9017558E-003  0.2337076E+03  0.7818608E-02  0.1124941E+00
         21   -1    0    0  503  502  0.00000000000E+00  0.00000000000E+00  0.11068702907E+03  0.11068702907E+03  0.00000000000E+00 0. -1.
         21   -1    0    0  501  503 -0.00000000000E+00 -0.00000000000E+00 -0.48290072360E+03  0.48290072360E+03  0.00000000000E+00 0. -1.
          6    2    1    2  501    0  0.11494560282E+03 -0.10855990634E+03 -0.18819194252E+03  0.29612643104E+03  0.16515723133E+03 0.  0.
         24    2    3    3    0    0  0.38714603044E+02  0.42657803872E+01 -0.98830405541E+02  0.13318970957E+03  0.80343215679E+02 0.  0.
         -6    2    1    2    0  502 -0.11494560282E+03  0.10855990634E+03 -0.18402175200E+03  0.29746132163E+03  0.17210894160E+03 0.  0.
        -24    2    5    5    0    0 -0.74350225597E+02  0.12131766777E+03 -0.74617657219E+02  0.17997902047E+03  0.81109311928E+02 0.  0.
          5    1    3    3  501    0  0.76230999775E+02 -0.11282568673E+03 -0.89361536980E+02  0.16293672147E+03  0.47000000000E+01 0. -1.
        -13    1    4    4    0    0 -0.19183804947E+01 -0.33556840171E+02 -0.33421650547E+02  0.47399877967E+02  0.00000000000E+00 0.  1.
         14    1    4    4    0    0  0.40632983539E+02  0.37822620559E+02 -0.65408754994E+02  0.85789831606E+02  0.00000000000E+00 0. -1.
         -5    1    5    5    0  502 -0.40595377222E+02 -0.12757761430E+02 -0.10940409479E+03  0.11748230115E+03  0.47000000000E+01 0.  1.
         13    1    6    6    0    0 -0.74277542688E+02  0.11519251986E+03 -0.89627889217E+02  0.16376699455E+03  0.00000000000E+00 0. -1.
        -14    1    6    6    0    0 -0.72682908628E-01  0.61251479094E+01  0.15010231998E+02  0.16212025917E+02  0.00000000000E+00 0.  1.
</event>
<event>
12    1  0.9017558E-003  0.1878534E+03  0.7818608E-02  0.1160749E+00
         21   -1    0    0  501  502  0.00000000000E+00  0.00000000000E+00  0.66573507283E+02  0.66573507283E+02  0.00000000000E+00 0. -1.
         21   -1    0    0  502  503 -0.00000000000E+00 -0.00000000000E+00 -0.56028101406E+03  0.56028101406E+03  0.00000000000E+00 0. -1.
          6    2    1    2  501    0  0.31891892474E+02  0.66904428928E+02 -0.32353342383E+03  0.37338237157E+03  0.17101819683E+03 0.  0.
         24    2    3    3    0    0 -0.52109997605E+02  0.27730219730E+02 -0.15827992548E+03  0.18385204439E+03  0.72557718265E+02 0.  0.
         -6    2    1    2    0  503 -0.31891892474E+02 -0.66904428928E+02 -0.17017408294E+03  0.25347214977E+03  0.17261406892E+03 0.  0.
        -24    2    5    5    0    0 -0.78454047458E+02 -0.67311718555E+02 -0.82460088311E+02  0.15405366549E+03  0.79037716757E+02 0.  0.
          5    1    3    3  501    0  0.84001890080E+02  0.39174209198E+02 -0.16525349834E+03  0.18953032717E+03  0.47000000000E+01 0. -1.
        -11    1    4    4    0    0 -0.21688322735E+02  0.19419525215E+02 -0.78495761013E+01  0.30151569571E+02  0.00000000000E+00 0.  1.
         12    1    4    4    0    0 -0.30421674870E+02  0.83106945155E+01 -0.15043034938E+03  0.15370047482E+03  0.00000000000E+00 0. -1.
         -5    1    5    5    0  503  0.46562154984E+02  0.40728962667E+00 -0.87713994634E+02  0.99418484279E+02  0.47000000000E+01 0.  1.
         13    1    6    6    0    0 -0.33802226430E+02 -0.62376823353E+02 -0.14226241495E+02  0.72359135914E+02  0.00000000000E+00 0. -1.
        -14    1    6    6    0    0 -0.44651821028E+02 -0.49348952023E+01 -0.68233846816E+02  0.81694529579E+02  0.00000000000E+00 0.  1.
</event>
<event>
12    1  0.9017558E-003  0.2124139E+03  0.7818608E-02  0.1140157E+00
         21   -1    0    0  503  502  0.00000000000E+00  0.00000000000E+00  0.33790886088E+02  0.33790886088E+02  0.00000000000E+00 0. -1.
         21   -1    0    0  501  503 -0.00000000000E+00 -0.00000000000E+00 -0.18121246988E+04  0.18121246988E+04  0.00000000000E+00 0.  1.
          6    2    1    2  501    0  0.79029725166E+02 -0.91773481454E+02 -0.13664897330E+04  0.13825202816E+04  0.17146448409E+03 0.  0.
         24    2    3    3    0    0  0.25123406106E+02  0.11918124120E+02 -0.72282539718E+03  0.72831564428E+03  0.84816836005E+02 0.  0.
         -6    2    1    2    0  502 -0.79029725166E+02  0.91773481454E+02 -0.41184407975E+03  0.46339530332E+03  0.17450384453E+03 0.  0.
        -24    2    5    5    0    0 -0.34351584837E+02  0.75514500642E+02 -0.39666080638E+03  0.41326435010E+03  0.81025653687E+02 0.  0.
          5    1    3    3  501    0  0.53906319060E+02 -0.10369160557E+03 -0.64366433581E+03  0.65420463733E+03  0.47000000000E+01 0. -1.
        -13    1    4    4    0    0  0.54476865144E+02  0.74378398059E+01 -0.56901961871E+03  0.57166981447E+03  0.00000000000E+00 0.  1.
         14    1    4    4    0    0 -0.29353459038E+02  0.44802843144E+01 -0.15380577847E+03  0.15664582980E+03  0.00000000000E+00 0. -1.
         -5    1    5    5    0  502 -0.44678140329E+02  0.16258980812E+02 -0.15183273364E+02  0.50130953216E+02  0.47000000000E+01 0.  1.
         11    1    6    6    0    0 -0.52310608038E+02  0.32828052908E+02 -0.14867977942E+03  0.16099614151E+03  0.00000000000E+00 0. -1.
        -12    1    6    6    0    0  0.17959023201E+02  0.42686447734E+02 -0.24798102696E+03  0.25226820859E+03  0.00000000000E+00 0.  1.
</event>
<event>
12    1  0.9017558E-003  0.5417199E+03  0.7818608E-02  0.1003541E+00
         21   -1    0    0  501  502  0.00000000000E+00  0.00000000000E+00  0.21727831522E+03  0.21727831522E+03  0.00000000000E+00 0.  1.
         21   -1    0    0  502  503 -0.00000000000E+00 -0.00000000000E+00 -0.14896962198E+04  0.14896962198E+04  0.00000000000E+00 0. -1.
          6    2    1    2  501    0 -0.44516582741E+03 -0.25315815809E+03 -0.37000885111E+03  0.65445251947E+03  0.17070408147E+03 0.  0.
         24    2    3    3    0    0 -0.17498972689E+03 -0.12835419652E+03 -0.22927410125E+03  0.32521170496E+03  0.78101442110E+02 0.  0.
         -6    2    1    2    0  503  0.44516582741E+03  0.25315815809E+03 -0.90240905349E+03  0.10525220156E+04  0.17663189565E+03 0.  0.
        -24    2    5    5    0    0  0.11767679203E+03  0.11049875535E+03 -0.25050629899E+03  0.30915127039E+03  0.82239283997E+02 0.  0.
          5    1    3    3  501    0 -0.27017610052E+03 -0.12480396157E+03 -0.14073474987E+03  0.32924081451E+03  0.47000000000E+01 0. -1.
        -11    1    4    4    0    0 -0.36271379770E+02  0.38223652179E+01 -0.20498327049E+02  0.41837840266E+02  0.00000000000E+00 0.  1.
         12    1    4    4    0    0 -0.13871834712E+03 -0.13217656174E+03 -0.20877577420E+03  0.28337386470E+03  0.00000000000E+00 0. -1.
         -5    1    5    5    0  503  0.32748903538E+03  0.14265940274E+03 -0.65190275450E+03  0.74337074519E+03  0.47000000000E+01 0.  1.
         13    1    6    6    0    0  0.40983931196E+02  0.13033919178E+02 -0.12715938048E+03  0.13423514335E+03  0.00000000000E+00 0. -1.
        -14    1    6    6    0    0  0.76692860834E+02  0.97464836171E+02 -0.12334691851E+03  0.17491612704E+03  0.00000000000E+00 0.  1.
</event>
<event>
12    1  0.9017558E-003  0.1904582E+03  0.7818608E-02  0.1159186E+00
         21   -1    0    0  501  502  0.00000000000E+00  0.00000000000E+00  0.26957259066E+03  0.26957259066E+03  0.00000000000E+00 0.  1.
         21   -1    0    0  502  503 -0.00000000000E+00 -0.00000000000E+00 -0.21504425540E+03  0.21504425540E+03  0.00000000000E+00 0.  1.
          6    2    1    2  501    0  0.36026457019E+02 -0.48872175436E+02  0.17890303213E+03  0.26130563037E+03  0.18052130739E+03 0.  0.
         24    2    3    3    0    0 -0.21911176396E+02  0.30226491378E+02  0.54437671056E+02  0.10279038011E+03  0.78795061909E+02 0.  0.
         -6    2    1    2    0  503 -0.36026457019E+02  0.48872175436E+02 -0.12437469688E+03  0.22331121568E+03  0.17524964676E+03 0.  0.
        -24    2    5    5    0    0 -0.39869559370E+02  0.55175781227E+02  0.15035695214E+01  0.97129074181E+02  0.69266497903E+02 0.  0.
          5    1    3    3  501    0  0.57937633414E+02 -0.79098666814E+02  0.12446536108E+03  0.15851525026E+03  0.47000000000E+01 0. -1.
        -13    1    4    4    0    0 -0.18353178195E+02  0.15764022993E+02  0.74199700167E+02  0.78044468578E+02  0.00000000000E+00 0.  1.
         14    1    4    4    0    0 -0.35579982006E+01  0.14462468385E+02 -0.19762029111E+02  0.24745911533E+02  0.00000000000E+00 0. -1.
         -5    1    5    5    0  503  0.38431023511E+01 -0.63036057907E+01 -0.12587826640E+03  0.12618214150E+03  0.47000000000E+01 0.  1.
         11    1    6    6    0    0 -0.88956407785E+01  0.20750742216E+02  0.33817132674E+02  0.40661089381E+02  0.00000000000E+00 0. -1.
        -12    1    6    6    0    0 -0.30973918591E+02  0.34425039011E+02 -0.32313563153E+02  0.56467984800E+02  0.00000000000E+00 0.  1.
</event>
<event>
12    1  0.9017558E-003  0.1828040E+03  0.7818608E-02  0.1165237E+00
         21   -1    0    0  501  502  0.00000000000E+00  0.00000000000E+00  0.16804791971E+04  0.16804791971E+04  0.00000000000E+00 0. -1.
         21   -1    0    0  502  503 -0.00000000000E+00 -0.00000000000E+00 -0.25247048497E+02  0.25247048497E+02  0.00000000000E+00 0. -1.
          6    2    1    2  501    0  0.59870167521E+02 -0.10004374083E+01  0.12235621207E+04  0.12371424971E+04  0.17271901189E+03 0.  0.
         24    2    3    3    0    0  0.49409406377E+02  0.17621551560E+02  0.36099451113E+03  0.37429768076E+03  0.83844548049E+02 0.  0.
         -6    2    1    2    0  503 -0.59870167521E+02  0.10004374083E+01  0.43167002787E+03  0.46858374847E+03  0.17218094707E+03 0.  0.
        -24    2    5    5    0    0  0.57171404062E+01 -0.68609308494E+01  0.97632554375E+02  0.12804502854E+03  0.82362950371E+02 0.  0.
          5    1    3    3  501    0  0.10460761144E+02 -0.18621988969E+02  0.86256760956E+03  0.86284481633E+03  0.47000000000E+01 0. -1.
        -11    1    4    4    0    0  0.48738508901E+02 -0.25866942631E+02  0.18906142899E+03  0.19694863519E+03  0.00000000000E+00 0.  1.
         12    1    4    4    0    0  0.67089747604E+00  0.43488494192E+02  0.17193308214E+03  0.17734904557E+03  0.00000000000E+00 0. -1.
         -5    1    5    5    0  503 -0.65587307927E+02  0.78613682577E+01  0.33403747349E+03  0.34053871992E+03  0.47000000000E+01 0.  1.
         11    1    6    6    0    0  0.16741199884E+01  0.20779536389E+02 -0.52001249640E+01  0.21485648929E+02  0.00000000000E+00 0. -1.
        -12    1    6    6    0    0  0.40430204179E+01 -0.27640467238E+02  0.10283267934E+03  0.10655937961E+03  0.00000000000E+00 0.  1.
</event>
<event>
12    1  0.9017558E-003  0.1925053E+03  0.7818608E-02  0.1156237E+00
         21   -1    0    0  503  502  0.00000000000E+00  0.00000000000E+00  0.42579242360E+02  0.42579242360E+02  0.00000000000E+00 0.  1.
         21   -1    0    0  501  503 -0.00000000000E+00 -0.00000000000E+00 -0.87238339993E+03  0.87238339993E+03  0.00000000000E+00 0. -1.
          6    2    1    2  501    0 -0.74065340374E+02  0.44300443896E+02 -0.43882479985E+03  0.47919255662E+03  0.17207584778E+03 0.  0.
         24    2    3    3    0    0 -0.42579975173E+01 -0.33049281016E+02 -0.19249277836E+03  0.21169003351E+03  0.81540266430E+02 0.  0.
         -6    2    1    2    0  502  0.74065340374E+02 -0.44300443896E+02 -0.39097935772E+03  0.43577008566E+03  0.17199565524E+03 0.  0.
        -24    2    5    5    0    0  0.11676427487E+03 -0.26224557943E+02 -0.32636451541E+03  0.35610136842E+03  0.77283661585E+02 0.  0.
          5    1    3    3  501    0 -0.69807342857E+02  0.77349724912E+02 -0.24633202149E+03  0.26750252311E+03  0.47000000000E+01 0. -1.
        -13    1    4    4    0    0 -0.55710658179E+01  0.25667939317E+02 -0.36188772861E+02  0.44715849140E+02  0.00000000000E+00 0.  1.
         14    1    4    4    0    0  0.13130683006E+01 -0.58717220333E+02 -0.15630400550E+03  0.16697418437E+03  0.00000000000E+00 0. -1.
         -5    1    5    5    0  502 -0.42698934497E+02 -0.18075885953E+02 -0.64614842309E+02  0.79668717240E+02  0.47000000000E+01 0.  1.
         11    1    6    6    0    0  0.49099923442E+02  0.16918183169E+02 -0.68011257093E+02  0.85571949231E+02  0.00000000000E+00 0. -1.
        -12    1    6    6    0    0  0.67664351429E+02 -0.43142741113E+02 -0.25835325832E+03  0.27052941919E+03  0.00000000000E+00 0.  1.
</event>
<event>
12    1  0.9017558E-003  0.2040851E+03  0.7818608E-02  0.1146783E+00
         21   -1    0    0  503  502  0.00000000000E+00  0.00000000000E+00  0.73327121339E+03  0.73327121339E+03  0.00000000000E+00 0.  1.
         21   -1    0    0  501  503 -0.00000000000E+00 -0.00000000000E+00 -0.56210780662E+02  0.56210780662E+02  0.00000000000E+00 0.  1.
          6    2    1    2  501    0 -0.91005326775E+02  0.52598434710E+02  0.34517429803E+03  0.40099379410E+03  0.17493473656E+03 0.  0.
         24    2    3    3    0    0 -0.12867220090E+03  0.41920780293E+02  0.23072920343E+03  0.27994597137E+03  0.82582652351E+02 0.  0.
         -6    2    1    2    0  502  0.91005326775E+02 -0.52598434710E+02  0.33188613470E+03  0.38848819995E+03  0.17241261629E+03 0.  0.
        -24    2    5    5    0    0  0.99820058098E+01 -0.20482668260E+02  0.26546199681E+03  0.27880475959E+03  0.82114810351E+02 0.  0.
          5    1    3    3  501    0  0.37666874122E+02  0.10677654417E+02  0.11444509460E+03  0.12104782273E+03  0.47000000000E+01 0. -1.
        -11    1    4    4    0    0 -0.44877402238E+02  0.57874894137E+02  0.10623953834E+03  0.12903613490E+03  0.00000000000E+00 0.  1.
         12    1    4    4    0    0 -0.83794798659E+02 -0.15954113844E+02  0.12448966508E+03  0.15090983647E+03  0.00000000000E+00 0. -1.
         -5    1    5    5    0  502  0.81023320965E+02 -0.32115766451E+02  0.66424137891E+02  0.10968344036E+03  0.47000000000E+01 0.  1.
         11    1    6    6    0    0  0.44322612950E+02 -0.23720077164E+02  0.17129678988E+03  0.17852094080E+03  0.00000000000E+00 0. -1.
        -12    1    6    6    0    0 -0.34340607140E+02  0.32374089049E+01  0.94165206930E+02  0.10028381879E+03  0.00000000000E+00 0.  1.
</event>
<event>
12    1  0.9017558E-003  0.1804884E+03  0.7818608E-02  0.1167606E+00
         21   -1    0    0  503  502  0.00000000000E+00  0.00000000000E+00  0.38685716617E+02  0.38685716617E+02  0.00000000000E+00 0.  1.
         21   -1    0    0  501  503 -0.00000000000E+00 -0.00000000000E+00 -0.84174553868E+03  0.84174553868E+03  0.00000000000E+00 0.  1.
          6    2    1    2  501    0 -0.48801407349E+02 -0.15308719539E+02 -0.36642279753E+03  0.40796118136E+03  0.17190324224E+03 0.  0.
         24    2    3    3    0    0 -0.24368527998E+01 -0.22412599580E+02 -0.67878495793E+02  0.10571802241E+03  0.77849516375E+02 0.  0.
         -6    2    1    2    0  502  0.48801407349E+02  0.15308719539E+02 -0.43663702453E+03  0.47247007394E+03  0.17308999198E+03 0.  0.
        -24    2    5    5    0    0 -0.29091228796E+02 -0.26414482796E+02 -0.16787210107E+03  0.18951289968E+03  0.78677012747E+02 0.  0.
          5    1    3    3  501    0 -0.46364554550E+02  0.71038800413E+01 -0.29854430174E+03  0.30224315895E+03  0.47000000000E+01 0. -1.
        -13    1    4    4    0    0  0.33488468687E+02 -0.92271580467E+01 -0.96711822778E+01  0.36057589316E+02  0.00000000000E+00 0.  1.
         14    1    4    4    0    0 -0.35925321487E+02 -0.13185441533E+02 -0.58207313515E+02  0.69660433095E+02  0.00000000000E+00 0. -1.
         -5    1    5    5    0  502  0.77892636145E+02  0.41723202334E+02 -0.26876492346E+03  0.28295717425E+03  0.47000000000E+01 0.  1.
         11    1    6    6    0    0 -0.21456583762E+02  0.63763228549E+01 -0.46593296740E+01  0.22863766813E+02  0.00000000000E+00 0. -1.
        -12    1    6    6    0    0 -0.76346450343E+01 -0.32790805651E+02 -0.16321277139E+03  0.16664913287E+03  0.00000000000E+00 0.  1.
</event>
<event>
12    1  0.9017558E-003  0.2447844E+03  0.7818608E-02  0.1116877E+00
         21   -1    0    0  503  502  0.00000000000E+00  0.00000000000E+00  0.54166644550E+03  0.54166644550E+03  0.00000000000E+00 0. -1.
         21   -1    0    0  501  503 -0.00000000000E+00 -0.00000000000E+00 -0.11060243102E+03  0.11060243102E+03  0.00000000000E+00 0.  1.
          6    2    1    2  501    0  0.14934792551E+03  0.89117864640E+02  0.19169098366E+03  0.31090970657E+03  0.17225741138E+03 0.  0.
         24    2    3    3    0    0  0.87883961405E+02  0.12138431577E+03  0.10414566522E+03  0.19908298556E+03  0.79561125983E+02 0.  0.
         -6    2    1    2    0  502 -0.14934792551E+03 -0.89117864640E+02  0.23937303083E+03  0.34135916995E+03  0.17023465678E+03 0.  0.
        -24    2    5    5    0    0 -0.51592660947E+02 -0.78206091391E+02  0.60988996621E+02  0.13759923227E+03  0.80224033912E+02 0.  0.
          5    1    3    3  501    0  0.61463964104E+02 -0.32266451135E+02  0.87545318435E+02  0.11182672101E+03  0.47000000000E+01 0. -1.
        -11    1    4    4    0    0  0.74474946420E+02  0.86034936610E+02  0.32941083036E+02  0.11846367761E+03  0.00000000000E+00 0.  1.
         12    1    4    4    0    0  0.13409014986E+02  0.35349379165E+02  0.71204582187E+02  0.80619307952E+02  0.00000000000E+00 0. -1.
         -5    1    5    5    0  502 -0.97755264563E+02 -0.10911773249E+02  0.17838403420E+03  0.20375993768E+03  0.47000000000E+01 0.  1.
         13    1    6    6    0    0 -0.19736126042E+02 -0.81178910616E+02  0.64314542542E+02  0.10543192392E+03  0.00000000000E+00 0. -1.
        -14    1    6    6    0    0 -0.31856534905E+02  0.29728192252E+01 -0.33255459205E+01  0.32167308342E+02  0.00000000000E+00 0.  1.
</event>
<event>
12    1  0.9017558E-003  0.1955972E+03  0.7818608E-02  0.1153761E+00
         21   -1    0    0  501  502  0.00000000000E+00  0.00000000000E+00  0.14311987956E+03  0.14311987956E+03  0.00000000000E+00 0. -1.
         21   -1    0    0  502  503 -0.00000000000E+00 -0.00000000000E+00 -0.34072420915E+03  0.34072420915E+03  0.00000000000E+00 0.  1.
          6    2    1    2  501    0 -0.94659131529E+01 -0.90829750191E+02  0.14465430282E+02  0.19613131770E+03  0.17296993403E+03 0.  0.
         24    2    3    3    0    0  0.89309756071E+01 -0.73768319624E+02  0.73801127020E+02  0.13153756540E+03  0.79586415017E+02 0.  0.
         -6    2    1    2    0  503  0.94659131529E+01  0.90829750191E+02 -0.21206975987E+03  0.28771277101E+03  0.17165491115E+03 0.  0.
        -24    2    5    5    0    0 -0.37129138240E+02  0.11184396736E+03 -0.14207564185E+03  0.20091436841E+03  0.79331264234E+02 0.  0.
          5    1    3    3  501    0 -0.18396888760E+02 -0.17061430567E+02 -0.59335696739E+02  0.64593752302E+02  0.47000000000E+01 0. -1.
        -11    1    4    4    0    0  0.27861713948E+02  0.37277929739E+01  0.27373378588E+02  0.39236123660E+02  0.00000000000E+00 0.  1.
         12    1    4    4    0    0 -0.18930738341E+02 -0.77496112598E+02  0.46427748432E+02  0.92301441735E+02  0.00000000000E+00 0. -1.
         -5    1    5    5    0  503  0.46595051393E+02 -0.21014217170E+02 -0.69994118011E+02  0.86798402598E+02  0.47000000000E+01 0.  1.
         11    1    6    6    0    0 -0.44919867782E+02  0.31816089896E+02 -0.29150575228E+02  0.62288154042E+02  0.00000000000E+00 0. -1.
        -12    1    6    6    0    0  0.77907295422E+01  0.80027877464E+02 -0.11292506663E+03  0.13862621437E+03  0.00000000000E+00 0.  1.
</event>
<event>
12    1  0.9017558E-003  0.2284067E+03  0.7818608E-02  0.1128175E+00
         21   -1    0    0  503  502  0.00000000000E+00  0.00000000000E+00  0.60147108382E+02  0.60147108382E+02  0.00000000000E+00 0.  1.
         21   -1    0    0  501  503 -0.00000000000E+00 -0.00000000000E+00 -0.94585572622E+03  0.94585572622E+03  0.00000000000E+00 0. -1.
          6    2    1    2  501    0 -0.14273736357E+03 -0.36177837052E+02 -0.59756270745E+03  0.63972712472E+03  0.17460473623E+03 0.  0.
         24    2    3    3    0    0 -0.85925663272E+01 -0.31544153273E+02 -0.14695615231E+03  0.16953072406E+03  0.77946711915E+02 0.  0.
         -6    2    1    2    0  502  0.14273736357E+03  0.36177837052E+02 -0.28814591039E+03  0.36627570988E+03  0.17160139604E+03 0.  0.
        -24    2    5    5    0    0  0.72979827438E+02 -0.35111306645E+02 -0.21413489170E+03  0.24198581994E+03  0.78387027869E+02 0.  0.
          5    1    3    3  501    0 -0.13414479724E+03 -0.46336837793E+01 -0.45060655514E+03  0.47019640066E+03  0.47000000000E+01 0. -1.
        -13    1    4    4    0    0 -0.60398052333E+01 -0.22273750987E+02 -0.83465651003E+00  0.23093199903E+02  0.00000000000E+00 0.  1.
         14    1    4    4    0    0 -0.25527610939E+01 -0.92704022859E+01 -0.14612149580E+03  0.14643752416E+03  0.00000000000E+00 0. -1.
         -5    1    5    5    0  502  0.69757536133E+02  0.71289143697E+02 -0.74011018686E+02  0.12428988995E+03  0.47000000000E+01 0.  1.
         13    1    6    6    0    0  0.16529175396E+02 -0.39665381734E+02 -0.39393084096E+02  0.58295550620E+02  0.00000000000E+00 0. -1.
        -14    1    6    6    0    0  0.56450652042E+02  0.45540750891E+01 -0.17474180761E+03  0.18369026932E+03  0.00000000000E+00 0.  1.
</event>
<event>
12    1  0.9017558E-003  0.2126220E+03  0.7818608E-02  0.1140247E+00
         21   -1    0    0  501  502  0.00000000000E+00  0.00000000000E+00  0.56086712215E+02  0.56086712215E+02  0.00000000000E+00 0. -1.
         21   -1    0    0  502  503 -0.00000000000E+00 -0.00000000000E+00 -0.82512331127E+03  0.82512331127E+03  0.00000000000E+00 0.  1.
          6    2    1    2  501    0  0.29633420742E+02  0.11945438883E+03 -0.29930943539E+03  0.36714339060E+03  0.17338004648E+03 0.  0.
         24    2    3    3    0    0 -0.14023515501E+02 -0.31117015697E+01 -0.11277428250E+03  0.13966629756E+03  0.81131339237E+02 0.  0.
         -6    2    1    2    0  503 -0.29633420742E+02 -0.11945438883E+03 -0.46972716367E+03  0.51406663288E+03  0.16874064157E+03 0.  0.
        -24    2    5    5    0    0 -0.21085072098E+02 -0.58687777380E+02 -0.12652442083E+03  0.16538932070E+03  0.86350233690E+02 0.  0.
          5    1    3    3  501    0  0.43656936243E+02  0.12256609040E+03 -0.18653515289E+03  0.22747709305E+03  0.47000000000E+01 0. -1.
        -11    1    4    4    0    0 -0.16453932080E+02  0.29764514824E+02 -0.97637714502E+02  0.10339139963E+03  0.00000000000E+00 0.  1.
         12    1    4    4    0    0  0.24304165795E+01 -0.32876216393E+02 -0.15136567996E+02  0.36274897929E+02  0.00000000000E+00 0. -1.
         -5    1    5    5    0  503 -0.85483486444E+01 -0.60766611454E+02 -0.34320274285E+03  0.34867731218E+03  0.47000000000E+01 0.  1.
         13    1    6    6    0    0 -0.10283848948E+02  0.17102391286E+01 -0.96534821310E+02  0.97096108019E+02  0.00000000000E+00 0. -1.
        -14    1    6    6    0    0 -0.10801223150E+02 -0.60398016508E+02 -0.29989599516E+02  0.68293212685E+02  0.00000000000E+00 0.  1.
</event>
<event>
12    1  0.9017558E-003  0.1851606E+03  0.7818608E-02  0.1163511E+00
         21   -1    0    0  501  502  0.00000000000E+00  0.00000000000E+00  0.14272192716E+03  0.14272192716E+03  0.00000000000E+00 0. -1.
         21   -1    0    0  502  503 -0.00000000000E+00 -0.00000000000E+00 -0.23735038932E+03  0.23735038932E+03  0.00000000000E+00 0.  1.
          6    2    1    2  501    0 -0.62339360668E+02  0.15855766071E+02 -0.38978215427E+02  0.18921875766E+03  0.17362844169E+03 0.  0.
         24    2    3    3    0    0 -0.41221128738E+02  0.68455050748E+02 -0.58873861750E+02  0.12896437017E+03  0.82343194919E+02 0.  0.
         -6    2    1    2    0  503  0.62339360668E+02 -0.15855766071E+02 -0.55650246738E+02  0.19085355882E+03  0.17085236243E+03 0.  0.
        -24    2    5    5    0    0 -0.12478394358E+02  0.11626744077E+02  0.15951590554E+02  0.83606657076E+02  0.80279065532E+02 0.  0.
          5    1    3    3  501    0 -0.21118231929E+02 -0.52599284677E+02  0.19895646324E+02  0.60254387483E+02  0.47000000000E+01 0. -1.
        -13    1    4    4    0    0 -0.12171071369E+02  0.30986168860E+02 -0.72378279856E+02  0.79667390028E+02  0.00000000000E+00 0.  1.
         14    1    4    4    0    0 -0.29050057369E+02  0.37468881888E+02  0.13504418106E+02  0.49296980145E+02  0.00000000000E+00 0. -1.
         -5    1    5    5    0  503  0.74817755026E+02 -0.27482510148E+02 -0.71601837292E+02  0.10724690175E+03  0.47000000000E+01 0.  1.
         13    1    6    6    0    0  0.54617654636E+01  0.41131078278E+02 -0.70911724569E+01  0.42093719354E+02  0.00000000000E+00 0. -1.
        -14    1    6    6    0    0 -0.17940159822E+02 -0.29504334201E+02  0.23042763011E+02  0.41512937722E+02  0.00000000000E+00 0.  1.
</event>
<event>
12    1  0.9017558E-003  0.1989925E+03  0.7818608E-02  0.1152209E+00
         21   -1    0    0  501  502  0.00000000000E+00  0.00000000000E+00  0.43364260869E+03  0.43364260869E+03  0.00000000000E+00 0. -1.
         21   -1    0    0  502  503 -0.00000000000E+00 -0.00000000000E+00 -0.13478706969E+03  0.13478706969E+03  0.00000000000E+00 0.  1.
          6    2    1    2  501    0 -0.73097110965E+02  0.68840103257E+02  0.31513367840E+03  0.36877250513E+03  0.16310051451E+03 0.  0.
         24    2    3    3    0    0 -0.54196668012E+02  0.90201090698E+02  0.14650303381E+03  0.19768216986E+03  0.80880070345E+02 0.  0.
         -6    2    1    2    0  503  0.73097110965E+02 -0.68840103257E+02 -0.16278139401E+02  0.19965717325E+03  0.17180180895E+03 0.  0.
        -24    2    5    5    0    0  0.40593870235E+02 -0.63999749145E+02  0.54133745929E+02  0.12181237071E+03  0.78510897457E+02 0.  0.
          5    1    3    3  501    0 -0.18900442953E+02 -0.21360987440E+02  0.16863064459E+03  0.17109033527E+03  0.47000000000E+01 0. -1.
        -13    1    4    4    0    0  0.18876521576E+02  0.27571537246E+02  0.20767530739E+02  0.39342128385E+02  0.00000000000E+00 0.  1.
         14    1    4    4    0    0 -0.73073189589E+02  0.62629553452E+02  0.12573550307E+03  0.15834004147E+03  0.00000000000E+00 0. -1.
         -5    1    5    5    0  503  0.32503240731E+02 -0.48403541125E+01 -0.70411885329E+02  0.77844802534E+02  0.47000000000E+01 0.  1.
         13    1    6    6    0    0  0.20804720172E+02  0.10246866041E+02  0.36064920981E+02  0.42877886730E+02  0.00000000000E+00 0. -1.
        -14    1    6    6    0    0  0.19789150063E+02 -0.74246615186E+02  0.18068824948E+02  0.78934483984E+02  0.00000000000E+00 0.  1.
</event>
<event>
12    1  0.9017558E-003  0.2809059E+03  0.7818608E-02  0.1095753E+00
         21   -1    0    0  503  502  0.00000000000E+00  0.00000000000E+00  0.39803427177E+03  0.39803427177E+03  0.00000000000E+00 0. -1.
         21   -1    0    0  501  503 -0.00000000000E+00 -0.00000000000E+00 -0.34338422625E+03  0.34338422625E+03  0.00000000000E+00 0. -1.
          6    2    1    2  501    0 -0.20592944611E+03  0.67673717589E+02 -0.21616078134E+03  0.35123053248E+03  0.17219388703E+03 0.  0.
         24    2    3    3    0    0 -0.18261129027E+03  0.61401091774E+02 -0.99290391745E+02  0.23179912878E+03  0.82190490956E+02 0.  0.
         -6    2    1    2    0  502  0.20592944611E+03 -0.67673717589E+02  0.27081082687E+03  0.39018796553E+03  0.17866582121E+03 0.  0.
        -24    2    5    5    0    0  0.10007853032E+03 -0.43433062926E+02  0.46386864554E+02  0.14082832450E+03  0.76017975466E+02 0.  0.
          5    1    3    3  501    0 -0.23318155836E+02  0.62726258155E+01 -0.11687038960E+03  0.11943140371E+03  0.47000000000E+01 0. -1.
        -11    1    4    4    0    0 -0.29206781758E+02  0.37983507984E+02 -0.64612783952E+00  0.47918685924E+02  0.00000000000E+00 0.  1.
         12    1    4    4    0    0 -0.15340450851E+03  0.23417583789E+02 -0.98644263905E+02  0.18388044285E+03  0.00000000000E+00 0. -1.
         -5    1    5    5    0  502  0.10585091579E+03 -0.24240654663E+02  0.22442396231E+03  0.24935964103E+03  0.47000000000E+01 0.  1.
         13    1    6    6    0    0  0.52316819490E+02 -0.52363408149E+02  0.54029535021E+02  0.91641512259E+02  0.00000000000E+00 0. -1.
        -14    1    6    6    0    0  0.47761710827E+02  0.89303452234E+01 -0.76426704674E+01  0.49186812245E+02  0.00000000000E+00 0.  1.
</event>
<event>
12    1  0.9017558E-003  0.1914706E+03  0.7818608E-02  0.1158451E+00
         21   -1    0    0  501  502  0.00000000000E+00  0.00000000000E+00  0.12386774078E+03  0.12386774078E+03  0.00000000000E+00 0.  1.
         21   -1    0    0  502  503 -0.00000000000E+00 -0.00000000000E+00 -0.30384502772E+03  0.30384502772E+03  0.00000000000E+00 0.  1.
          6    2    1    2  501    0 -0.58963646486E+02  0.60433213694E+02 -0.13886007572E+03  0.23187707875E+03  0.16539641500E+03 0.  0.
         24    2    3    3    0    0 -0.77955485415E+02  0.93394914191E+02 -0.91919960770E+02  0.17127486726E+03  0.78013673573E+02 0.  0.
         -6    2    1    2    0  503  0.58963646486E+02 -0.60433213694E+02 -0.41117211224E+02  0.19583568975E+03  0.17184908321E+03 0.  0.
        -24    2    5    5    0    0  0.84778084053E+01  0.31143923425E+02 -0.69357809800E+01  0.85719151201E+02  0.79106577623E+02 0.  0.
          5    1    3    3  501    0  0.18991838929E+02 -0.32961700497E+02 -0.46940114950E+02  0.60602211487E+02  0.47000000000E+01 0. -1.
        -11    1    4    4    0    0 -0.22409059953E+01  0.58120168161E+02 -0.21456110481E+02  0.61994679479E+02  0.00000000000E+00 0.  1.
         12    1    4    4    0    0 -0.75714579420E+02  0.35274746030E+02 -0.70463850288E+02  0.10928018778E+03  0.00000000000E+00 0. -1.
         -5    1    5    5    0  503  0.50485838081E+02 -0.91577137119E+02 -0.34181430244E+02  0.11011653855E+03  0.47000000000E+01 0.  1.
         13    1    6    6    0    0  0.57893921659E+01  0.81556066921E+01  0.35771515283E+02  0.37143401673E+02  0.00000000000E+00 0. -1.
        -14    1    6    6    0    0  0.26884162394E+01  0.22988316733E+02 -0.42707296263E+02  0.48575749528E+02  0.00000000000E+00 0.  1.
</event>
<event>
12    1  0.9017558E-003  0.2071614E+03  0.7818608E-02  0.1143900E+00
         21   -1    0    0  503  502  0.00000000000E+00  0.00000000000E+00  0.12264726899E+03  0.12264726899E+03  0.00000000000E+00 0. -1.
         21   -1    0    0  501  503 -0.00000000000E+00 -0.00000000000E+00 -0.36263846725E+03  0.36263846725E+03  0.00000000000E+00 0.  1.
          6    2    1    2  501    0  0.43375482604E+02 -0.10577583697E+03 -0.16634293223E+03  0.26542232009E+03  0.17236321162E+03 0.  0.
         24    2    3    3    0    0 -0.36040216175E+01 -0.11576749551E+03 -0.16586261080E+03  0.21716024630E+03  0.78949762027E+02 0.  0.
         -6    2    1    2    0  502 -0.43375482604E+02  0.10577583697E+03 -0.73648266035E+02  0.21986341615E+03  0.17275964370E+03 0.  0.
        -24    2    5    5    0    0 -0.97282297846E+01  0.10747929646E+03 -0.10677540268E+03  0.17238145558E+03  0.81657467440E+02 0.  0.
          5    1    3    3  501    0  0.46979504222E+02  0.99916585344E+01 -0.48032142377E+00  0.48262073783E+02  0.47000000000E+01 0. -1.
        -13    1    4    4    0    0 -0.20052422879E+02 -0.11163276970E+03 -0.10708454003E+03  0.15598420961E+03  0.00000000000E+00 0.  1.
         14    1    4    4    0    0  0.16448401262E+02 -0.41347258057E+01 -0.58778070770E+02  0.61176036690E+02  0.00000000000E+00 0. -1.
         -5    1    5    5    0  502 -0.33647252820E+02 -0.17034594819E+01  0.33127136649E+02  0.47481960565E+02  0.47000000000E+01 0.  1.
         13    1    6    6    0    0 -0.34958847725E+02  0.10389874281E+03 -0.90414838455E+02  0.14209825054E+03  0.00000000000E+00 0. -1.
        -14    1    6    6    0    0  0.25230617940E+02  0.35805536443E+01 -0.16360564228E+02  0.30283205047E+02  0.00000000000E+00 0.  1.
</event>
<event>
12    1  0.9017558E-003  0.1980213E+03  0.7818608E-02  0.1151653E+00
         21   -1    0    0  501  502  0.00000000000E+00  0.00000000000E+00  0.26058413557E+03  0.26058413557E+03  0.00000000000E+00 0. -1.
         21   -1    0    0  502  503 -0.00000000000E+00 -0.00000000000E+00 -0.15346720113E+03  0.15346720113E+03  0.00000000000E+00 0.  1.
          6    2    1    2  501    0  0.93492470863E+02 -0.26687216771E+02  0.86052260121E+02  0.21491278376E+03  0.17125846987E+03 0.  0.
         24    2    3    3    0    0  0.27035081191E+02  0.48530187341E+02  0.42467629175E+02  0.10538674768E+03  0.78846638238E+02 0.  0.
         -6    2    1    2    0  503 -0.93492470863E+02  0.26687216771E+02  0.21064674325E+02  0.19913855294E+03  0.17250911024E+03 0.  0.
        -24    2    5    5    0    0 -0.13148570996E+03  0.12433203992E+02  0.85572064410E+01  0.15641631224E+03  0.83365223364E+02 0.  0.
          5    1    3    3  501    0  0.66457389672E+02 -0.75217404112E+02  0.43584630945E+02  0.10952603607E+03  0.47000000000E+01 0. -1.
        -13    1    4    4    0    0  0.29457621342E+02  0.17213382533E+02 -0.17010901282E+02  0.38123782024E+02  0.00000000000E+00 0.  1.
         14    1    4    4    0    0 -0.24225401509E+01  0.31316804808E+02  0.59478530457E+02  0.67262965661E+02  0.00000000000E+00 0. -1.
         -5    1    5    5    0  503  0.37993239100E+02  0.14254012779E+02  0.12507467884E+02  0.42722240701E+02  0.47000000000E+01 0.  1.
         13    1    6    6    0    0  0.92882112982E+01 -0.91735153214E+01  0.49091101943E+01  0.13947172307E+02  0.00000000000E+00 0. -1.
        -14    1    6    6    0    0 -0.14077392126E+03  0.21606719313E+02  0.36480962467E+01  0.14246913993E+03  0.00000000000E+00 0.  1.
</event>
<event>
12    1  0.9017558E-003  0.1761654E+03  0.7818608E-02  0.1171767E+00
         21   -1    0    0  501  502  0.00000000000E+00  0.00000000000E+00  0.22535653862E+04  0.22535653862E+04  0.00000000000E+00 0.  1.
         21   -1    0    0  502  503 -0.00000000000E+00 -0.00000000000E+00 -0.15539690317E+02  0.15539690317E+02  0.00000000000E+00 0.  1.
          6    2    1    2  501    0 -0.30490016433E+02  0.98772692637E+01  0.72730581981E+03  0.74814853971E+03  0.17241020964E+03 0.  0.
         24    2    3    3    0    0 -0.11792408036E+01 -0.61093511335E+02  0.43164221683E+03  0.44264071756E+03  0.76694157242E+02 0.  0.
         -6    2    1    2    0  503  0.30490016433E+02 -0.98772692637E+01  0.15107198760E+04  0.15209565368E+04  0.17322540619E+03 0.  0.
        -24    2    5    5    0    0 -0.38342819478E+02 -0.42196970737E+02  0.84529061937E+03  0.85117992623E+03  0.82099205093E+02 0.  0.
          5    1    3    3  501    0 -0.29310775629E+02  0.70970780599E+02  0.29566360299E+03  0.30550782216E+03  0.47000000000E+01 0. -1.
        -13    1    4    4    0    0  0.75064822219E+01  0.11141313980E+02  0.17017466753E+02  0.21681105305E+02  0.00000000000E+00 0.  1.
         14    1    4    4    0    0 -0.86857230256E+01 -0.72234825315E+02  0.41462475007E+03  0.42095961225E+03  0.00000000000E+00 0. -1.
         -5    1    5    5    0  503  0.68832835910E+02  0.32319701473E+02  0.66542925665E+03  0.66977661053E+03  0.47000000000E+01 0.  1.
         13    1    6    6    0    0 -0.17439333993E+02 -0.31913440911E+02  0.11711263750E+03  0.12262939265E+03  0.00000000000E+00 0. -1.
        -14    1    6    6    0    0 -0.20903485485E+02 -0.10283529826E+02  0.72817798187E+03  0.72855053358E+03  0.00000000000E+00 0.  1.
</event>
<event>
12    1  0.9017558E-003  0.1802682E+03  0.7818608E-02  0.1167552E+00
         21   -1    0    0  503  502  0.00000000000E+00  0.00000000000E+00  0.26876101454E+03  0.26876101454E+03  0.00000000000E+00 0.  1.
         21   -1    0    0  501  503 -0.00000000000E+00 -0.00000000000E+00 -0.14868751142E+03  0.14868751142E+03  0.00000000000E+00 0.  1.
          6    2    1    2  501    0 -0.51692464436E+02 -0.12976908689E+02 -0.30217600140E+02  0.18274866691E+03  0.17217276458E+03 0.  0.
         24    2    3    3    0    0 -0.37768596503E+02 -0.42086525880E+02  0.39885567031E+02  0.10543251104E+03  0.79545039979E+02 0.  0.
         -6    2    1    2    0  502  0.51692464436E+02  0.12976908689E+02  0.15029110326E+03  0.23469985905E+03  0.17220945700E+03 0.  0.
        -24    2    5    5    0    0  0.46016586039E+02  0.14200768696E+02  0.12216257589E+02  0.96423084294E+02  0.82637680346E+02 0.  0.
          5    1    3    3  501    0 -0.13923867933E+02  0.29109617190E+02 -0.70103167170E+02  0.77316155870E+02  0.47000000000E+01 0. -1.
        -13    1    4    4    0    0 -0.80075983363E+01 -0.61503092789E+02  0.23901516596E+02  0.66468297326E+02  0.00000000000E+00 0.  1.
         14    1    4    4    0    0 -0.29760998167E+02  0.19416566910E+02  0.15984050434E+02  0.38964213719E+02  0.00000000000E+00 0. -1.
         -5    1    5    5    0  502  0.56758783974E+01 -0.12238600071E+01  0.13807484567E+03  0.13827677475E+03  0.47000000000E+01 0.  1.
         13    1    6    6    0    0 -0.70867209914E+01  0.22868889687E+02 -0.22118807836E+02  0.32595235695E+02  0.00000000000E+00 0. -1.
        -14    1    6    6    0    0  0.53103307030E+02 -0.86681209908E+01  0.34335065425E+02  0.63827848599E+02  0.00000000000E+00 0.  1.
</event>
<event>
12    1  0.9017558E-003  0.2433447E+03  0.7818608E-02  0.1117822E+00
         21   -1    0    0  501  502  0.00000000000E+00  0.00000000000E+00  0.51203108676E+03  0.51203108676E+03  0.00000000000E+00 0. -1.
         21   -1    0    0  502  503 -0.00000000000E+00 -0.00000000000E+00 -0.11496608704E+03  0.11496608704E+03  0.00000000000E+00 0. -1.
          6    2    1    2  501    0 -0.16049054110E+03  0.60556592369E+02  0.19964094450E+03  0.31363974490E+03  0.17055517639E+03 0.  0.
         24    2    3    3    0    0 -0.29460043854E+02 -0.16739292923E+02  0.92425652332E+02  0.12746548790E+03  0.80974386601E+02 0.  0.
         -6    2    1    2    0  503  0.16049054110E+03 -0.60556592369E+02  0.19742405522E+03  0.31335742890E+03  0.17260447852E+03 0.  0.
        -24    2    5    5    0    0  0.14372959694E+03 -0.92354412043E+02  0.10739090368E+03  0.21630028614E+03  0.77881147474E+02 0.  0.
          5    1    3    3  501    0 -0.13103049725E+03  0.77295885292E+02  0.10721529217E+03  0.18617425700E+03  0.47000000000E+01 0. -1.
        -11    1    4    4    0    0  0.12454736117E+01 -0.18994273105E+02 -0.92980547769E+01  0.21184603795E+02  0.00000000000E+00 0.  1.
         12    1    4    4    0    0 -0.30705517465E+02  0.22549801819E+01  0.10172370711E+03  0.10628088411E+03  0.00000000000E+00 0. -1.
         -5    1    5    5    0  503  0.16760944166E+02  0.31797819674E+02  0.90033151535E+02  0.97057142760E+02  0.47000000000E+01 0.  1.
         13    1    6    6    0    0  0.11177391442E+03 -0.64243448165E+02  0.37142418648E+02  0.13416477869E+03  0.00000000000E+00 0. -1.
        -14    1    6    6    0    0  0.31955682517E+02 -0.28110963878E+02  0.70248485035E+02  0.82135507456E+02  0.00000000000E+00 0.  1.
</event>
<event>
12    1  0.9017558E-003  0.2147435E+03  0.7818608E-02  0.1138339E+00
         21   -1    0    0  501  502  0.00000000000E+00  0.00000000000E+00  0.12460196530E+03  0.12460196530E+03  0.00000000000E+00 0. -1.
         21   -1    0    0  502  503 -0.00000000000E+00 -0.00000000000E+00 -0.38751374528E+03  0.38751374528E+03  0.00000000000E+00 0. -1.
          6    2    1    2  501    0  0.32552372023E+02 -0.12238741689E+03 -0.71664054652E+02  0.22638577265E+03  0.17342561689E+03 0.  0.
         24    2    3    3    0    0  0.76512090741E+02 -0.60293251379E+02 -0.66628611077E+01  0.12620899180E+03  0.79968366882E+02 0.  0.
         -6    2    1    2    0  503 -0.32552372023E+02  0.12238741689E+03 -0.19124772532E+03  0.28572993792E+03  0.17037478760E+03 0.  0.
        -24    2    5    5    0    0  0.46817041351E+00  0.12243206310E+03 -0.71123314602E+02  0.16106108750E+03  0.76761440624E+02 0.  0.
          5    1    3    3  501    0 -0.43959718719E+02 -0.62094165508E+02 -0.65001193544E+02  0.10017678085E+03  0.47000000000E+01 0. -1.
        -11    1    4    4    0    0  0.43754805058E+02 -0.74892558887E+02  0.87425129298E+01  0.87176888421E+02  0.00000000000E+00 0.  1.
         12    1    4    4    0    0  0.32757285683E+02  0.14599307508E+02 -0.15405374038E+02  0.39032103380E+02  0.00000000000E+00 0. -1.
         -5    1    5    5    0  503 -0.33020542436E+02 -0.44646213859E-01 -0.12012441072E+03  0.12466885043E+03  0.47000000000E+01 0.  1.
         13    1    6    6    0    0  0.96666070732E+01  0.57445898615E+02  0.73979903640E+01  0.58721417059E+02  0.00000000000E+00 0. -1.
        -14    1    6    6    0    0 -0.91984366597E+01  0.64986164486E+02 -0.78521304966E+02  0.10233967044E+03  0.00000000000E+00 0.  1.
</event>
<event>
12    1  0.9017558E-003  0.2059011E+03  0.7818608E-02  0.1144867E+00
         21   -1    0    0  501  502  0.00000000000E+00  0.00000000000E+00  0.19351415242E+03  0.19351415242E+03  0.00000000000E+00 0.  1.
         21   -1    0    0  502  503 -0.00000000000E+00 -0.00000000000E+00 -0.22474375862E+03  0.22474375862E+03  0.00000000000E+00 0. -1.
          6    2    1    2  501    0 -0.89427455784E+02 -0.68572304881E+02 -0.49011197819E+02  0.21159043238E+03  0.17224686562E+03 0.  0.
         24    2    3    3    0    0 -0.52432830178E+02  0.30255700139E+02 -0.28560958657E+02  0.10399917259E+03  0.79595794295E+02 0.  0.
         -6    2    1    2    0  503  0.89427455784E+02  0.68572304881E+02  0.17781591614E+02  0.20666747866E+03  0.17232478316E+03 0.  0.
        -24    2    5    5    0    0  0.12532733408E+03  0.52996415765E+02 -0.80627862008E+01  0.15953541476E+03  0.82891370421E+02 0.  0.
          5    1    3    3  501    0 -0.36994625606E+02 -0.98828005021E+02 -0.20450239162E+02  0.10759125978E+03  0.47000000000E+01 0. -1.
        -13    1    4    4    0    0 -0.53377064842E+02 -0.14187051521E+02 -0.19930541964E+02  0.58716351938E+02  0.00000000000E+00 0.  1.
         14    1    4    4    0    0  0.94423466422E+00  0.44442751660E+02 -0.86304166926E+01  0.45282820655E+02  0.00000000000E+00 0. -1.
         -5    1    5    5    0  503 -0.35899878293E+02  0.15575889117E+02  0.25844377815E+02  0.47132063904E+02  0.47000000000E+01 0.  1.
         13    1    6    6    0    0  0.12396683422E+03  0.23298957260E+02 -0.19591438260E+02  0.12764968410E+03  0.00000000000E+00 0. -1.
        -14    1    6    6    0    0  0.13604998518E+01  0.29697458505E+02  0.11528652060E+02  0.31885730661E+02  0.00000000000E+00 0.  1.
</event>
<event>
12    1  0.9017558E-003  0.1981772E+03  0.7818608E-02  0.1155540E+00
         21   -1    0    0  503  502  0.00000000000E+00  0.00000000000E+00  0.36786488296E+02  0.36786488296E+02  0.00000000000E+00 0.  1.
         21   -1    0    0  501  503 -0.00000000000E+00 -0.00000000000E+00 -0.98477475837E+03  0.98477475837E+03  0.00000000000E+00 0.  1.
          6    2    1    2  501    0 -0.47821393650E+02  0.30824001978E+00 -0.56336303983E+03  0.59720357369E+03  0.19232059971E+03 0.  0.
         24    2    3    3    0    0  0.91183904562E+01  0.68604533914E+02 -0.35863948028E+03  0.37395405273E+03  0.80184971260E+02 0.  0.
         -6    2    1    2    0  502  0.47821393650E+02 -0.30824001978E+00 -0.38462523025E+03  0.42435767298E+03  0.17278855916E+03 0.  0.
        -24    2    5    5    0    0  0.29485046705E+02  0.83087402977E+01 -0.39280880132E+03  0.40200739772E+03  0.79829758113E+02 0.  0.
          5    1    3    3  501    0 -0.56939784106E+02 -0.68296293894E+02 -0.20472355955E+03  0.22324952096E+03  0.47000000000E+01 0. -1.
        -13    1    4    4    0    0 -0.76864234074E+01 -0.31716979475E+01 -0.52570002660E+00  0.83316944967E+01  0.00000000000E+00 0.  1.
         14    1    4    4    0    0  0.16804813864E+02  0.71776231862E+02 -0.35811378025E+03  0.36562235823E+03  0.00000000000E+00 0. -1.
         -5    1    5    5    0  502  0.18336346945E+02 -0.86169803175E+01  0.81835710719E+01  0.22350275268E+02  0.47000000000E+01 0.  1.
         13    1    6    6    0    0  0.50860499025E+02  0.13014958970E+02 -0.16502775263E+03  0.17317718861E+03  0.00000000000E+00 0. -1.
        -14    1    6    6    0    0 -0.21375452319E+02 -0.47062186721E+01 -0.22778104869E+03  0.22883020910E+03  0.00000000000E+00 0.  1.
</event>
<event>
12    1  0.9017558E-003  0.2200599E+03  0.7818608E-02  0.1133963E+00
         21   -1    0    0  501  502  0.00000000000E+00  0.00000000000E+00  0.13768172772E+03  0.13768172772E+03  0.00000000000E+00 0.  1.
         21   -1    0    0  502  503 -0.00000000000E+00 -0.00000000000E+00 -0.35862128312E+03  0.35862128312E+03  0.00000000000E+00 0.  1.
          6    2    1    2  501    0 -0.82003948708E+02  0.10992891297E+03 -0.73334952901E+02  0.23132477168E+03  0.17124287187E+03 0.  0.
         24    2    3    3    0    0  0.22411817439E+02  0.22448514034E+02 -0.23032381016E+02  0.86039152450E+02  0.76589946049E+02 0.  0.
         -6    2    1    2    0  503  0.82003948708E+02 -0.10992891297E+03 -0.14760460250E+03  0.26497823915E+03  0.17209687689E+03 0.  0.
        -24    2    5    5    0    0 -0.15598421978E+02 -0.68823841649E+02 -0.10594684704E+03  0.15107780789E+03  0.81361770455E+02 0.  0.
          5    1    3    3  501    0 -0.10441576615E+03  0.87480398932E+02 -0.50302571885E+02  0.14528561923E+03  0.47000000000E+01 0. -1.
        -11    1    4    4    0    0 -0.13100726100E+02 -0.29310015560E+01  0.20427276588E+02  0.24443678596E+02  0.00000000000E+00 0.  1.
         12    1    4    4    0    0  0.35512543539E+02  0.25379515590E+02 -0.43459657605E+02  0.61595473854E+02  0.00000000000E+00 0. -1.
         -5    1    5    5    0  503  0.97602370686E+02 -0.41105071317E+02 -0.41657755457E+02  0.11390043126E+03  0.47000000000E+01 0.  1.
         13    1    6    6    0    0 -0.18651677260E+02 -0.20297621154E+02 -0.98009173448E+02  0.10181196673E+03  0.00000000000E+00 0. -1.
        -14    1    6    6    0    0  0.30532552818E+01 -0.48526220495E+02 -0.79376735921E+01  0.49265841162E+02  0.00000000000E+00 0.  1.
</event>
<event>
12    1  0.9017558E-003  0.3720842E+03  0.7818608E-02  0.1053986E+00
         21   -1    0    0  501  502  0.00000000000E+00  0.00000000000E+00  0.75389920877E+03  0.75389920877E+03  0.00000000000E+00 0. -1.
         21   -1    0    0  502  503 -0.00000000000E+00 -0.00000000000E+00 -0.21344533967E+03  0.21344533967E+03  0.00000000000E+00 0.  1.
          6    2    1    2  501    0  0.29826377929E+03 -0.14061224614E+03  0.45261483647E+03  0.58592391792E+03  0.17237622109E+03 0.  0.
         24    2    3    3    0    0  0.17182973385E+03 -0.90285297343E+02  0.16115151935E+03  0.26422324206E+03  0.78531631239E+02 0.  0.
         -6    2    1    2    0  503 -0.29826377929E+03  0.14061224614E+03  0.87839032638E+02  0.38142063053E+03  0.17039048076E+03 0.  0.
        -24    2    5    5    0    0 -0.27086096146E+03  0.10275511645E+03  0.22918698256E+02  0.30129063296E+03  0.79539326010E+02 0.  0.
          5    1    3    3  501    0  0.12643404544E+03 -0.50326948794E+02  0.29146331712E+03  0.32170067586E+03  0.47000000000E+01 0. -1.
        -13    1    4    4    0    0  0.83412061064E+01 -0.17384610077E+02  0.49818548897E+02  0.53419923259E+02  0.00000000000E+00 0.  1.
         14    1    4    4    0    0  0.16348852774E+03 -0.72900687266E+02  0.11133297045E+03  0.21080331880E+03  0.00000000000E+00 0. -1.
         -5    1    5    5    0  503 -0.27402817834E+02  0.37857129682E+02  0.64920334382E+02  0.80129997562E+02  0.47000000000E+01 0.  1.
         13    1    6    6    0    0 -0.13150860466E+03  0.18551118403E+02  0.36993063618E+02  0.13786639855E+03  0.00000000000E+00 0. -1.
        -14    1    6    6    0    0 -0.13935235680E+03  0.84203998052E+02 -0.14074365362E+02  0.16342423442E+03  0.00000000000E+00 0.  1.
</event>
<event>
12    1  0.9017558E-003  0.1964488E+03  0.7818608E-02  0.1155471E+00
         21   -1    0    0  503  502  0.00000000000E+00  0.00000000000E+00  0.13344655873E+03  0.13344655873E+03  0.00000000000E+00 0. -1.
         21   -1    0    0  501  503 -0.00000000000E+00 -0.00000000000E+00 -0.28640453918E+03  0.28640453918E+03  0.00000000000E+00 0.  1.
          6    2    1    2  501    0 -0.22472365861E+02  0.61955071930E+02 -0.12176712012E+03  0.22094152919E+03  0.17217575211E+03 0.  0.
         24    2    3    3    0    0 -0.80659773200E+02  0.47995908709E+02 -0.77299274772E+02  0.14624138273E+03  0.81251202319E+02 0.  0.
         -6    2    1    2    0  502  0.22472365861E+02 -0.61955071930E+02 -0.31190860333E+02  0.19890956873E+03  0.18506406620E+03 0.  0.
        -24    2    5    5    0    0  0.48738174143E+02 -0.55121690344E+01 -0.76479544920E+02  0.12178078731E+03  0.81090355404E+02 0.  0.
          5    1    3    3  501    0  0.58187407339E+02  0.13959163221E+02 -0.44467845346E+02  0.74700146455E+02  0.47000000000E+01 0. -1.
        -13    1    4    4    0    0 -0.32751116850E+02  0.55312248671E+02 -0.12766577082E+02  0.65536753035E+02  0.00000000000E+00 0.  1.
         14    1    4    4    0    0 -0.47908656349E+02 -0.73163399621E+01 -0.64532697691E+02  0.80704629699E+02  0.00000000000E+00 0. -1.
         -5    1    5    5    0  502 -0.26265808283E+02 -0.56442902896E+02  0.45288684587E+02  0.77128781422E+02  0.47000000000E+01 0.  1.
         13    1    6    6    0    0 -0.10638857069E+02 -0.26180648612E+02 -0.92527824875E+01  0.29735931552E+02  0.00000000000E+00 0. -1.
        -14    1    6    6    0    0  0.59377031212E+02  0.20668479578E+02 -0.67226762433E+02  0.92044855754E+02  0.00000000000E+00 0.  1.
</event>
<event>
12    1  0.9017558E-003  0.1843722E+03  0.7818608E-02  0.1163899E+00
         21   -1    0    0  501  502  0.00000000000E+00  0.00000000000E+00  0.22294985284E+03  0.22294985284E+03  0.00000000000E+00 0. -1.
         21   -1    0    0  502  503 -0.00000000000E+00 -0.00000000000E+00 -0.15533772627E+03  0.15533772627E+03  0.00000000000E+00 0. -1.
          6    2    1    2  501    0  0.59584920318E+02 -0.21445316580E+02  0.63233934690E+02  0.19386335917E+03  0.17197153020E+03 0.  0.
         24    2    3    3    0    0 -0.30223983914E+02 -0.31074164891E+02  0.72604351107E+01  0.87498531079E+02  0.75658351129E+02 0.  0.
         -6    2    1    2    0  503 -0.59584920318E+02  0.21445316580E+02  0.43781918803E+01  0.18442421995E+03  0.17315559479E+03 0.  0.
        -24    2    5    5    0    0 -0.85991518660E+02 -0.27330194841E+02  0.30375023324E+02  0.12298901672E+03  0.77859972773E+02 0.  0.
          5    1    3    3  501    0  0.89808904233E+02  0.96288483116E+01  0.55973499579E+02  0.10636482809E+03  0.47000000000E+01 0. -1.
        -13    1    4    4    0    0 -0.19145882732E+02 -0.31469107960E+02  0.39139428323E+02  0.53747227192E+02  0.00000000000E+00 0.  1.
         14    1    4    4    0    0 -0.11078101182E+02  0.39494306911E+00 -0.31878993212E+02  0.33751303887E+02  0.00000000000E+00 0. -1.
         -5    1    5    5    0  503  0.26406598342E+02  0.48775511420E+02 -0.25996831443E+02  0.61435203226E+02  0.47000000000E+01 0.  1.
         13    1    6    6    0    0 -0.12865347007E+02 -0.38230889786E+02  0.27838722825E+02  0.49011351501E+02  0.00000000000E+00 0. -1.
        -14    1    6    6    0    0 -0.73126171653E+02  0.10900694946E+02  0.25363004987E+01  0.73977665218E+02  0.00000000000E+00 0.  1.
</event>
<event>
12    1  0.9017558E-003  0.2092540E+03  0.7818608E-02  0.1142450E+00
         21   -1    0    0  501  502  0.00000000000E+00  0.00000000000E+00  0.12599852920E+04  0.12599852920E+04  0.00000000000E+00 0.  1.
         21   -1    0    0  502  503 -0.00000000000E+00 -0.00000000000E+00 -0.36259762088E+02  0.36259762088E+02  0.00000000000E+00 0.  1.
          6    2    1    2  501    0  0.63834176777E+01  0.11780439871E+03  0.75629155378E+03  0.78470641232E+03  0.17282538828E+03 0.  0.
         24    2    3    3    0    0 -0.45452740236E+02  0.74807325128E+02  0.63147619757E+03  0.64280257604E+03  0.82285333921E+02 0.  0.
         -6    2    1    2    0  503 -0.63834176777E+01 -0.11780439871E+03  0.46743397617E+03  0.51153864181E+03  0.17105155833E+03 0.  0.
        -24    2    5    5    0    0  0.40478475266E+01 -0.12312064514E+03  0.47495049891E+03  0.49685321080E+03  0.78166862124E+02 0.  0.
          5    1    3    3  501    0  0.51836157914E+02  0.42997073586E+02  0.12481535621E+03  0.14190383628E+03  0.47000000000E+01 0. -1.
        -11    1    4    4    0    0 -0.30229599354E+02  0.35745687239E+02  0.10875407800E+03  0.11840199456E+03  0.00000000000E+00 0.  1.
         12    1    4    4    0    0 -0.15223140882E+02  0.39061637889E+02  0.52272211957E+03  0.52440058148E+03  0.00000000000E+00 0. -1.
         -5    1    5    5    0  503 -0.10431265204E+02  0.53162464214E+01 -0.75165227438E+01  0.14685431009E+02  0.47000000000E+01 0.  1.
         11    1    6    6    0    0  0.27824599100E+02 -0.31048653278E+02  0.75568861012E+02  0.86306893932E+02  0.00000000000E+00 0. -1.
        -12    1    6    6    0    0 -0.23776751573E+02 -0.92071991857E+02  0.39938163790E+03  0.41054631687E+03  0.00000000000E+00 0.  1.
</event>
<event>
12    1  0.9017558E-003  0.2352150E+03  0.7818608E-02  0.1123325E+00
         21   -1    0    0  503  502  0.00000000000E+00  0.00000000000E+00  0.15853702410E+03  0.15853702410E+03  0.00000000000E+00 0.  1.
         21   -1    0    0  501  503 -0.00000000000E+00 -0.00000000000E+00 -0.35124157593E+03  0.35124157593E+03  0.00000000000E+00 0.  1.
          6    2    1    2  501    0 -0.82258711120E+02 -0.13387911173E+03 -0.65949306643E+02  0.24258391365E+03  0.17264857950E+03 0.  0.
         24    2    3    3    0    0  0.14394343009E+02 -0.35791814751E+02 -0.56901665998E+02  0.10450103817E+03  0.78704614037E+02 0.  0.
         -6    2    1    2    0  502  0.82258711120E+02  0.13387911173E+03 -0.12675524519E+03  0.26719468638E+03  0.17503141472E+03 0.  0.
        -24    2    5    5    0    0  0.82860538679E+01  0.12624390291E+03 -0.12152197069E+03  0.19249711215E+03  0.79255076280E+02 0.  0.
          5    1    3    3  501    0 -0.96653054129E+02 -0.98087296978E+02 -0.90476406449E+01  0.13808287548E+03  0.47000000000E+01 0. -1.
        -11    1    4    4    0    0  0.21184639208E+02 -0.52478065532E+02 -0.14484653350E+02  0.58416962289E+02  0.00000000000E+00 0.  1.
         12    1    4    4    0    0 -0.67902961990E+01  0.16686250781E+02 -0.42417012648E+02  0.46084075878E+02  0.00000000000E+00 0. -1.
         -5    1    5    5    0  502  0.73972657252E+02  0.76352088207E+01 -0.52332745000E+01  0.74697574236E+02  0.47000000000E+01 0.  1.
         13    1    6    6    0    0 -0.39952008833E+01 -0.47484524831E+01  0.64551817843E+01  0.89542617201E+01  0.00000000000E+00 0. -1.
        -14    1    6    6    0    0  0.12281254751E+02  0.13099235539E+03 -0.12797715247E+03  0.18354285043E+03  0.00000000000E+00 0.  1.
</event>
<event>
12    1  0.9017558E-003  0.1907417E+03  0.7818608E-02  0.1158305E+00
         21   -1    0    0  503  502  0.00000000000E+00  0.00000000000E+00  0.12067944647E+04  0.12067944647E+04  0.00000000000E+00 0.  1.
         21   -1    0    0  501  503 -0.00000000000E+00 -0.00000000000E+00 -0.29986818178E+02  0.29986818178E+02  0.00000000000E+00 0.  1.
          6    2    1    2  501    0  0.61191483351E+02  0.49309630464E+02  0.63485282582E+03  0.66224024315E+03  0.17131313989E+03 0.  0.
         24    2    3    3    0    0  0.10377321046E+03  0.50142571665E+02  0.54342412065E+03  0.56126898286E+03  0.80186903637E+02 0.  0.
         -6    2    1    2    0  502 -0.61191483351E+02 -0.49309630464E+02  0.54195482073E+03  0.57454103976E+03  0.17380029161E+03 0.  0.
        -24    2    5    5    0    0 -0.10572621824E+03 -0.16031171182E+02  0.38631451356E+03  0.40920261809E+03  0.82297312187E+02 0.  0.
          5    1    3    3  501    0 -0.42581727110E+02 -0.83294120101E+00  0.91428705176E+02  0.10097126029E+03  0.47000000000E+01 0. -1.
        -13    1    4    4    0    0  0.63817786047E+02  0.30444464617E+01  0.15019877823E+03  0.16322270507E+03  0.00000000000E+00 0.  1.
         14    1    4    4    0    0  0.39955424414E+02  0.47098125204E+02  0.39322534242E+03  0.39804627778E+03  0.00000000000E+00 0. -1.
         -5    1    5    5    0  502  0.44534734888E+02 -0.33278459282E+02  0.15564030717E+03  0.16533842167E+03  0.47000000000E+01 0.  1.
         13    1    6    6    0    0 -0.26916249924E+02  0.11142874061E+02  0.23189877155E+03  0.23372139054E+03  0.00000000000E+00 0. -1.
        -14    1    6    6    0    0 -0.78809968314E+02 -0.27174045243E+02  0.15441574202E+03  0.17548122755E+03  0.00000000000E+00 0.  1.
</event>
<event>
12    1  0.9017558E-003  0.2035492E+03  0.7818608E-02  0.1147225E+00
         21   -1    0    0  501  502  0.00000000000E+00  0.00000000000E+00  0.12259948724E+04  0.12259948724E+04  0.00000000000E+00 0.  1.
         21   -1    0    0  502  503 -0.00000000000E+00 -0.00000000000E+00 -0.44549175724E+02  0.44549175724E+02  0.00000000000E+00 0.  1.
          6    2    1    2  501    0  0.51320292955E+02 -0.90820083236E+02  0.90562022096E+03  0.92774386254E+03  0.17227486725E+03 0.  0.
         24    2    3    3    0    0 -0.12507713825E+02  0.99123471759E+01  0.40530488328E+03  0.41339129464E+03  0.79784813998E+02 0.  0.
         -6    2    1    2    0  503 -0.51320292955E+02  0.90820083236E+02  0.27582547570E+03  0.34280018557E+03  0.17478619565E+03 0.  0.
        -24    2    5    5    0    0 -0.82313006971E+02  0.12090995187E+02  0.11000270841E+03  0.15657962339E+03  0.74127992830E+02 0.  0.
          5    1    3    3  501    0  0.63828006780E+02 -0.10073243041E+03  0.50031533768E+03  0.51435256790E+03  0.47000000000E+01 0. -1.
        -11    1    4    4    0    0  0.12631210074E+02 -0.16803230821E+02  0.31991706405E+02  0.38280090291E+02  0.00000000000E+00 0.  1.
         12    1    4    4    0    0 -0.25138923899E+02  0.26715577997E+02  0.37331317687E+03  0.37511120435E+03  0.00000000000E+00 0. -1.
         -5    1    5    5    0  503  0.30992714016E+02  0.78729088049E+02  0.16582276729E+03  0.18622056218E+03  0.47000000000E+01 0.  1.
         11    1    6    6    0    0 -0.63869264358E+02  0.11278670480E+02  0.24860527524E+02  0.69458888317E+02  0.00000000000E+00 0. -1.
        -12    1    6    6    0    0 -0.18443742613E+02  0.81232470761E+00  0.85142180887E+02  0.87120735070E+02  0.00000000000E+00 0.  1.
</event>
<event>
12    1  0.9017558E-003  0.1952472E+03  0.7818608E-02  0.1154094E+00
         21   -1    0    0  503  502  0.00000000000E+00  0.00000000000E+00  0.27212413429E+03  0.27212413429E+03  0.00000000000E+00 0. -1.
         21   -1    0    0  501  503 -0.00000000000E+00 -0.00000000000E+00 -0.14427009334E+03  0.14427009334E+03  0.00000000000E+00 0. -1.
          6    2    1    2  501    0 -0.38643567463E+02  0.84008148279E+02  0.24558772801E+02  0.19550655288E+03  0.17049628915E+03 0.  0.
         24    2    3    3    0    0 -0.80547906462E+02  0.67692699455E+02 -0.16722008013E+02  0.13428269836E+03  0.81743199918E+02 0.  0.
         -6    2    1    2    0  502  0.38643567463E+02 -0.84008148279E+02  0.10329526815E+03  0.22088767474E+03  0.17196150193E+03 0.  0.
        -24    2    5    5    0    0  0.47230515059E+02 -0.40599878488E+02 -0.71982166029E+01  0.10177044791E+03  0.80164443862E+02 0.  0.
          5    1    3    3  501    0  0.41904338999E+02  0.16315448824E+02  0.41280780814E+02  0.61223854516E+02  0.47000000000E+01 0. -1.
        -13    1    4    4    0    0 -0.14348921759E+02  0.55112619618E+01 -0.38008088814E+02  0.40998541186E+02  0.00000000000E+00 0.  1.
         14    1    4    4    0    0 -0.66198984703E+02  0.62181437493E+02  0.21286080801E+02  0.93284157177E+02  0.00000000000E+00 0. -1.
         -5    1    5    5    0  502 -0.85869475958E+01 -0.43408269791E+02  0.11049348475E+03  0.11911722683E+03  0.47000000000E+01 0.  1.
         11    1    6    6    0    0  0.51118165775E+01 -0.45060457502E+02 -0.29304915014E+02  0.53994013955E+02  0.00000000000E+00 0. -1.
        -12    1    6    6    0    0  0.42118698482E+02  0.44605790142E+01  0.22106698411E+02  0.47776433956E+02  0.00000000000E+00 0.  1.
</event>
<event>
12    1  0.9017558E-003  0.2714057E+03  0.7818608E-02  0.1101247E+00
         21   -1    0    0  503  502  0.00000000000E+00  0.00000000000E+00  0.10301888152E+04  0.10301888152E+04  0.00000000000E+00 0.  1.
         21   -1    0    0  501  503 -0.00000000000E+00 -0.00000000000E+00 -0.11027730953E+03  0.11027730953E+03  0.00000000000E+00 0. -1.
          6    2    1    2  501    0  0.86225930593E+02 -0.18359023416E+03  0.11286124695E+03  0.28900199363E+03  0.17217492870E+03 0.  0.
         24    2    3    3    0    0  0.68151973782E+02 -0.55360220347E+02  0.25560867739E+01  0.11882877976E+03  0.80026869186E+02 0.  0.
         -6    2    1    2    0  502 -0.86225930593E+02  0.18359023416E+03  0.80705025875E+03  0.85146413113E+03  0.18033513597E+03 0.  0.
        -24    2    5    5    0    0 -0.10396677380E+03  0.58930850086E+02  0.36658363832E+03  0.39332918020E+03  0.77732521904E+02 0.  0.
          5    1    3    3  501    0  0.18073956811E+02 -0.12823001381E+03  0.11030516018E+03  0.17017321387E+03  0.47000000000E+01 0. -1.
        -13    1    4    4    0    0 -0.40230262092E+01 -0.32714937882E+02 -0.21615221484E+02  0.39416617058E+02  0.00000000000E+00 0.  1.
         14    1    4    4    0    0  0.72174999991E+02 -0.22645282465E+02  0.24171308257E+02  0.79412162699E+02  0.00000000000E+00 0. -1.
         -5    1    5    5    0  502  0.17740843207E+02  0.12465938407E+03  0.44046662043E+03  0.45813495093E+03  0.47000000000E+01 0.  1.
         11    1    6    6    0    0 -0.68765360819E+02  0.49351965802E+02  0.13827502143E+03  0.16212425151E+03  0.00000000000E+00 0. -1.
        -12    1    6    6    0    0 -0.35201412981E+02  0.95788842844E+01  0.22830861690E+03  0.23120492869E+03  0.00000000000E+00 0.  1.
</event>
<event>
12    1  0.9017558E-003  0.2249682E+03  0.7818608E-02  0.1132657E+00
         21   -1    0    0  501  502  0.00000000000E+00  0.00000000000E+00  0.72987854211E+03  0.72987854211E+03  0.00000000000E+00 0.  1.
         21   -1    0    0  502  503 -0.00000000000E+00 -0.00000000000E+00 -0.71243068560E+02  0.71243068560E+02  0.00000000000E+00 0. -1.
          6    2    1    2  501    0  0.40483553911E+02 -0.13975645632E+03  0.20567290219E+03  0.29536892075E+03  0.15417740246E+03 0.  0.
         24    2    3    3    0    0  0.29139246555E+02 -0.18218479652E+02  0.71626526162E+02  0.11401100389E+03  0.81774941562E+02 0.  0.
         -6    2    1    2    0  503 -0.40483553911E+02  0.13975645632E+03  0.45296257135E+03  0.50575268991E+03  0.17158061396E+03 0.  0.
        -24    2    5    5    0    0 -0.79005665631E+02  0.14191965919E+03  0.40244020411E+03  0.44200920295E+03  0.83850657384E+02 0.  0.
          5    1    3    3  501    0  0.11344307356E+02 -0.12153797667E+03  0.13404637603E+03  0.18135791686E+03  0.47000000000E+01 0. -1.
        -13    1    4    4    0    0 -0.12815614884E+02  0.15637731620E+01  0.66040982522E+02  0.67291134214E+02  0.00000000000E+00 0.  1.
         14    1    4    4    0    0  0.41954861440E+02 -0.19782252814E+02  0.55855436396E+01  0.46719869676E+02  0.00000000000E+00 0. -1.
         -5    1    5    5    0  503  0.38522111719E+02 -0.21632028713E+01  0.50522367242E+02  0.63743486959E+02  0.47000000000E+01 0.  1.
         13    1    6    6    0    0  0.13342479986E+02  0.15555435735E+00  0.36088078818E+02  0.38475906774E+02  0.00000000000E+00 0. -1.
        -14    1    6    6    0    0 -0.92348145617E+02  0.14176410483E+03  0.36635212529E+03  0.40353329618E+03  0.00000000000E+00 0.  1.
</event>
<event>
12    1  0.9017558E-003  0.2234827E+03  0.7818608E-02  0.1131414E+00
         21   -1    0    0  501  502  0.00000000000E+00  0.00000000000E+00  0.16090024657E+03  0.16090024657E+03  0.00000000000E+00 0.  1.
         21   -1    0    0  502  503 -0.00000000000E+00 -0.00000000000E+00 -0.34077870721E+03  0.34077870721E+03  0.00000000000E+00 0.  1.
          6    2    1    2  501    0 -0.12472391886E+03 -0.69705483111E+02 -0.16566573826E+03  0.27774475265E+03  0.17112013464E+03 0.  0.
         24    2    3    3    0    0 -0.56097974454E+02 -0.62779140781E+02 -0.23745432508E+02  0.11988102138E+03  0.81972010273E+02 0.  0.
         -6    2    1    2    0  503  0.12472391886E+03  0.69705483111E+02 -0.14212722388E+02  0.22393420113E+03  0.17184183031E+03 0.  0.
        -24    2    5    5    0    0  0.92682788836E+02 -0.15359413755E+02  0.20429791166E+02  0.12654393243E+03  0.82279885331E+02 0.  0.
          5    1    3    3  501    0 -0.68625944410E+02 -0.69263423307E+01 -0.14192030575E+03  0.15786373126E+03  0.47000000000E+01 0. -1.
        -13    1    4    4    0    0 -0.55776902551E+02 -0.11379336234E+01 -0.13423814438E+02  0.57380802933E+02  0.00000000000E+00 0.  1.
         14    1    4    4    0    0 -0.32107190318E+00 -0.61641207157E+02 -0.10321618070E+02  0.62500218452E+02  0.00000000000E+00 0. -1.
         -5    1    5    5    0  503  0.32041130028E+02  0.85064896867E+02 -0.34642513554E+02  0.97390268702E+02  0.47000000000E+01 0.  1.
         13    1    6    6    0    0  0.83915683700E+02  0.71345759354E+01  0.42053036607E+02  0.94133957913E+02  0.00000000000E+00 0. -1.
        -14    1    6    6    0    0  0.87671051364E+01 -0.22493989691E+02 -0.21623245441E+02  0.32409974515E+02  0.00000000000E+00 0.  1.
</event>
<event>
12    1  0.9017558E-003  0.1866078E+03  0.7818608E-02  0.1162003E+00
         21   -1    0    0  503  502  0.00000000000E+00  0.00000000000E+00  0.12788934463E+03  0.12788934463E+03  0.00000000000E+00 0.  1.
         21   -1    0    0  501  503 -0.00000000000E+00 -0.00000000000E+00 -0.28010275678E+03  0.28010275678E+03  0.00000000000E+00 0.  1.
          6    2    1    2  501    0  0.72943405109E+02 -0.17753691974E+00 -0.36019678056E+02  0.18816609889E+03  0.16967112806E+03 0.  0.
         24    2    3    3    0    0  0.80507703521E+02  0.56789735770E+01  0.33427584200E+02  0.11790565796E+03  0.79187118431E+02 0.  0.
         -6    2    1    2    0  502 -0.72943405109E+02  0.17753691974E+00 -0.11619373409E+03  0.21982600252E+03  0.17176063482E+03 0.  0.
        -24    2    5    5    0    0 -0.23975154075E+02 -0.64026096105E+02 -0.69975342981E+02  0.12666900719E+03  0.80463282064E+02 0.  0.
          5    1    3    3  501    0 -0.75642984125E+01 -0.58565104967E+01 -0.69447262256E+02  0.70260440936E+02  0.47000000000E+01 0. -1.
        -11    1    4    4    0    0  0.38173204193E+01  0.35441936096E+01 -0.22416298343E+02  0.23013554157E+02  0.00000000000E+00 0.  1.
         12    1    4    4    0    0  0.76690383102E+02  0.21347799673E+01  0.55843882543E+02  0.94892103799E+02  0.00000000000E+00 0. -1.
         -5    1    5    5    0  502 -0.48968251034E+02  0.64203633025E+02 -0.46218391109E+02  0.93156995334E+02  0.47000000000E+01 0.  1.
         13    1    6    6    0    0  0.26354241629E+02 -0.21492988693E+02 -0.54466664349E+01  0.34440685098E+02  0.00000000000E+00 0. -1.
        -14    1    6    6    0    0 -0.50329395704E+02 -0.42533107413E+02 -0.64528676547E+02  0.92228322087E+02  0.00000000000E+00 0.  1.
</event>
<event>
12    1  0.9017558E-003  0.2511964E+03  0.7818608E-02  0.1113779E+00
         21   -1    0    0  503  502  0.00000000000E+00  0.00000000000E+00  0.20966094375E+04  0.20966094375E+04  0.00000000000E+00 0.  1.
         21   -1    0    0  501  503 -0.00000000000E+00 -0.00000000000E+00 -0.49565670767E+02  0.49565670767E+02  0.00000000000E+00 0. -1.
          6    2    1    2  501    0 -0.12546968752E+03 -0.11808384391E+03  0.32604368365E+03  0.40693938383E+03  0.17207190876E+03 0.  0.
         24    2    3    3    0    0 -0.12123377845E+03 -0.21963126627E+02  0.18300373720E+03  0.23448750214E+03  0.79460763037E+02 0.  0.
         -6    2    1    2    0  502  0.12546968752E+03  0.11808384391E+03  0.17210000831E+04  0.17392357244E+04  0.18279273104E+03 0.  0.
        -24    2    5    5    0    0  0.23218131253E+02  0.90187686631E+01  0.35373288858E+03  0.36381133809E+03  0.81309983730E+02 0.  0.
          5    1    3    3  501    0 -0.42359090638E+01 -0.96120717281E+02  0.14303994645E+03  0.17245188169E+03  0.47000000000E+01 0. -1.
        -11    1    4    4    0    0 -0.28280342865E+02  0.29034857574E+02  0.53453014191E+02  0.67082229189E+02  0.00000000000E+00 0.  1.
         12    1    4    4    0    0 -0.92953435587E+02 -0.50997984201E+02  0.12955072301E+03  0.16740527295E+03  0.00000000000E+00 0. -1.
         -5    1    5    5    0  502  0.10225155626E+03  0.10906507525E+03  0.13672671945E+04  0.13754243863E+04  0.47000000000E+01 0.  1.
         11    1    6    6    0    0 -0.81475783115E+01  0.22562390200E+02  0.30622121706E+02  0.38899342175E+02  0.00000000000E+00 0. -1.
        -12    1    6    6    0    0  0.31365709565E+02 -0.13543621537E+02  0.32311076687E+03  0.32491199591E+03  0.00000000000E+00 0.  1.
</event>
<event>
12    1  0.9017558E-003  0.2029241E+03  0.7818608E-02  0.1147449E+00
         21   -1    0    0  501  502  0.00000000000E+00  0.00000000000E+00  0.78711136714E+03  0.78711136714E+03  0.00000000000E+00 0. -1.
         21   -1    0    0  502  503 -0.00000000000E+00 -0.00000000000E+00 -0.13263593408E+03  0.13263593408E+03  0.00000000000E+00 0.  1.
          6    2    1    2  501    0 -0.10236450547E+03 -0.29652927433E+02  0.68529402748E+03  0.71449633997E+03  0.17181189612E+03 0.  0.
         24    2    3    3    0    0 -0.12614884582E+03 -0.24970319867E+02  0.39844251051E+03  0.42658401921E+03  0.81733977555E+02 0.  0.
         -6    2    1    2    0  503  0.10236450547E+03  0.29652927433E+02 -0.30818594418E+02  0.20525096124E+03  0.17268579341E+03 0.  0.
        -24    2    5    5    0    0  0.13834833715E+03  0.32229175734E+02 -0.41823108514E+02  0.16724224477E+03  0.77729105679E+02 0.  0.
          5    1    3    3  501    0  0.23784340350E+02 -0.46826075662E+01  0.28685151697E+03  0.28791232076E+03  0.47000000000E+01 0. -1.
        -11    1    4    4    0    0 -0.23456027935E+02 -0.28633356595E+02  0.43754475436E+02  0.57310631449E+02  0.00000000000E+00 0.  1.
         12    1    4    4    0    0 -0.10269281789E+03  0.36630367284E+01  0.35468803507E+03  0.36927338776E+03  0.00000000000E+00 0. -1.
         -5    1    5    5    0  503 -0.35983831678E+02 -0.25762483009E+01  0.11004514096E+02  0.38008716474E+02  0.47000000000E+01 0.  1.
         13    1    6    6    0    0  0.15815120640E+02  0.26689793816E+02  0.12040550796E+02  0.33278191031E+02  0.00000000000E+00 0. -1.
        -14    1    6    6    0    0  0.12253321651E+03  0.55393819177E+01 -0.53863659310E+02  0.13396405374E+03  0.00000000000E+00 0.  1.
</event>
<event>
12    1  0.9017558E-003  0.1763936E+03  0.7818608E-02  0.1172564E+00
         21   -1    0    0  503  502  0.00000000000E+00  0.00000000000E+00  0.19211009411E+03  0.19211009411E+03  0.00000000000E+00 0.  1.
         21   -1    0    0  501  503 -0.00000000000E+00 -0.00000000000E+00 -0.16875124572E+03  0.16875124572E+03  0.00000000000E+00 0.  1.
          6    2    1    2  501    0 -0.31361864038E+02 -0.14696276468E+02  0.58034908598E+02  0.18109167188E+03  0.16800772587E+03 0.  0.
         24    2    3    3    0    0 -0.10694633658E+02 -0.73834728254E+02  0.34997132254E+02  0.11417889261E+03  0.79032132493E+02 0.  0.
         -6    2    1    2    0  502  0.31361864038E+02  0.14696276468E+02 -0.34676060204E+02  0.17976966795E+03  0.17295998758E+03 0.  0.
        -24    2    5    5    0    0  0.35346277423E+02 -0.63298238993E+01  0.44139008871E+02  0.97965770976E+02  0.79747189170E+02 0.  0.
          5    1    3    3  501    0 -0.20667230380E+02  0.59138451786E+02  0.23037776344E+02  0.66912779274E+02  0.47000000000E+01 0. -1.
        -13    1    4    4    0    0  0.41066072108E+01  0.16232490661E+02  0.10157645443E+02  0.19584068443E+02  0.00000000000E+00 0.  1.
         14    1    4    4    0    0 -0.14801240869E+02 -0.90067218915E+02  0.24839486810E+02  0.94594824167E+02  0.00000000000E+00 0. -1.
         -5    1    5    5    0  502 -0.39844133852E+01  0.21026100367E+02 -0.78815069075E+02  0.81803896973E+02  0.47000000000E+01 0.  1.
         13    1    6    6    0    0  0.26903825172E+02 -0.38501530376E+02  0.59857228616E+01  0.47349894703E+02  0.00000000000E+00 0. -1.
        -14    1    6    6    0    0  0.84424522519E+01  0.32171706477E+02  0.38153286009E+02  0.50615876273E+02  0.00000000000E+00 0.  1.
</event>
<event>
12    1  0.9017558E-003  0.2414029E+03  0.7818608E-02  0.1119379E+00
         21   -1    0    0  503  502  0.00000000000E+00  0.00000000000E+00  0.83167792340E+03  0.83167792340E+03  0.00000000000E+00 0. -1.
         21   -1    0    0  501  503 -0.00000000000E+00 -0.00000000000E+00 -0.88569116616E+02  0.88569116616E+02  0.00000000000E+00 0.  1.
          6    2    1    2  501    0 -0.10429173097E+03 -0.13191736773E+03  0.15810189288E+03  0.28856815941E+03  0.17319473731E+03 0.  0.
         24    2    3    3    0    0 -0.13901213836E+03 -0.10533517694E+03  0.14877802749E+03  0.24361102402E+03  0.82410894005E+02 0.  0.
         -6    2    1    2    0  502  0.10429173097E+03  0.13191736773E+03  0.58500691390E+03  0.63167888061E+03  0.16883767895E+03 0.  0.
        -24    2    5    5    0    0  0.21283926064E+02  0.13126725458E+03  0.39794133558E+03  0.42696850248E+03  0.79124572082E+02 0.  0.
          5    1    3    3  501    0  0.34720407383E+02 -0.26582190794E+02  0.93238653939E+01  0.44957135386E+02  0.47000000000E+01 0. -1.
        -13    1    4    4    0    0 -0.22247668907E+02 -0.57471352135E+01 -0.78965541247E+01  0.24296993682E+02  0.00000000000E+00 0.  1.
         14    1    4    4    0    0 -0.11676446945E+03 -0.99588041724E+02  0.15667458161E+03  0.21931403034E+03  0.00000000000E+00 0. -1.
         -5    1    5    5    0  502  0.83007804911E+02  0.65011315309E+00  0.18706557832E+03  0.20471037813E+03  0.47000000000E+01 0.  1.
         13    1    6    6    0    0 -0.28826851301E+02  0.29525726605E+02  0.11166778981E+03  0.11904810443E+03  0.00000000000E+00 0. -1.
        -14    1    6    6    0    0  0.50110777365E+02  0.10174152797E+03  0.28627354577E+03  0.30792039804E+03  0.00000000000E+00 0.  1.
</event>
<event>
12    1  0.9017558E-003  0.1942900E+03  0.7818608E-02  0.1154746E+00
         21   -1    0    0  501  502  0.00000000000E+00  0.00000000000E+00  0.53213903087E+03  0.53213903087E+03  0.00000000000E+00 0.  1.
         21   -1    0    0  502  503 -0.00000000000E+00 -0.00000000000E+00 -0.70930895306E+02  0.70930895306E+02  0.00000000000E+00 0.  1.
          6    2    1    2  501    0  0.86719709078E+02  0.20830297875E+02  0.24451059418E+03  0.31202625727E+03  0.17210678460E+03 0.  0.
         24    2    3    3    0    0  0.20912388184E+02 -0.50070437193E+02  0.10898868986E+03  0.14545556877E+03  0.79589014997E+02 0.  0.
         -6    2    1    2    0  503 -0.86719709078E+02 -0.20830297875E+02  0.21669754138E+03  0.29104366891E+03  0.17261049654E+03 0.  0.
        -24    2    5    5    0    0 -0.78838379275E+02 -0.77400504537E+02  0.13623831804E+03  0.19226067309E+03  0.78720765785E+02 0.  0.
          5    1    3    3  501    0  0.65807320894E+02  0.70900735068E+02  0.13552190432E+03  0.16657068850E+03  0.47000000000E+01 0. -1.
        -13    1    4    4    0    0  0.16750111839E+01  0.15358571901E+02  0.58757982268E+02  0.60755179808E+02  0.00000000000E+00 0.  1.
         14    1    4    4    0    0  0.19237377000E+02 -0.65429009094E+02  0.50230707587E+02  0.84700388957E+02  0.00000000000E+00 0. -1.
         -5    1    5    5    0  503 -0.78813298028E+01  0.56570206662E+02  0.80459223345E+02  0.98782995817E+02  0.47000000000E+01 0.  1.
         11    1    6    6    0    0 -0.77753176825E+01 -0.59967938749E+02  0.78286763588E+02  0.98921315175E+02  0.00000000000E+00 0. -1.
        -12    1    6    6    0    0 -0.71063061592E+02 -0.17432565789E+02  0.57951554452E+02  0.93339357916E+02  0.00000000000E+00 0.  1.
</event>
<event>
12    1  0.9017558E-003  0.1955324E+03  0.7818608E-02  0.1153637E+00
         21   -1    0    0  503  502  0.00000000000E+00  0.00000000000E+00  0.18340050050E+03  0.18340050050E+03  0.00000000000E+00 0.  1.
         21   -1    0    0  501  503 -0.00000000000E+00 -0.00000000000E+00 -0.20993917767E+03  0.20993917767E+03  0.00000000000E+00 0. -1.
          6    2    1    2  501    0  0.17682180478E+02  0.91460823017E+02  0.51124243608E+01  0.19526215948E+03  0.17153259862E+03 0.  0.
         24    2    3    3    0    0 -0.40198490602E+02  0.56924844217E+02  0.31625681987E+02  0.12268152331E+03  0.95886473839E+02 0.  0.
         -6    2    1    2    0  502 -0.17682180478E+02 -0.91460823017E+02 -0.31651101526E+02  0.19807751869E+03  0.17191617006E+03 0.  0.
        -24    2    5    5    0    0 -0.28112804509E+02 -0.12928189862E+03 -0.34646048554E+02  0.15845061640E+03  0.80013186860E+02 0.  0.
          5    1    3    3  501    0  0.57880671081E+02  0.34535978800E+02 -0.26513257626E+02  0.72580636167E+02  0.47000000000E+01 0. -1.
        -13    1    4    4    0    0  0.16965807589E+02 -0.24918765996E+01 -0.19264030055E+02  0.25790520159E+02  0.00000000000E+00 0.  1.
         14    1    4    4    0    0 -0.57164298191E+02  0.59416720817E+02  0.50889712042E+02  0.96891003153E+02  0.00000000000E+00 0. -1.
         -5    1    5    5    0  502  0.10430624031E+02  0.37821075598E+02  0.29949470270E+01  0.39626902286E+02  0.47000000000E+01 0.  1.
         13    1    6    6    0    0 -0.33170914374E+02 -0.39448482605E+02 -0.44293920943E+02  0.67959133108E+02  0.00000000000E+00 0. -1.
        -14    1    6    6    0    0  0.50581098649E+01 -0.89833416010E+02  0.96478723898E+01  0.90491483296E+02  0.00000000000E+00 0.  1.
</event>
<event>
12    1  0.9017558E-003  0.1775040E+03  0.7818608E-02  0.1170335E+00
         21   -1    0    0  503  502  0.00000000000E+00  0.00000000000E+00  0.14408192737E+03  0.14408192737E+03  0.00000000000E+00 0. -1.
         21   -1    0    0  501  503 -0.00000000000E+00 -0.00000000000E+00 -0.40321304392E+03  0.40321304392E+03  0.00000000000E+00 0. -1.
          6    2    1    2  501    0 -0.22464874498E+02  0.34816961909E+02 -0.31499989168E+03  0.36156965479E+03  0.17260009295E+03 0.  0.
         24    2    3    3    0    0 -0.29859217783E+02  0.77300198062E+02 -0.13636794652E+03  0.17774646937E+03  0.78298767732E+02 0.  0.
         -6    2    1    2    0  502  0.22464874498E+02 -0.34816961909E+02  0.55868775125E+02  0.18572531650E+03  0.17220825106E+03 0.  0.
        -24    2    5    5    0    0  0.81101306884E+02 -0.24269832061E+02  0.26688618307E+02  0.11921934156E+03  0.79589712456E+02 0.  0.
          5    1    3    3  501    0  0.73943432852E+01 -0.42483236154E+02 -0.17863194516E+03  0.18382318542E+03  0.47000000000E+01 0. -1.
        -11    1    4    4    0    0  0.10393010218E+02  0.40549882690E+02 -0.14595280723E+02  0.44332041087E+02  0.00000000000E+00 0.  1.
         12    1    4    4    0    0 -0.40252228001E+02  0.36750315373E+02 -0.12177266579E+03  0.13341442828E+03  0.00000000000E+00 0. -1.
         -5    1    5    5    0  502 -0.58636432386E+02 -0.10547129847E+02  0.29180156818E+02  0.66505974941E+02  0.47000000000E+01 0.  1.
         11    1    6    6    0    0  0.69238564998E+02 -0.44470370819E+02  0.40823208101E+02  0.91859278701E+02  0.00000000000E+00 0. -1.
        -12    1    6    6    0    0  0.11862741886E+02  0.20200538757E+02 -0.14134589794E+02  0.27360062862E+02  0.00000000000E+00 0.  1.
</event>
<event>
12    1  0.9017558E-003  0.2542303E+03  0.7818608E-02  0.1110678E+00
         21   -1    0    0  501  502  0.00000000000E+00  0.00000000000E+00  0.48165741036E+03  0.48165741036E+03  0.00000000000E+00 0. -1.
         21   -1    0    0  502  503 -0.00000000000E+00 -0.00000000000E+00 -0.16933491388E+03  0.16933491388E+03  0.00000000000E+00 0.  1.
          6    2    1    2  501    0 -0.17005286173E+03  0.77034756589E+02  0.30455208578E+03  0.39664332697E+03  0.17239961245E+03 0.  0.
         24    2    3    3    0    0 -0.65821894348E+02  0.78995211771E+02  0.91383826761E+02  0.15930236001E+03  0.80333510142E+02 0.  0.
         -6    2    1    2    0  503  0.17005286173E+03 -0.77034756589E+02  0.77704106948E+01  0.25434899727E+03  0.17257086552E+03 0.  0.
        -24    2    5    5    0    0  0.53902000113E+02  0.23901191257E+02  0.12741934042E+02  0.10031687638E+03  0.80152518637E+02 0.  0.
          5    1    3    3  501    0 -0.10423096738E+03 -0.19604551822E+01  0.21316825902E+03  0.23734096696E+03  0.47000000000E+01 0. -1.
        -13    1    4    4    0    0 -0.76031484161E+01 -0.75936745983E+01  0.42939420377E+02  0.44263592060E+02  0.00000000000E+00 0.  1.
         14    1    4    4    0    0 -0.58218745932E+02  0.86588886370E+02  0.48444406384E+02  0.11503876795E+03  0.00000000000E+00 0. -1.
         -5    1    5    5    0  503  0.11615086161E+03 -0.10093594785E+03 -0.49715233475E+01  0.15403212089E+03  0.47000000000E+01 0.  1.
         13    1    6    6    0    0  0.35916985601E+02  0.24009177673E+02 -0.30898999140E+02  0.53115144875E+02  0.00000000000E+00 0. -1.
        -14    1    6    6    0    0  0.17985014511E+02 -0.10798641571E+00  0.43640933183E+02  0.47201731505E+02  0.00000000000E+00 0.  1.
</event>
<event>
12    1  0.9017558E-003  0.2701131E+03  0.7818608E-02  0.1101517E+00
         21   -1    0    0  503  502  0.00000000000E+00  0.00000000000E+00  0.93969927521E+02  0.93969927521E+02  0.00000000000E+00 0. -1.
         21   -1    0    0  501  503 -0.00000000000E+00 -0.00000000000E+00 -0.77227323190E+03  0.77227323190E+03  0.00000000000E+00 0.  1.
          6    2    1    2  501    0  0.15344997559E+03  0.13633852836E+03 -0.31649921121E+03  0.41473094821E+03  0.17232213839E+03 0.  0.
         24    2    3    3    0    0  0.15193754497E+03  0.90044852161E+02 -0.15827669924E+03  0.24980112921E+03  0.78460166056E+02 0.  0.
         -6    2    1    2    0  502 -0.15344997559E+03 -0.13633852836E+03 -0.36180409317E+03  0.45151221122E+03  0.17557330582E+03 0.  0.
        -24    2    5    5    0    0 -0.14262378959E+03 -0.37808020601E+02 -0.19371002197E+03  0.25631186789E+03  0.80007557325E+02 0.  0.
          5    1    3    3  501    0  0.15124306212E+01  0.46293676200E+02 -0.15822251197E+03  0.16492981900E+03  0.47000000000E+01 0. -1.
        -11    1    4    4    0    0  0.13349351955E+03  0.10217455881E+03 -0.15252480941E+03  0.22698893743E+03  0.00000000000E+00 0.  1.
         12    1    4    4    0    0  0.18444025420E+02 -0.12129706645E+02 -0.57518898277E+01  0.22812191775E+02  0.00000000000E+00 0. -1.
         -5    1    5    5    0  502 -0.10826186000E+02 -0.98530507761E+02 -0.16809407121E+03  0.19520034333E+03  0.47000000000E+01 0.  1.
         11    1    6    6    0    0 -0.69291501467E+02 -0.57104985209E+02 -0.84070608849E+02  0.12300471041E+03  0.00000000000E+00 0. -1.
        -12    1    6    6    0    0 -0.73332288123E+02  0.19296964608E+02 -0.10963941312E+03  0.13330715747E+03  0.00000000000E+00 0.  1.
</event>
<event>
12    1  0.9017558E-003  0.4425410E+03  0.7818608E-02  0.1030035E+00
         21   -1    0    0  501  502  0.00000000000E+00  0.00000000000E+00  0.73787247530E+03  0.73787247530E+03  0.00000000000E+00 0.  1.
         21   -1    0    0  502  503 -0.00000000000E+00 -0.00000000000E+00 -0.28170326183E+03  0.28170326183E+03  0.00000000000E+00 0. -1.
          6    2    1    2  501    0  0.34251716007E+03 -0.22106975920E+03  0.10338415102E+03  0.45362537108E+03  0.16999367998E+03 0.  0.
         24    2    3    3    0    0  0.28935930100E+03 -0.24032210586E+03  0.83373228086E+02  0.39346776251E+03  0.79889081438E+02 0.  0.
         -6    2    1    2    0  503 -0.34251716007E+03  0.22106975920E+03  0.35278506245E+03  0.56595036604E+03  0.17219951557E+03 0.  0.
        -24    2    5    5    0    0 -0.14340760223E+03  0.14666017031E+03  0.24257055576E+03  0.32647024072E+03  0.75282120195E+02 0.  0.
          5    1    3    3  501    0  0.53157859071E+02  0.19252346660E+02  0.20010922931E+02  0.60157608576E+02  0.47000000000E+01 0. -1.
        -13    1    4    4    0    0  0.20127486124E+03 -0.16880665287E+03  0.19865156433E+02  0.26344236611E+03  0.00000000000E+00 0.  1.
         14    1    4    4    0    0  0.88084439755E+02 -0.71515452983E+02  0.63508071654E+02  0.13002539639E+03  0.00000000000E+00 0. -1.
         -5    1    5    5    0  503 -0.19910955784E+03  0.74409588889E+02  0.11021450669E+03  0.23948012532E+03  0.47000000000E+01 0.  1.
         13    1    6    6    0    0 -0.42641242895E+02  0.28577850695E+02  0.19951726145E+02  0.55073047148E+02  0.00000000000E+00 0. -1.
        -14    1    6    6    0    0 -0.10076635934E+03  0.11808231961E+03  0.22261882962E+03  0.27139719357E+03  0.00000000000E+00 0.  1.
</event>
<event>
12    1  0.9017558E-003  0.2561870E+03  0.7818608E-02  0.1109694E+00
         21   -1    0    0  501  502  0.00000000000E+00  0.00000000000E+00  0.76836222285E+02  0.76836222285E+02  0.00000000000E+00 0.  1.
         21   -1    0    0  502  503 -0.00000000000E+00 -0.00000000000E+00 -0.90573856707E+03  0.90573856707E+03  0.00000000000E+00 0. -1.
          6    2    1    2  501    0 -0.29825007042E+02 -0.18833824777E+03 -0.29032008222E+03  0.38616670158E+03  0.16875468780E+03 0.  0.
         24    2    3    3    0    0  0.54771724703E+01 -0.66915063229E+02 -0.21603586635E+03  0.23943542220E+03  0.78423215635E+02 0.  0.
         -6    2    1    2    0  503  0.29825007042E+02  0.18833824777E+03 -0.53858226256E+03  0.59640808777E+03  0.17108748345E+03 0.  0.
        -24    2    5    5    0    0 -0.47434687553E+02  0.11185861210E+03 -0.27392908116E+03  0.31025849139E+03  0.80379047591E+02 0.  0.
          5    1    3    3  501    0 -0.35302179512E+02 -0.12142318454E+03 -0.74284215870E+02  0.14673127938E+03  0.47000000000E+01 0. -1.
        -13    1    4    4    0    0  0.66687979207E+01 -0.34905792452E+02 -0.19956976295E+02  0.40757430185E+02  0.00000000000E+00 0.  1.
         14    1    4    4    0    0 -0.11916254504E+01 -0.32009270777E+02 -0.19607889005E+03  0.19867799202E+03  0.00000000000E+00 0. -1.
         -5    1    5    5    0  503  0.77259694595E+02  0.76479635661E+02 -0.26465318140E+03  0.28614959638E+03  0.47000000000E+01 0.  1.
         11    1    6    6    0    0 -0.36500887858E+02  0.29359889509E+02 -0.17409828591E+03  0.18029013029E+03  0.00000000000E+00 0. -1.
        -12    1    6    6    0    0 -0.10933799695E+02  0.82498722595E+02 -0.99830795252E+02  0.12996836110E+03  0.00000000000E+00 0.  1.
</event>
<event>
12    1  0.9017558E-003  0.2255844E+03  0.7818608E-02  0.1130765E+00
         21   -1    0    0  503  502  0.00000000000E+00  0.00000000000E+00  0.38152627758E+03  0.38152627758E+03  0.00000000000E+00 0. -1.
         21   -1    0    0  501  503 -0.00000000000E+00 -0.00000000000E+00 -0.22852827368E+03  0.22852827368E+03  0.00000000000E+00 0. -1.
          6    2    1    2  501    0 -0.14570468581E+03 -0.11048332293E+02 -0.12301573401E+03  0.25694586068E+03  0.17186152389E+03 0.  0.
         24    2    3    3    0    0 -0.42399022957E+02  0.37502792050E+02 -0.99079518294E+02  0.14022266643E+03  0.81495451875E+02 0.  0.
         -6    2    1    2    0  502  0.14570468581E+03  0.11048332293E+02  0.27601373791E+03  0.35310869058E+03  0.16477330712E+03 0.  0.
        -24    2    5    5    0    0  0.59215688694E+02  0.43714316319E+02  0.21834832114E+03  0.24404539050E+03  0.80403507640E+02 0.  0.
          5    1    3    3  501    0 -0.10330566285E+03 -0.48551124344E+02 -0.23936215712E+02  0.11672319425E+03  0.47000000000E+01 0. -1.
        -13    1    4    4    0    0 -0.40035303116E+02  0.18803902608E+02 -0.52766145033E+01  0.44544976255E+02  0.00000000000E+00 0.  1.
         14    1    4    4    0    0 -0.23637198413E+01  0.18698889442E+02 -0.93802903791E+02  0.95677690176E+02  0.00000000000E+00 0. -1.
         -5    1    5    5    0  502  0.86488997118E+02 -0.32665984026E+02  0.57665416770E+02  0.10906330009E+03  0.47000000000E+01 0.  1.
         13    1    6    6    0    0 -0.11066217816E+02 -0.12567868901E+02  0.55394927496E+02  0.57870635885E+02  0.00000000000E+00 0. -1.
        -14    1    6    6    0    0  0.70281906510E+02  0.56282185220E+02  0.16295339364E+03  0.18617475461E+03  0.00000000000E+00 0.  1.
</event>
<event>
12    1  0.9017558E-003  0.1781651E+03  0.7818608E-02  0.1172283E+00
         21   -1    0    0  503  502  0.00000000000E+00  0.00000000000E+00  0.21726687539E+03  0.21726687539E+03  0.00000000000E+00 0. -1.
         21   -1    0    0  501  503 -0.00000000000E+00 -0.00000000000E+00 -0.16023787408E+03  0.16023787408E+03  0.00000000000E+00 0. -1.
          6    2    1    2  501    0  0.39800650949E+02  0.21697592124E+02 -0.41776954238E+02  0.18299761196E+03  0.17230187102E+03 0.  0.
         24    2    3    3    0    0  0.71436089168E+02  0.14239158852E+02 -0.78242999660E+02  0.13392326380E+03  0.80669728595E+02 0.  0.
         -6    2    1    2    0  502 -0.39800650949E+02 -0.21697592124E+02  0.98805955554E+02  0.19450713751E+03  0.16129331161E+03 0.  0.
        -24    2    5    5    0    0 -0.50339170240E+02 -0.69324448872E+02  0.78183233010E+02  0.14133981148E+03  0.80773839284E+02 0.  0.
          5    1    3    3  501    0 -0.31635438219E+02  0.74584332727E+01  0.36466045423E+02  0.49074348156E+02  0.47000000000E+01 0. -1.
        -11    1    4    4    0    0 -0.17564360103E+02 -0.34613237510E+01 -0.14329698122E+02  0.22930934482E+02  0.00000000000E+00 0.  1.
         12    1    4    4    0    0  0.89000449271E+02  0.17700482603E+02 -0.63913301538E+02  0.11099232932E+03  0.00000000000E+00 0. -1.
         -5    1    5    5    0  502  0.10538519291E+02  0.47626856748E+02  0.20622722544E+02  0.53167326034E+02  0.47000000000E+01 0.  1.
         13    1    6    6    0    0 -0.42066596304E+02 -0.70480212918E+02  0.22602307748E+02  0.85134735879E+02  0.00000000000E+00 0. -1.
        -14    1    6    6    0    0 -0.82725739361E+01  0.11557640460E+01  0.55580925262E+02  0.56205075598E+02  0.00000000000E+00 0.  1.
</event>
<event>
12    1  0.9017558E-003  0.1867964E+03  0.7818608E-02  0.1162224E+00
         21   -1    0    0  503  502  0.00000000000E+00  0.00000000000E+00  0.54992853905E+02  0.54992853905E+02  0.00000000000E+00 0.  1.
         21   -1    0    0  501  503 -0.00000000000E+00 -0.00000000000E+00 -0.68447515049E+03  0.68447515049E+03  0.00000000000E+00 0.  1.
          6    2    1    2  501    0 -0.68297856198E+02  0.20615209934E+02 -0.42338647786E+03  0.46131626321E+03  0.16872166734E+03 0.  0.
         24    2    3    3    0    0 -0.48708624116E+02  0.25218883035E+02 -0.42939208500E+03  0.43979675726E+03  0.77685924787E+02 0.  0.
         -6    2    1    2    0  502  0.68297856198E+02 -0.20615209934E+02 -0.20609581873E+03  0.27815174118E+03  0.17263638256E+03 0.  0.
        -24    2    5    5    0    0  0.91081401251E+02  0.20128986139E+02 -0.76039096138E+02  0.13989104348E+03  0.71320138583E+02 0.  0.
          5    1    3    3  501    0 -0.19589232082E+02 -0.46036731013E+01  0.60056071370E+01  0.21519505958E+02  0.47000000000E+01 0. -1.
        -11    1    4    4    0    0 -0.38760628524E+02  0.37602129621E+02 -0.14131322944E+03  0.15128032023E+03  0.00000000000E+00 0.  1.
         12    1    4    4    0    0 -0.99479955923E+01 -0.12383246586E+02 -0.28807885556E+03  0.28851643702E+03  0.00000000000E+00 0. -1.
         -5    1    5    5    0  502 -0.22783545053E+02 -0.40744196072E+02 -0.13005672259E+03  0.13826069771E+03  0.47000000000E+01 0.  1.
         11    1    6    6    0    0  0.20107314433E+02  0.30464307904E+02 -0.53393989936E+02  0.64678406838E+02  0.00000000000E+00 0. -1.
        -12    1    6    6    0    0  0.70974086818E+02 -0.10335321766E+02 -0.22645106201E+02  0.75212636641E+02  0.00000000000E+00 0.  1.
</event>
<event>
12    1  0.9017558E-003  0.2152115E+03  0.7818608E-02  0.1137890E+00
         21   -1    0    0  503  502  0.00000000000E+00  0.00000000000E+00  0.82845446597E+02  0.82845446597E+02  0.00000000000E+00 0.  1.
         21   -1    0    0  501  503 -0.00000000000E+00 -0.00000000000E+00 -0.76260062172E+03  0.76260062172E+03  0.00000000000E+00 0. -1.
          6    2    1    2  501    0 -0.12574871893E+03  0.29064686674E+02 -0.55987386735E+03  0.59909765815E+03  0.16971081383E+03 0.  0.
         24    2    3    3    0    0 -0.15828548615E+03  0.29816575581E+02 -0.45490780725E+03  0.48910142943E+03  0.79597561963E+02 0.  0.
         -6    2    1    2    0  502  0.12574871893E+03 -0.29064686674E+02 -0.11988130777E+03  0.24634841017E+03  0.17221647690E+03 0.  0.
        -24    2    5    5    0    0  0.48887761911E+02 -0.34507043415E+02 -0.13495989176E+03  0.16769296118E+03  0.79536202670E+02 0.  0.
          5    1    3    3  501    0  0.32536767223E+02 -0.75188890775E+00 -0.10496606010E+03  0.10999622872E+03  0.47000000000E+01 0. -1.
        -11    1    4    4    0    0 -0.13004978373E+03  0.39077343044E+02 -0.27438050675E+03  0.30614481454E+03  0.00000000000E+00 0.  1.
         12    1    4    4    0    0 -0.28235702416E+02 -0.92607674626E+01 -0.18052730051E+03  0.18295661489E+03  0.00000000000E+00 0. -1.
         -5    1    5    5    0  502  0.76860957015E+02  0.54423567413E+01  0.15078583994E+02  0.78655448987E+02  0.47000000000E+01 0.  1.
         11    1    6    6    0    0  0.31192936685E+02 -0.27976652627E+02 -0.12410023813E+02  0.43700126799E+02  0.00000000000E+00 0. -1.
        -12    1    6    6    0    0  0.17694825226E+02 -0.65303907883E+01 -0.12254986795E+03  0.12399283438E+03  0.00000000000E+00 0.  1.
</event>
<event>
12    1  0.9017558E-003  0.2756622E+03  0.7818608E-02  0.1098098E+00
         21   -1    0    0  501  502  0.00000000000E+00  0.00000000000E+00  0.11306858790E+03  0.11306858790E+03  0.00000000000E+00 0.  1.
         21   -1    0    0  502  503 -0.00000000000E+00 -0.00000000000E+00 -0.67814104405E+03  0.67814104405E+03  0.00000000000E+00 0.  1.
          6    2    1    2  501    0  0.19711067673E+03 -0.85857024506E+02 -0.32076262660E+03  0.42286610792E+03  0.17234568479E+03 0.  0.
         24    2    3    3    0    0  0.22134801926E+03 -0.79340321341E+02 -0.30240118465E+03  0.39141537273E+03  0.80434354051E+02 0.  0.
         -6    2    1    2    0  503 -0.19711067673E+03  0.85857024506E+02 -0.24430982955E+03  0.36834352404E+03  0.17252713221E+03 0.  0.
        -24    2    5    5    0    0 -0.44901629699E+02 -0.65916613139E+01 -0.46308959488E+02  0.10199640456E+03  0.78734620508E+02 0.  0.
          5    1    3    3  501    0 -0.24237342534E+02 -0.65167031645E+01 -0.18361441951E+02  0.31450735186E+02  0.47000000000E+01 0. -1.
        -11    1    4    4    0    0  0.99647738938E+02  0.32246060553E+01 -0.99824202956E+02  0.14108487323E+03  0.00000000000E+00 0.  1.
         12    1    4    4    0    0  0.12170028033E+03 -0.82564927396E+02 -0.20257698169E+03  0.25033049950E+03  0.00000000000E+00 0. -1.
         -5    1    5    5    0  503 -0.15220904703E+03  0.92448685820E+02 -0.19800087006E+03  0.26634711947E+03  0.47000000000E+01 0.  1.
         11    1    6    6    0    0  0.18046797895E+02 -0.10951314026E+02 -0.30247059663E+02  0.36884994393E+02  0.00000000000E+00 0. -1.
        -12    1    6    6    0    0 -0.62948427594E+02  0.43596527126E+01 -0.16061899825E+02  0.65111410170E+02  0.00000000000E+00 0.  1.
</event>
<event>
12    1  0.9017558E-003  0.2080580E+03  0.7818608E-02  0.1143386E+00
         21   -1    0    0  503  502  0.00000000000E+00  0.00000000000E+00  0.18571644493E+04  0.18571644493E+04  0.00000000000E+00 0. -1.
         21   -1    0    0  501  503 -0.00000000000E+00 -0.00000000000E+00 -0.27228696986E+02  0.27228696986E+02  0.00000000000E+00 0. -1.
          6    2    1    2  501    0 -0.85132600756E+02  0.80989126191E+02  0.55316509846E+03  0.59099894313E+03  0.17170127070E+03 0.  0.
         24    2    3    3    0    0 -0.12231026774E+03  0.57967935443E+02  0.35701986957E+03  0.38998353338E+03  0.79397014423E+02 0.  0.
         -6    2    1    2    0  502  0.85132600756E+02 -0.80989126191E+02  0.12767706539E+04  0.12933942032E+04  0.17005429700E+03 0.  0.
        -24    2    5    5    0    0  0.21273261861E+02  0.90048495290E+01  0.79469267161E+03  0.79882550034E+03  0.77795235766E+02 0.  0.
          5    1    3    3  501    0  0.37177666988E+02  0.23021190748E+02  0.19614522888E+03  0.20101540976E+03  0.47000000000E+01 0. -1.
        -13    1    4    4    0    0 -0.25001118453E+02  0.18291661312E+02  0.19102753945E+03  0.19352302609E+03  0.00000000000E+00 0.  1.
         14    1    4    4    0    0 -0.97309149291E+02  0.39676274130E+02  0.16599233012E+03  0.19646050729E+03  0.00000000000E+00 0. -1.
         -5    1    5    5    0  502  0.63859338894E+02 -0.89993975720E+02  0.48207798229E+03  0.49456870285E+03  0.47000000000E+01 0.  1.
         13    1    6    6    0    0  0.17452587157E+02 -0.17711910245E+02  0.69783961235E+03  0.69828248520E+03  0.00000000000E+00 0. -1.
        -14    1    6    6    0    0  0.38206747049E+01  0.26716759774E+02  0.96853059253E+02  0.10054301515E+03  0.00000000000E+00 0.  1.
</event>
<event>
12    1  0.9017558E-003  0.1928034E+03  0.7818608E-02  0.1156264E+00
         21   -1    0    0  501  502  0.00000000000E+00  0.00000000000E+00  0.16149120842E+03  0.16149120842E+03  0.00000000000E+00 0.  1.
         21   -1    0    0  502  503 -0.00000000000E+00 -0.00000000000E+00 -0.24388932296E+03  0.24388932296E+03  0.00000000000E+00 0. -1.
          6    2    1    2  501    0 -0.42939699380E+02  0.71339799324E+02  0.95117494223E+01  0.19303785809E+03  0.17389639597E+03 0.  0.
         24    2    3    3    0    0  0.38173529398E+02  0.51869586350E+02  0.30579210955E+02  0.10687305663E+03  0.79618400864E+02 0.  0.
         -6    2    1    2    0  503  0.42939699380E+02 -0.71339799324E+02 -0.91909863967E+02  0.21234267329E+03  0.17236241775E+03 0.  0.
        -24    2    5    5    0    0  0.79952540115E+02 -0.57030167296E+02 -0.16962331605E+02  0.12740776553E+03  0.79373606264E+02 0.  0.
          5    1    3    3  501    0 -0.81113228777E+02  0.19470212975E+02 -0.21067461533E+02  0.86164801464E+02  0.47000000000E+01 0. -1.
        -13    1    4    4    0    0  0.40767224396E+02 -0.86986494713E+01  0.14740582991E+02  0.44214453231E+02  0.00000000000E+00 0.  1.
         14    1    4    4    0    0 -0.25936949983E+01  0.60568235821E+02  0.15838627964E+02  0.62658603399E+02  0.00000000000E+00 0. -1.
         -5    1    5    5    0  503 -0.37012840736E+02 -0.14309632028E+02 -0.74947532362E+02  0.84934907754E+02  0.47000000000E+01 0.  1.
         13    1    6    6    0    0  0.52765009094E+02  0.20037628931E+01 -0.30557417649E+02  0.61007516125E+02  0.00000000000E+00 0. -1.
        -14    1    6    6    0    0  0.27187531022E+02 -0.59033930189E+02  0.13595086043E+02  0.66400249406E+02  0.00000000000E+00 0.  1.
</event>
<event>
12    1  0.9017558E-003  0.1938145E+03  0.7818608E-02  0.1155182E+00
         21   -1    0    0  503  502  0.00000000000E+00  0.00000000000E+00  0.11904842001E+04  0.11904842001E+04  0.00000000000E+00 0.  1.
         21   -1    0    0  501  503 -0.00000000000E+00 -0.00000000000E+00 -0.31587595271E+02  0.31587595271E+02  0.00000000000E+00 0.  1.
          6    2    1    2  501    0 -0.83305694240E+02 -0.35224550760E+02  0.54253085023E+03  0.57611090183E+03  0.17141598551E+03 0.  0.
         24    2    3    3    0    0 -0.71855168706E+02  0.39156217410E+02  0.37927984067E+03  0.39628711216E+03  0.80584757208E+02 0.  0.
         -6    2    1    2    0  502  0.83305694240E+02  0.35224550760E+02  0.61636575465E+03  0.64596089359E+03  0.17081605568E+03 0.  0.
        -24    2    5    5    0    0  0.22364911059E+02  0.77061799182E+02  0.44684351885E+03  0.46096356161E+03  0.79872176968E+02 0.  0.
          5    1    3    3  501    0 -0.11450525534E+02 -0.74380768170E+02  0.16325100955E+03  0.17982378966E+03  0.47000000000E+01 0. -1.
        -11    1    4    4    0    0 -0.15266314641E+02  0.49133549869E+02  0.24302165297E+03  0.24840831286E+03  0.00000000000E+00 0.  1.
         12    1    4    4    0    0 -0.56588854066E+02 -0.99773324593E+01  0.13625818770E+03  0.14787879930E+03  0.00000000000E+00 0. -1.
         -5    1    5    5    0  502  0.60940783181E+02 -0.41837248423E+02  0.16952223580E+03  0.18499733199E+03  0.47000000000E+01 0.  1.
         11    1    6    6    0    0  0.25965974704E+02 -0.33681951027E+01  0.19004143170E+03  0.19183670749E+03  0.00000000000E+00 0. -1.
        -12    1    6    6    0    0 -0.36010636450E+01  0.80429994285E+02  0.25680208715E+03  0.26912685411E+03  0.00000000000E+00 0.  1.
</event>
<event>
12    1  0.9017558E-003  0.1931437E+03  0.7818608E-02  0.1155709E+00
         21   -1    0    0  501  502  0.00000000000E+00  0.00000000000E+00  0.98337260122E+03  0.98337260122E+03  0.00000000000E+00 0. -1.
         21   -1    0    0  502  503 -0.00000000000E+00 -0.00000000000E+00 -0.41979869581E+02  0.41979869581E+02  0.00000000000E+00 0. -1.
          6    2    1    2  501    0  0.25393938169E+02 -0.83593310409E+02  0.31089990636E+03  0.36600988805E+03  0.17225502238E+03 0.  0.
         24    2    3    3    0    0  0.30026992732E+02 -0.58196816780E+02  0.68476552597E+02  0.12217055666E+03  0.77124035705E+02 0.  0.
         -6    2    1    2    0  503 -0.25393938169E+02  0.83593310409E+02  0.63049282527E+03  0.65934258274E+03  0.17198472333E+03 0.  0.
        -24    2    5    5    0    0 -0.46444878811E+02  0.54087944665E+02  0.21253617046E+03  0.23979096016E+03  0.85120199104E+02 0.  0.
          5    1    3    3  501    0 -0.46330545631E+01 -0.25396493629E+02  0.24242335377E+03  0.24383933139E+03  0.47000000000E+01 0. -1.
        -11    1    4    4    0    0 -0.32858396883E+00  0.18595928412E+02  0.12925283927E+02  0.22649050433E+02  0.00000000000E+00 0.  1.
         12    1    4    4    0    0  0.30355576701E+02 -0.76792745192E+02  0.55551268669E+02  0.99521506228E+02  0.00000000000E+00 0. -1.
         -5    1    5    5    0  503  0.21050940642E+02  0.29505365745E+02  0.41795665481E+03  0.41955162258E+03  0.47000000000E+01 0.  1.
         13    1    6    6    0    0 -0.48927576486E+02 -0.73023699452E+01  0.10040686880E+03  0.11193199565E+03  0.00000000000E+00 0. -1.
        -14    1    6    6    0    0  0.24826976749E+01  0.61390314610E+02  0.11212930166E+03  0.12785896451E+03  0.00000000000E+00 0.  1.
</event>
<event>
12    1  0.9017558E-003  0.2242822E+03  0.7818608E-02  0.1131089E+00
         21   -1    0    0  501  502  0.00000000000E+00  0.00000000000E+00  0.15639828687E+04  0.15639828687E+04  0.00000000000E+00 0.  1.
         21   -1    0    0  502  503 -0.00000000000E+00 -0.00000000000E+00 -0.32022926911E+02  0.32022926911E+02  0.00000000000E+00 0. -1.
          6    2    1    2  501    0 -0.10265047555E+03 -0.97382104780E+02  0.71635193332E+03  0.75064144399E+03  0.17401750088E+03 0.  0.
         24    2    3    3    0    0 -0.26942228416E+02 -0.10231369474E+03  0.32467946649E+03  0.35166090496E+03  0.83992025264E+02 0.  0.
         -6    2    1    2    0  503  0.10265047555E+03  0.97382104780E+02  0.81560800846E+03  0.84536435161E+03  0.17147614714E+03 0.  0.
        -24    2    5    5    0    0  0.80571205668E+02  0.73829896485E+02  0.79506675642E+03  0.80681264984E+03  0.82903148128E+02 0.  0.
          5    1    3    3  501    0 -0.75708247132E+02  0.49315899645E+01  0.39167246682E+03  0.39898053904E+03  0.47000000000E+01 0. -1.
        -13    1    4    4    0    0 -0.12007886304E+02 -0.81306751869E+02  0.31254874903E+03  0.32317440764E+03  0.00000000000E+00 0.  1.
         14    1    4    4    0    0 -0.14934342112E+02 -0.21006942876E+02  0.12130717467E+02  0.28486497320E+02  0.00000000000E+00 0. -1.
         -5    1    5    5    0  503  0.22079269880E+02  0.23552208295E+02  0.20541252040E+02  0.38551701770E+02  0.47000000000E+01 0.  1.
         13    1    6    6    0    0  0.62624617144E+02  0.56942299038E+02  0.31682765187E+03  0.32793906306E+03  0.00000000000E+00 0. -1.
        -14    1    6    6    0    0  0.17946588524E+02  0.16887597447E+02  0.47823910455E+03  0.47887358678E+03  0.00000000000E+00 0.  1.
</event>
<event>
12    1  0.9017558E-003  0.1918094E+03  0.7818608E-02  0.1156906E+00
         21   -1    0    0  501  502  0.00000000000E+00  0.00000000000E+00  0.73823324036E+03  0.73823324036E+03  0.00000000000E+00 0. -1.
         21   -1    0    0  502  503 -0.00000000000E+00 -0.00000000000E+00 -0.66406939868E+02  0.66406939868E+02  0.00000000000E+00 0. -1.
          6    2    1    2  501    0 -0.31464385132E+02  0.78443422119E+02  0.53754807245E+03  0.57074404276E+03  0.17218436092E+03 0.  0.
         24    2    3    3    0    0  0.41171655494E+02  0.38728124647E+02  0.17338227066E+03  0.19725760333E+03  0.75194264636E+02 0.  0.
         -6    2    1    2    0  503  0.31464385132E+02 -0.78443422119E+02  0.13427822804E+03  0.23389613747E+03  0.17185279338E+03 0.  0.
        -24    2    5    5    0    0  0.67113994107E+02 -0.52046067442E+02  0.30105435403E+02  0.12057457871E+03  0.80117479043E+02 0.  0.
          5    1    3    3  501    0 -0.72636040626E+02  0.39715297472E+02  0.36416580179E+03  0.37348643944E+03  0.47000000000E+01 0. -1.
        -13    1    4    4    0    0  0.97710659650E+01  0.56344136638E+02  0.11914394871E+03  0.13215678559E+03  0.00000000000E+00 0.  1.
         14    1    4    4    0    0  0.31400589529E+02 -0.17616011990E+02  0.54238321953E+02  0.65100817733E+02  0.00000000000E+00 0. -1.
         -5    1    5    5    0  503 -0.35649608974E+02 -0.26397354677E+02  0.10417279264E+03  0.11332155876E+03  0.47000000000E+01 0.  1.
         11    1    6    6    0    0  0.12697634602E+02 -0.57299866959E+02  0.11291270064E+01  0.58700763247E+02  0.00000000000E+00 0. -1.
        -12    1    6    6    0    0  0.54416359505E+02  0.52537995172E+01  0.28976308396E+02  0.61873815459E+02  0.00000000000E+00 0.  1.
</event>
<event>
12    1  0.9017558E-003  0.2000099E+03  0.7818608E-02  0.1151165E+00
         21   -1    0    0  503  502  0.00000000000E+00  0.00000000000E+00  0.16748304663E+03  0.16748304663E+03  0.00000000000E+00 0. -1.
         21   -1    0    0  501  503 -0.00000000000E+00 -0.00000000000E+00 -0.25133357845E+03  0.25133357845E+03  0.00000000000E+00 0. -1.
          6    2    1    2  501    0  0.17781835280E+02  0.76629445520E+02 -0.10221674645E+03  0.22461572234E+03  0.18389043988E+03 0.  0.
         24    2    3    3    0    0  0.81264766566E+02  0.51889834651E+02 -0.84490416149E+02  0.15405763494E+03  0.85431886541E+02 0.  0.
         -6    2    1    2    0  502 -0.17781835280E+02 -0.76629445520E+02  0.18366214627E+02  0.19420090274E+03  0.17660239862E+03 0.  0.
        -24    2    5    5    0    0 -0.26059628673E+02 -0.10348855777E+03 -0.30861649480E+02  0.13732027002E+03  0.80718209303E+02 0.  0.
          5    1    3    3  501    0 -0.63482931286E+02  0.24739610868E+02 -0.17726330302E+02  0.70558087393E+02  0.47000000000E+01 0. -1.
        -11    1    4    4    0    0  0.84665748691E+00 -0.92535811789E+01  0.11443985333E+02  0.14741451551E+02  0.00000000000E+00 0.  1.
         12    1    4    4    0    0  0.80418109080E+02  0.61143415830E+02 -0.95934401481E+02  0.13931618339E+03  0.00000000000E+00 0. -1.
         -5    1    5    5    0  502  0.82777933931E+01  0.26859112252E+02  0.49227864107E+02  0.56880632723E+02  0.47000000000E+01 0.  1.
         11    1    6    6    0    0 -0.31917304084E+02 -0.56866393340E+02 -0.54255484334E+02  0.84830174890E+02  0.00000000000E+00 0. -1.
        -12    1    6    6    0    0  0.58576754108E+01 -0.46622164431E+02  0.23393834854E+02  0.52490095129E+02  0.00000000000E+00 0.  1.
</event>
<event>
12    1  0.9017558E-003  0.1845687E+03  0.7818608E-02  0.1164207E+00
         21   -1    0    0  501  502  0.00000000000E+00  0.00000000000E+00  0.19388420343E+03  0.19388420343E+03  0.00000000000E+00 0. -1.
         21   -1    0    0  502  503 -0.00000000000E+00 -0.00000000000E+00 -0.30544342511E+03  0.30544342511E+03  0.00000000000E+00 0. -1.
          6    2    1    2  501    0 -0.36329296290E+02 -0.57258804251E+02  0.10854287239E+03  0.21411951214E+03  0.17166019311E+03 0.  0.
         24    2    3    3    0    0  0.47436474638E+02 -0.37308250894E+02  0.56643065485E+02  0.11346957963E+03  0.77619481587E+02 0.  0.
         -6    2    1    2    0  503  0.36329296290E+02  0.57258804251E+02 -0.22010209408E+03  0.28520811640E+03  0.16822707692E+03 0.  0.
        -24    2    5    5    0    0  0.87923081445E+02  0.31374840706E+02 -0.16441419101E+03  0.20486428787E+03  0.78882833094E+02 0.  0.
          5    1    3    3  501    0 -0.83765770929E+02 -0.19950553357E+02  0.51899806906E+02  0.10064993252E+03  0.47000000000E+01 0. -1.
        -11    1    4    4    0    0 -0.11419262448E+02 -0.22931547352E+02  0.44991090154E+02  0.51773097377E+02  0.00000000000E+00 0.  1.
         12    1    4    4    0    0  0.58855737086E+02 -0.14376703542E+02  0.11651975332E+02  0.61696482248E+02  0.00000000000E+00 0. -1.
         -5    1    5    5    0  503 -0.51593785155E+02  0.25883963545E+02 -0.55687903065E+02  0.80343828532E+02  0.47000000000E+01 0.  1.
         11    1    6    6    0    0  0.82094640077E+02 -0.50302213358E+01 -0.90666955976E+02  0.12241458231E+03  0.00000000000E+00 0. -1.
        -12    1    6    6    0    0  0.58284413685E+01  0.36405062042E+02 -0.73747235037E+02  0.82449705558E+02  0.00000000000E+00 0.  1.
</event>
<event>
12    1  0.9017558E-003  0.2217207E+03  0.7818608E-02  0.1133065E+00
         21   -1    0    0  503  502  0.00000000000E+00  0.00000000000E+00  0.14478597461E+03  0.14478597461E+03  0.00000000000E+00 0.  1.
         21   -1    0    0  501  503 -0.00000000000E+00 -0.00000000000E+00 -0.39930545280E+03  0.39930545280E+03  0.00000000000E+00 0.  1.
          6    2    1    2  501    0 -0.11542412673E+03  0.79344123263E+02 -0.23518217999E+03  0.32152905555E+03  0.16867737503E+03 0.  0.
         24    2    3    3    0    0 -0.12256800216E+03  0.10886754624E+03 -0.17012685635E+03  0.24957801250E+03  0.80442397383E+02 0.  0.
         -6    2    1    2    0  502  0.11542412673E+03 -0.79344123263E+02 -0.19337298189E+02  0.22256237186E+03  0.17187745443E+03 0.  0.
        -24    2    5    5    0    0  0.14396398422E+03 -0.77696907236E+02  0.94024537775E+01  0.18175428285E+03  0.78636982714E+02 0.  0.
          5    1    3    3  501    0  0.71438754327E+01 -0.29523422974E+02 -0.65055323648E+02  0.71951043045E+02  0.47000000000E+01 0. -1.
        -13    1    4    4    0    0 -0.38094529935E+01 -0.92795964740E+00 -0.44790200871E+02  0.44961485021E+02  0.00000000000E+00 0.  1.
         14    1    4    4    0    0 -0.11875854917E+03  0.10979550588E+03 -0.12533665548E+03  0.20461652748E+03  0.00000000000E+00 0. -1.
         -5    1    5    5    0  502 -0.28539857489E+02 -0.16472160270E+01 -0.28739751967E+02  0.40808089017E+02  0.47000000000E+01 0.  1.
         13    1    6    6    0    0  0.60254520450E+02 -0.32062834937E+02 -0.34859357738E+02  0.76640768790E+02  0.00000000000E+00 0. -1.
        -14    1    6    6    0    0  0.83709463766E+02 -0.45634072299E+02  0.44261811515E+02  0.10511351406E+03  0.00000000000E+00 0.  1.
</event>
<event>
12    1  0.9017558E-003  0.1726409E+03  0.7818608E-02  0.1175765E+00
         21   -1    0    0  501  502  0.00000000000E+00  0.00000000000E+00  0.10871405327E+03  0.10871405327E+03  0.00000000000E+00 0.  1.
         21   -1    0    0  502  503 -0.00000000000E+00 -0.00000000000E+00 -0.34462455401E+03  0.34462455401E+03  0.00000000000E+00 0.  1.
          6    2    1    2  501    0  0.71829564254E+01 -0.17868844685E+02 -0.11948145563E+02  0.17055948629E+03  0.16904700444E+03 0.  0.
         24    2    3    3    0    0  0.45274501953E+01 -0.10015937483E+02  0.58261688233E+02  0.99705900453E+02  0.80162494101E+02 0.  0.
         -6    2    1    2    0  503 -0.71829564254E+01  0.17868844685E+02 -0.22396235518E+03  0.28277912099E+03  0.17156341176E+03 0.  0.
        -24    2    5    5    0    0  0.11726043415E+02  0.58275646203E+02 -0.65639839723E+02  0.11822405791E+03  0.78324889243E+02 0.  0.
          5    1    3    3  501    0  0.26555062301E+01 -0.78529072018E+01 -0.70209833797E+02  0.70853585841E+02  0.47000000000E+01 0. -1.
        -13    1    4    4    0    0 -0.91640132937E+01 -0.39994604310E+02  0.51866749027E+02  0.66134009165E+02  0.00000000000E+00 0.  1.
         14    1    4    4    0    0  0.13691463489E+02  0.29978666827E+02  0.63949392060E+01  0.33571891288E+02  0.00000000000E+00 0. -1.
         -5    1    5    5    0  503 -0.18908999840E+02 -0.40406801518E+02 -0.15832251546E+03  0.16455506308E+03  0.47000000000E+01 0.  1.
         13    1    6    6    0    0  0.39295582596E+02  0.31874454328E+02 -0.61782898235E+02  0.79857686947E+02  0.00000000000E+00 0. -1.
        -14    1    6    6    0    0 -0.27569539181E+02  0.26401191875E+02 -0.38569414881E+01  0.38366370961E+02  0.00000000000E+00 0.  1.
</event>
<event>
12    1  0.9017558E-003  0.2264697E+03  0.7818608E-02  0.1129682E+00
         21   -1    0    0  501  502  0.00000000000E+00  0.00000000000E+00  0.30743084776E+03  0.30743084776E+03  0.00000000000E+00 0.  1.
         21   -1    0    0  502  503 -0.00000000000E+00 -0.00000000000E+00 -0.19391124277E+03  0.19391124277E+03  0.00000000000E+00 0.  1.
          6    2    1    2  501    0 -0.67587409199E+02  0.13226164383E+03  0.15378756222E+03  0.27132023508E+03  0.16704147796E+03 0.  0.
         24    2    3    3    0    0 -0.78589932995E+02  0.36599631342E+02  0.44859601106E+02  0.12585660775E+03  0.79445524232E+02 0.  0.
         -6    2    1    2    0  503  0.67587409199E+02 -0.13226164383E+03 -0.40267957226E+02  0.23002185545E+03  0.17096006930E+03 0.  0.
        -24    2    5    5    0    0  0.65632014867E+02 -0.78984519413E+02  0.37209375007E+02  0.13585656162E+03  0.80785840736E+02 0.  0.
          5    1    3    3  501    0  0.11002523796E+02  0.95662012489E+02  0.10892796111E+03  0.14546362733E+03  0.47000000000E+01 0. -1.
        -11    1    4    4    0    0 -0.57416670607E+02 -0.83235753515E+01 -0.13329612309E+01  0.58032170008E+02  0.00000000000E+00 0.  1.
         12    1    4    4    0    0 -0.21173262388E+02  0.44923206694E+02  0.46192562337E+02  0.67824437742E+02  0.00000000000E+00 0. -1.
         -5    1    5    5    0  503  0.19553943314E+01 -0.53277124419E+02 -0.77477332233E+02  0.94165293836E+02  0.47000000000E+01 0.  1.
         11    1    6    6    0    0  0.84091269254E+01  0.15941031823E+02  0.13478248126E+02  0.22505401213E+02  0.00000000000E+00 0. -1.
        -12    1    6    6    0    0  0.57222887942E+02 -0.94925551235E+02  0.23731126881E+02  0.11335116040E+03  0.00000000000E+00 0.  1.
</event>
<event>
12    1  0.9017558E-003  0.1986807E+03  0.7818608E-02  0.1150892E+00
         21   -1    0    0  503  502  0.00000000000E+00  0.00000000000E+00  0.37618990318E+03  0.37618990318E+03  0.00000000000E+00 0. -1.
         21   -1    0    0  501  503 -0.00000000000E+00 -0.00000000000E+00 -0.13925977851E+03  0.13925977851E+03  0.00000000000E+00 0. -1.
          6    2    1    2  501    0 -0.67533684683E+02 -0.75188796200E+02  0.24654932937E+03  0.31653621046E+03  0.17086382613E+03 0.  0.
         24    2    3    3    0    0  0.29571626951E+02 -0.28770946071E+02  0.11719897307E+03  0.14819826752E+03  0.80776721577E+02 0.  0.
         -6    2    1    2    0  502  0.67533684683E+02  0.75188796200E+02 -0.96192047011E+01  0.19891347123E+03  0.17105521418E+03 0.  0.
        -24    2    5    5    0    0  0.89128955162E+02  0.92950364867E+02 -0.40631241413E+02  0.15689364913E+03  0.79881026408E+02 0.  0.
          5    1    3    3  501    0 -0.97105311635E+02 -0.46417850129E+02  0.12935035630E+03  0.16833794294E+03  0.47000000000E+01 0. -1.
        -13    1    4    4    0    0  0.43540303035E+02  0.41945694694E+00  0.10490254562E+03  0.11358027122E+03  0.00000000000E+00 0.  1.
         14    1    4    4    0    0 -0.13968676084E+02 -0.29190403018E+02  0.12296427452E+02  0.34617996302E+02  0.00000000000E+00 0. -1.
         -5    1    5    5    0  502 -0.21595270479E+02 -0.17761568668E+02  0.31012036712E+02  0.42019822104E+02  0.47000000000E+01 0.  1.
         11    1    6    6    0    0  0.11061083491E+02  0.67372584454E+01 -0.38443162826E+02  0.40566180341E+02  0.00000000000E+00 0. -1.
        -12    1    6    6    0    0  0.78067871671E+02  0.86213106422E+02 -0.21880785870E+01  0.11632746879E+03  0.00000000000E+00 0.  1.
</event>
<event>
12    1  0.9017558E-003  0.1767309E+03  0.7818608E-02  0.1171146E+00
         21   -1    0    0  503  502  0.00000000000E+00  0.00000000000E+00  0.11454288146E+03  0.11454288146E+03  0.00000000000E+00 0. -1.
         21   -1    0    0  501  503 -0.00000000000E+00 -0.00000000000E+00 -0.29846700750E+03  0.29846700750E+03  0.00000000000E+00 0. -1.
          6    2    1    2  501    0 -0.34936265776E+02  0.12397876477E+02 -0.15354705132E+03  0.23368731400E+03  0.17221734450E+03 0.  0.
         24    2    3    3    0    0 -0.39430218485E+02  0.14017523479E+02 -0.11966944844E+02  0.91948697465E+02  0.80994580698E+02 0.  0.
         -6    2    1    2    0  502  0.34936265776E+02 -0.12397876477E+02 -0.30377074723E+02  0.17932257496E+03  0.17279921647E+03 0.  0.
        -24    2    5    5    0    0  0.37068392180E+02  0.38666529278E+02  0.31707136984E+02  0.98770363064E+02  0.76688173136E+02 0.  0.
          5    1    3    3  501    0  0.44939527091E+01 -0.16196470016E+01 -0.14158010648E+03  0.14173861654E+03  0.47000000000E+01 0. -1.
        -11    1    4    4    0    0 -0.64070841061E+02  0.10328176139E+02 -0.15661528764E+02  0.66760971981E+02  0.00000000000E+00 0.  1.
         12    1    4    4    0    0  0.24640622576E+02  0.36893473402E+01  0.36945839199E+01  0.25187725484E+02  0.00000000000E+00 0. -1.
         -5    1    5    5    0  502 -0.21321264037E+01 -0.51064405755E+02 -0.62084211707E+02  0.80552211896E+02  0.47000000000E+01 0.  1.
         11    1    6    6    0    0  0.42700888121E+02 -0.45486102275E+01  0.34522847281E+02  0.55098844686E+02  0.00000000000E+00 0. -1.
        -12    1    6    6    0    0 -0.56324959412E+01  0.43215139505E+02 -0.28157102970E+01  0.43671518378E+02  0.00000000000E+00 0.  1.
</event>
<event>
12    1  0.9017558E-003  0.2101240E+03  0.7818608E-02  0.1142752E+00
         21   -1    0    0  503  502  0.00000000000E+00  0.00000000000E+00  0.70148989357E+02  0.70148989357E+02  0.00000000000E+00 0.  1.
         21   -1    0    0  501  503 -0.00000000000E+00 -0.00000000000E+00 -0.83034634340E+03  0.83034634340E+03  0.00000000000E+00 0.  1.
          6    2    1    2  501    0  0.10188398767E+03  0.60948084745E+02 -0.61610219091E+03  0.65094855477E+03  0.17336982246E+03 0.  0.
         24    2    3    3    0    0  0.89463185113E+02 -0.24115159279E+00 -0.53576465759E+03  0.54909273393E+03  0.80345146010E+02 0.  0.
         -6    2    1    2    0  502 -0.10188398767E+03 -0.60948084745E+02 -0.14409516314E+03  0.24954677799E+03  0.16557524690E+03 0.  0.
        -24    2    5    5    0    0 -0.65458161922E+02  0.23894364830E+02 -0.10423113062E+03  0.14886751935E+03  0.80260189970E+02 0.  0.
          5    1    3    3  501    0  0.12420802562E+02  0.61189236338E+02 -0.80337533322E+02  0.10185582085E+03  0.47000000000E+01 0. -1.
        -11    1    4    4    0    0  0.67422490990E+02  0.91289210174E+01 -0.17851493979E+03  0.19104112965E+03  0.00000000000E+00 0.  1.
         12    1    4    4    0    0  0.22040694123E+02 -0.93700726102E+01 -0.35724971780E+03  0.35805160428E+03  0.00000000000E+00 0. -1.
         -5    1    5    5    0  502 -0.36425825753E+02 -0.84842449575E+02 -0.39864032520E+02  0.10067925864E+03  0.47000000000E+01 0.  1.
         11    1    6    6    0    0  0.15076619653E+02  0.17262168745E+02 -0.10790751455E+02  0.25332335994E+02  0.00000000000E+00 0. -1.
        -12    1    6    6    0    0 -0.80534781575E+02  0.66321960856E+01 -0.93440379164E+02  0.12353518336E+03  0.00000000000E+00 0.  1.
</event>
<event>
12    1  0.9017558E-003  0.2364646E+03  0.7818608E-02  0.1122530E+00
         21   -1    0    0  503  502  0.00000000000E+00  0.00000000000E+00  0.16115361636E+03  0.16115361636E+03  0.00000000000E+00 0.  1.
         21   -1    0    0  501  503 -0.00000000000E+00 -0.00000000000E+00 -0.35193524770E+03  0.35193524770E+03  0.00000000000E+00 0.  1.
          6    2    1    2  501    0 -0.15864101085E+03  0.13083200960E+01 -0.56183964835E+02  0.24100053718E+03  0.17249909853E+03 0.  0.
         24    2    3    3    0    0 -0.18586891552E+03  0.16137777905E+02 -0.40891614944E+02  0.20611189180E+03  0.77474551550E+02 0.  0.
         -6    2    1    2    0  502  0.15864101085E+03 -0.13083200960E+01 -0.13459766650E+03  0.27208832687E+03  0.17534777947E+03 0.  0.
        -24    2    5    5    0    0  0.14417738550E+03 -0.59203650638E+02 -0.90493049830E+02  0.19773529755E+03  0.81351491030E+02 0.  0.
          5    1    3    3  501    0  0.27227904665E+02 -0.14829457809E+02 -0.15292349891E+02  0.34888645381E+02  0.47000000000E+01 0. -1.
        -13    1    4    4    0    0 -0.90502678450E+02 -0.45621073319E+01  0.17638549450E+02  0.92318286685E+02  0.00000000000E+00 0.  1.
         14    1    4    4    0    0 -0.95366237069E+02  0.20699885236E+02 -0.58530164394E+02  0.11379360512E+03  0.00000000000E+00 0. -1.
         -5    1    5    5    0  502  0.14463625351E+02  0.57895330542E+02 -0.44104616671E+02  0.74353029317E+02  0.47000000000E+01 0.  1.
         13    1    6    6    0    0 -0.17045153346E+01 -0.98258407927E+01  0.97714640442E+01  0.13961877717E+02  0.00000000000E+00 0. -1.
        -14    1    6    6    0    0  0.14588190084E+03 -0.49377809845E+02 -0.10026451387E+03  0.18377341984E+03  0.00000000000E+00 0.  1.
</event>
<event>
12    1  0.9017558E-003  0.2083896E+03  0.7818608E-02  0.1143568E+00
         21   -1    0    0  503  502  0.00000000000E+00  0.00000000000E+00  0.56020584849E+03  0.56020584849E+03  0.00000000000E+00 0. -1.
         21   -1    0    0  501  503 -0.00000000000E+00 -0.00000000000E+00 -0.76282316091E+02  0.76282316091E+02  0.00000000000E+00 0. -1.
          6    2    1    2  501    0 -0.10832080772E+03  0.43586702650E+02  0.22923482980E+03  0.30740978746E+03  0.16828241798E+03 0.  0.
         24    2    3    3    0    0 -0.67423767481E+02 -0.14957069012E+02  0.55188765327E+02  0.11922354020E+03  0.79992339533E+02 0.  0.
         -6    2    1    2    0  502  0.10832080772E+03 -0.43586702650E+02  0.25468870260E+03  0.32907837712E+03  0.17260661929E+03 0.  0.
        -24    2    5    5    0    0  0.13293608566E+03 -0.23155384290E+02  0.24932656877E+03  0.29630349105E+03  0.86161744514E+02 0.  0.
          5    1    3    3  501    0 -0.40897040240E+02  0.58543771662E+02  0.17404606447E+03  0.18818624726E+03  0.47000000000E+01 0. -1.
        -11    1    4    4    0    0  0.70563404864E+01 -0.28852734802E+02  0.12190120748E+02  0.32107184406E+02  0.00000000000E+00 0.  1.
         12    1    4    4    0    0 -0.74480107968E+02  0.13895665791E+02  0.42998644579E+02  0.87116355791E+02  0.00000000000E+00 0. -1.
         -5    1    5    5    0  502 -0.24615277942E+02 -0.20431318360E+02  0.53621338289E+01  0.32774886076E+02  0.47000000000E+01 0.  1.
         13    1    6    6    0    0  0.30070457453E+01  0.21508460137E+02  0.23772031395E+02  0.32198845604E+02  0.00000000000E+00 0. -1.
        -14    1    6    6    0    0  0.12992903992E+03 -0.44663844427E+02  0.22555453738E+03  0.26410464544E+03  0.00000000000E+00 0.  1.
</event>
<event>
12    1  0.9017558E-003  0.2021675E+03  0.7818608E-02  0.1148228E+00
         21   -1    0    0  501  502  0.00000000000E+00  0.00000000000E+00  0.25782695037E+03  0.25782695037E+03  0.00000000000E+00 0.  1.
         21   -1    0    0  502  503 -0.00000000000E+00 -0.00000000000E+00 -0.16445339484E+03  0.16445339484E+03  0.00000000000E+00 0. -1.
          6    2    1    2  501    0  0.94502920730E+02  0.43661507693E+02  0.90640182625E+02  0.22155665708E+03  0.17330487676E+03 0.  0.
         24    2    3    3    0    0  0.50471610830E+02 -0.37714959170E+02  0.78248270517E+02  0.12808722306E+03  0.79459066362E+02 0.  0.
         -6    2    1    2    0  503 -0.94502920730E+02 -0.43661507693E+02  0.27333729093E+01  0.20072368813E+03  0.17159661526E+03 0.  0.
        -24    2    5    5    0    0 -0.13123928585E+03 -0.24523704382E+02  0.17127305736E+02  0.15662049846E+03  0.80071678570E+02 0.  0.
          5    1    3    3  501    0  0.44031309900E+02  0.81376466863E+02  0.12391912108E+02  0.93469434021E+02  0.47000000000E+01 0. -1.
        -11    1    4    4    0    0  0.55096947055E+02 -0.39360401858E+02  0.21379619089E+02  0.71007062477E+02  0.00000000000E+00 0.  1.
         12    1    4    4    0    0 -0.46253362256E+01  0.16454426880E+01  0.56868651428E+02  0.57080160582E+02  0.00000000000E+00 0. -1.
         -5    1    5    5    0  503  0.36736365116E+02 -0.19137803311E+02 -0.14393932827E+02  0.44103189677E+02  0.47000000000E+01 0.  1.
         13    1    6    6    0    0 -0.78865119655E+02 -0.50975289580E+02 -0.46861168669E+01  0.94022055589E+02  0.00000000000E+00 0. -1.
        -14    1    6    6    0    0 -0.52374166191E+02  0.26451585198E+02  0.21813422603E+02  0.62598442867E+02  0.00000000000E+00 0.  1.
</event>
<event>
12    1  0.9017558E-003  0.1948515E+03  0.7818608E-02  0.1154517E+00
         21   -1    0    0  501  502  0.00000000000E+00  0.00000000000E+00  0.41259711379E+03  0.41259711379E+03  0.00000000000E+00 0.  1.
         21   -1    0    0  502  503 -0.00000000000E+00 -0.00000000000E+00 -0.91832436654E+02  0.91832436654E+02  0.00000000000E+00 0. -1.
          6    2    1    2  501    0  0.20326670901E+02  0.88933109422E+02  0.17985539193E+03  0.26396640329E+03  0.17031743468E+03 0.  0.
         24    2    3    3    0    0  0.64390623349E+02  0.13929221117E+02  0.12133792400E+03  0.15902070676E+03  0.78895613331E+02 0.  0.
         -6    2    1    2    0  503 -0.20326670901E+02 -0.88933109422E+02  0.14090928520E+03  0.24046314715E+03  0.17217673182E+03 0.  0.
        -24    2    5    5    0    0  0.40620994828E+02 -0.40210005302E+02  0.12898693724E+03  0.16138855443E+03  0.78369163427E+02 0.  0.
          5    1    3    3  501    0 -0.44063952448E+02  0.75003888305E+02  0.58517467933E+02  0.10494569653E+03  0.47000000000E+01 0. -1.
        -11    1    4    4    0    0  0.16104913080E+01 -0.32502853479E+01  0.83810381388E+02  0.83888843511E+02  0.00000000000E+00 0.  1.
         12    1    4    4    0    0  0.62780132041E+02  0.17179506465E+02  0.37527542612E+02  0.75131863254E+02  0.00000000000E+00 0. -1.
         -5    1    5    5    0  503 -0.60947665729E+02 -0.48723104120E+02  0.11922347964E+02  0.79074592720E+02  0.47000000000E+01 0.  1.
         13    1    6    6    0    0  0.56966296688E+02 -0.35013255361E+02  0.58498611810E+02  0.88843539962E+02  0.00000000000E+00 0. -1.
        -14    1    6    6    0    0 -0.16345301859E+02 -0.51967499411E+01  0.70488325426E+02  0.72545014468E+02  0.00000000000E+00 0.  1.
</event>
<event>
12    1  0.9017558E-003  0.1880458E+03  0.7818608E-02  0.1160472E+00
         21   -1    0    0  503  502  0.00000000000E+00  0.00000000000E+00  0.24721434912E+02  0.24721434912E+02  0.00000000000E+00 0. -1.
         21   -1    0    0  501  503 -0.00000000000E+00 -0.00000000000E+00 -0.14284048871E+04  0.14284048871E+04  0.00000000000E+00 0. -1.
          6    2    1    2  501    0 -0.40609925704E+02 -0.61406522276E+02 -0.65344058788E+03  0.67967588803E+03  0.17191504830E+03 0.  0.
         24    2    3    3    0    0 -0.17477327552E+01 -0.93569942187E+02 -0.57923083647E+03  0.58982082236E+03  0.60181823867E+02 0.  0.
         -6    2    1    2    0  502  0.40609925704E+02  0.61406522276E+02 -0.75024286426E+03  0.77345043394E+03  0.17303552046E+03 0.  0.
        -24    2    5    5    0    0 -0.22890363325E+01  0.15778677213E+02 -0.65058202979E+03  0.65565148184E+03  0.79797755643E+02 0.  0.
          5    1    3    3  501    0 -0.38862192949E+02  0.32163419911E+02 -0.74209751411E+02  0.89855065665E+02  0.47000000000E+01 0. -1.
        -11    1    4    4    0    0  0.26109923136E+02 -0.62553407100E+02 -0.30518950569E+03  0.31262644035E+03  0.00000000000E+00 0.  1.
         12    1    4    4    0    0 -0.27857655891E+02 -0.31016535087E+02 -0.27404133079E+03  0.27719438201E+03  0.00000000000E+00 0. -1.
         -5    1    5    5    0  502  0.42898962036E+02  0.45627845062E+02 -0.99660834463E+02  0.11779895210E+03  0.47000000000E+01 0.  1.
         13    1    6    6    0    0 -0.27081869412E+02 -0.17986322203E+02 -0.15910774818E+03  0.16239523074E+03  0.00000000000E+00 0. -1.
        -14    1    6    6    0    0  0.24792833079E+02  0.33764999416E+02 -0.49147428161E+03  0.49325625110E+03  0.00000000000E+00 0.  1.
</event>
<event>
12    1  0.9017558E-003  0.2744620E+03  0.7818608E-02  0.1099080E+00
         21   -1    0    0  501  502  0.00000000000E+00  0.00000000000E+00  0.90993145826E+03  0.90993145826E+03  0.00000000000E+00 0.  1.
         21   -1    0    0  502  503 -0.00000000000E+00 -0.00000000000E+00 -0.10437651671E+03  0.10437651671E+03  0.00000000000E+00 0.  1.
          6    2    1    2  501    0 -0.14271326608E+03  0.15702451856E+03  0.16975757236E+03  0.32271815404E+03  0.17408503045E+03 0.  0.
         24    2    3    3    0    0 -0.15218054000E+03  0.17204979657E+03  0.12376582447E+03  0.27319321962E+03  0.80972258754E+02 0.  0.
         -6    2    1    2    0  503  0.14271326608E+03 -0.15702451856E+03  0.63579736919E+03  0.69158982093E+03  0.17039486495E+03 0.  0.
        -24    2    5    5    0    0  0.11143981733E+03 -0.40988722597E+02  0.28089956756E+03  0.31686742483E+03  0.86031910314E+02 0.  0.
          5    1    3    3  501    0  0.94672739136E+01 -0.15025278008E+02  0.45991747894E+02  0.49524934416E+02  0.47000000000E+01 0. -1.
        -11    1    4    4    0    0 -0.12970293960E+02  0.52490124778E+02  0.43264273132E+01  0.54241678605E+02  0.00000000000E+00 0.  1.
         12    1    4    4    0    0 -0.13921024604E+03  0.11955967179E+03  0.11943939716E+03  0.21895154102E+03  0.00000000000E+00 0. -1.
         -5    1    5    5    0  503  0.31273448749E+02 -0.11603579596E+03  0.35489780162E+03  0.37472239610E+03  0.47000000000E+01 0.  1.
         11    1    6    6    0    0 -0.12158229337E+02 -0.78633958854E+01  0.58674487443E+02  0.60434683851E+02  0.00000000000E+00 0. -1.
        -12    1    6    6    0    0  0.12359804667E+03 -0.33125326711E+02  0.22222508012E+03  0.25643274098E+03  0.00000000000E+00 0.  1.
</event>
<event>
12    1  0.9017558E-003  0.2532739E+03  0.7818608E-02  0.1111385E+00
         21   -1    0    0  501  502  0.00000000000E+00  0.00000000000E+00  0.12468312010E+03  0.12468312010E+03  0.00000000000E+00 0.  1.
         21   -1    0    0  502  503 -0.00000000000E+00 -0.00000000000E+00 -0.57388479708E+03  0.57388479708E+03  0.00000000000E+00 0.  1.
          6    2    1    2  501    0  0.17358552316E+03 -0.61629892817E+02 -0.11027914636E+03  0.27546491970E+03  0.17259563821E+03 0.  0.
         24    2    3    3    0    0  0.18597839332E+03 -0.17442655942E+02 -0.73650892066E+02  0.21655979135E+03  0.81126323094E+02 0.  0.
         -6    2    1    2    0  503 -0.17358552316E+03  0.61629892817E+02 -0.33892253062E+03  0.42310299747E+03  0.17383177835E+03 0.  0.
        -24    2    5    5    0    0 -0.13942516432E+03  0.14840416383E+02 -0.13256348690E+03  0.20871472786E+03  0.79555924743E+02 0.  0.
          5    1    3    3  501    0 -0.12392870167E+02 -0.44187236875E+02 -0.36628254293E+02  0.58905128352E+02  0.47000000000E+01 0. -1.
        -11    1    4    4    0    0  0.14105277435E+03 -0.46524591017E+02 -0.41864721422E+02  0.15431486519E+03  0.00000000000E+00 0.  1.
         12    1    4    4    0    0  0.44925618977E+02  0.29081935075E+02 -0.31786170644E+02  0.62244926157E+02  0.00000000000E+00 0. -1.
         -5    1    5    5    0  503 -0.34160358838E+02  0.46789476433E+02 -0.20635904372E+03  0.21438826961E+03  0.47000000000E+01 0.  1.
         11    1    6    6    0    0 -0.86178022701E+02 -0.25352969080E+02 -0.50841908865E+02  0.10321978655E+03  0.00000000000E+00 0. -1.
        -12    1    6    6    0    0 -0.53247141617E+02  0.40193385463E+02 -0.81721578034E+02  0.10549494131E+03  0.00000000000E+00 0.  1.
</event>
<event>
12    1  0.9017558E-003  0.3269419E+03  0.7818608E-02  0.1072522E+00
         21   -1    0    0  501  502  0.00000000000E+00  0.00000000000E+00  0.10833827908E+03  0.10833827908E+03  0.00000000000E+00 0.  1.
         21   -1    0    0  502  503 -0.00000000000E+00 -0.00000000000E+00 -0.11005617904E+04  0.11005617904E+04  0.00000000000E+00 0. -1.
          6    2    1    2  501    0 -0.92943433518E+02 -0.26207451470E+03 -0.30093369616E+03  0.44419580232E+03  0.17154383760E+03 0.  0.
         24    2    3    3    0    0 -0.12725832110E+02 -0.37383493773E+02 -0.81215801660E+02  0.11982107823E+03  0.78750313898E+02 0.  0.
         -6    2    1    2    0  503  0.92943433518E+02  0.26207451470E+03 -0.69128981518E+03  0.76470426718E+03  0.17195776975E+03 0.  0.
        -24    2    5    5    0    0 -0.71632899043E+01  0.17945066707E+03 -0.40079605008E+03  0.44649557177E+03  0.80417455909E+02 0.  0.
          5    1    3    3  501    0 -0.80217601408E+02 -0.22469102093E+03 -0.21971789451E+03  0.32437472409E+03  0.47000000000E+01 0. -1.
        -11    1    4    4    0    0  0.17803079320E+02 -0.91385597861E+01  0.78711138478E+01  0.21503891310E+02  0.00000000000E+00 0.  1.
         12    1    4    4    0    0 -0.30528911430E+02 -0.28244933987E+02 -0.89086915507E+02  0.98317186919E+02  0.00000000000E+00 0. -1.
         -5    1    5    5    0  503  0.10010672342E+03  0.82623847630E+02 -0.29049376510E+03  0.31820869541E+03  0.47000000000E+01 0.  1.
         13    1    6    6    0    0  0.24222947707E+02  0.15514031958E+03 -0.31556325752E+03  0.35247048025E+03  0.00000000000E+00 0. -1.
        -14    1    6    6    0    0 -0.31386237611E+02  0.24310347494E+02 -0.85232792564E+02  0.94025091518E+02  0.00000000000E+00 0.  1.
</event>
<event>
12    1  0.9017558E-003  0.2373160E+03  0.7818608E-02  0.1121726E+00
         21   -1    0    0  501  502  0.00000000000E+00  0.00000000000E+00  0.40071124946E+02  0.40071124946E+02  0.00000000000E+00 0.  1.
         21   -1    0    0  502  503 -0.00000000000E+00 -0.00000000000E+00 -0.15003838854E+04  0.15003838854E+04  0.00000000000E+00 0. -1.
          6    2    1    2  501    0 -0.32681613428E+02 -0.15894893971E+03 -0.53066364378E+03  0.58099350592E+03  0.17209502548E+03 0.  0.
         24    2    3    3    0    0  0.34652493843E+02 -0.30809715887E+02 -0.21954009870E+03  0.23781207724E+03  0.78782581971E+02 0.  0.
         -6    2    1    2    0  503  0.32681613428E+02  0.15894893971E+03 -0.92964911665E+03  0.95946150441E+03  0.17316479163E+03 0.  0.
        -24    2    5    5    0    0  0.71638655123E+02  0.61339443916E+02 -0.37510306991E+03  0.39502490680E+03  0.80297818445E+02 0.  0.
          5    1    3    3  501    0 -0.67334107270E+02 -0.12813922382E+03 -0.31112354508E+03  0.34318142868E+03  0.47000000000E+01 0. -1.
        -13    1    4    4    0    0 -0.22036345397E+02 -0.18974277754E+02 -0.11150401231E+03  0.11523353894E+03  0.00000000000E+00 0.  1.
         14    1    4    4    0    0  0.56688839240E+02 -0.11835438133E+02 -0.10803608638E+03  0.12257853830E+03  0.00000000000E+00 0. -1.
         -5    1    5    5    0  503 -0.38957041695E+02  0.97609495793E+02 -0.55454604674E+03  0.56443659761E+03  0.47000000000E+01 0.  1.
         11    1    6    6    0    0  0.61814336757E+02  0.78886746913E+02 -0.34111657087E+03  0.35553431056E+03  0.00000000000E+00 0. -1.
        -12    1    6    6    0    0  0.98243183658E+01 -0.17547302997E+02 -0.33986499043E+02  0.39490596236E+02  0.00000000000E+00 0.  1.
</event>
<event>
12    1  0.9017558E-003  0.1890945E+03  0.7818608E-02  0.1159548E+00
         21   -1    0    0  501  502  0.00000000000E+00  0.00000000000E+00  0.35949661467E+03  0.35949661467E+03  0.00000000000E+00 0.  1.
         21   -1    0    0  502  503 -0.00000000000E+00 -0.00000000000E+00 -0.10094903851E+03  0.10094903851E+03  0.00000000000E+00 0.  1.
          6    2    1    2  501    0 -0.68921971523E+02 -0.31573363339E+02  0.96447946442E+02  0.21227087268E+03  0.17323279592E+03 0.  0.
         24    2    3    3    0    0 -0.10958137895E+03 -0.35857559340E+02  0.46272651987E+02  0.14737717559E+03  0.79278183559E+02 0.  0.
         -6    2    1    2    0  503  0.68921971523E+02  0.31573363339E+02  0.16209962972E+03  0.24817478051E+03  0.17195149402E+03 0.  0.
        -24    2    5    5    0    0 -0.48314537089E+01  0.38304976962E+01  0.17135964652E+02  0.83111797023E+02  0.81092008622E+02 0.  0.
          5    1    3    3  501    0  0.40659407429E+02  0.42841960006E+01  0.50175294455E+02  0.64893697086E+02  0.47000000000E+01 0. -1.
        -13    1    4    4    0    0 -0.28810709503E+02 -0.19644704176E+02  0.54377296454E+02  0.64597691552E+02  0.00000000000E+00 0.  1.
         14    1    4    4    0    0 -0.80770669449E+02 -0.16212855164E+02 -0.81046444666E+01  0.82779484039E+02  0.00000000000E+00 0. -1.
         -5    1    5    5    0  503  0.73753425232E+02  0.27742865643E+02  0.14496366507E+03  0.16506298348E+03  0.47000000000E+01 0.  1.
         11    1    6    6    0    0 -0.39781286391E+02  0.17421582354E+02  0.13283900910E+02  0.45415022867E+02  0.00000000000E+00 0. -1.
        -12    1    6    6    0    0  0.34949832682E+02 -0.13591084658E+02  0.38520637425E+01  0.37696774156E+02  0.00000000000E+00 0.  1.
</event>
<event>
12    1  0.9017558E-003  0.2294351E+03  0.7818608E-02  0.1127332E+00
         21   -1    0    0  501  502  0.00000000000E+00  0.00000000000E+00  0.13152222742E+04  0.13152222742E+04  0.00000000000E+00 0. -1.
         21   -1    0    0  502  503 -0.00000000000E+00 -0.00000000000E+00 -0.62365374019E+02  0.62365374019E+02  0.00000000000E+00 0. -1.
          6    2    1    2  501    0 -0.14074629764E+03  0.42702830695E+01  0.10427875582E+04  0.10677295236E+04  0.18114272985E+03 0.  0.
         24    2    3    3    0    0 -0.15801287864E+02 -0.36128086726E+02  0.59655178508E+03  0.60255026902E+03  0.75085784708E+02 0.  0.
         -6    2    1    2    0  503  0.14074629764E+03 -0.42702830695E+01  0.21006934204E+03  0.30985812460E+03  0.17903958585E+03 0.  0.
        -24    2    5    5    0    0  0.22390596527E+02 -0.23299143657E+01  0.18808310281E+02  0.84880994017E+02  0.79650883836E+02 0.  0.
          5    1    3    3  501    0 -0.12494500978E+03  0.40398369795E+02  0.44623577309E+03  0.46517925463E+03  0.47000000000E+01 0. -1.
        -13    1    4    4    0    0 -0.11513334536E+02 -0.44360019649E+02  0.17516166110E+03  0.18105793475E+03  0.00000000000E+00 0.  1.
         14    1    4    4    0    0 -0.42879533280E+01  0.82319329228E+01  0.42139012398E+03  0.42149233427E+03  0.00000000000E+00 0. -1.
         -5    1    5    5    0  503  0.11835570111E+03 -0.19403687038E+01  0.19126103176E+03  0.22497713058E+03  0.47000000000E+01 0.  1.
         13    1    6    6    0    0  0.38703456991E+02  0.65246443320E+01 -0.18363333885E+02  0.43332904335E+02  0.00000000000E+00 0. -1.
        -14    1    6    6    0    0 -0.16312860464E+02 -0.88545586977E+01  0.37171644166E+02  0.41548089682E+02  0.00000000000E+00 0.  1.
</event>
<event>
12    1  0.9017558E-003  0.2287755E+03  0.7818608E-02  0.1127757E+00
         21   -1    0    0  503  502  0.00000000000E+00  0.00000000000E+00  0.37428552231E+03  0.37428552231E+03  0.00000000000E+00 0.  1.
         21   -1    0    0  501  503 -0.00000000000E+00 -0.00000000000E+00 -0.13896960377E+03  0.13896960377E+03  0.00000000000E+00 0. -1.
          6    2    1    2  501    0 -0.36130705141E+02 -0.14492422875E+03  0.11728043636E+03  0.25708546775E+03  0.17329101836E+03 0.  0.
         24    2    3    3    0    0 -0.11333834762E+02 -0.14784971712E+03  0.36943020766E+02  0.17282614419E+03  0.80722330671E+02 0.  0.
         -6    2    1    2    0  502  0.36130705141E+02  0.14492422875E+03  0.11803548218E+03  0.25616965833E+03  0.17141195660E+03 0.  0.
        -24    2    5    5    0    0  0.57468352748E+02  0.61466952792E+02  0.87983395327E+01  0.11697463166E+03  0.80776579657E+02 0.  0.
          5    1    3    3  501    0 -0.24796870379E+02  0.29254883716E+01  0.80337415594E+02  0.84259323563E+02  0.47000000000E+01 0. -1.
        -11    1    4    4    0    0 -0.18735603405E+02 -0.15040926544E+03  0.48254936043E+02  0.15906762342E+03  0.00000000000E+00 0.  1.
         12    1    4    4    0    0  0.74017686439E+01  0.25595483226E+01 -0.11311915277E+02  0.13758520775E+02  0.00000000000E+00 0. -1.
         -5    1    5    5    0  502 -0.21337647607E+02  0.83457275958E+02  0.10923714265E+03  0.13919502667E+03  0.47000000000E+01 0.  1.
         11    1    6    6    0    0  0.19398885540E+02 -0.34136732609E+01 -0.27197699354E+02  0.33581018082E+02  0.00000000000E+00 0. -1.
        -12    1    6    6    0    0  0.38069467208E+02  0.64880626053E+02  0.35996038887E+02  0.83393613581E+02  0.00000000000E+00 0.  1.
</event>
<event>
12    1  0.9017558E-003  0.1965027E+03  0.7818608E-02  0.1152956E+00
         21   -1    0    0  501  502  0.00000000000E+00  0.00000000000E+00  0.50517120940E+03  0.50517120940E+03  0.00000000000E+00 0.  1.
         21   -1    0    0  502  503 -0.00000000000E+00 -0.00000000000E+00 -0.76133121113E+02  0.76133121113E+02  0.00000000000E+00 0.  1.
          6    2    1    2  501    0 -0.89475148091E+02  0.26282856040E+02  0.20266522737E+03  0.28154112498E+03  0.17174288930E+03 0.  0.
         24    2    3    3    0    0  0.20648416222E+02  0.11673632577E+02  0.67638927606E+02  0.10662737351E+03  0.78941379921E+02 0.  0.
         -6    2    1    2    0  503  0.89475148091E+02 -0.26282856040E+02  0.22637286092E+03  0.29976320553E+03  0.17296449515E+03 0.  0.
        -24    2    5    5    0    0  0.59000503913E+02 -0.83436647649E+01  0.24114969974E+03  0.26115020918E+03  0.80595147910E+02 0.  0.
          5    1    3    3  501    0 -0.11012356431E+03  0.14609223464E+02  0.13502629976E+03  0.17491375147E+03  0.47000000000E+01 0. -1.
        -11    1    4    4    0    0  0.10538570852E+02  0.96299543487E+01  0.85131597181E+02  0.86320254488E+02  0.00000000000E+00 0.  1.
         12    1    4    4    0    0  0.10109845370E+02  0.20436782279E+01 -0.17492669574E+02  0.20307119021E+02  0.00000000000E+00 0. -1.
         -5    1    5    5    0  503  0.30474644178E+02 -0.17939191275E+02 -0.14776838823E+02  0.38612996348E+02  0.47000000000E+01 0.  1.
         11    1    6    6    0    0  0.31495344641E+01 -0.23507322943E+02  0.15843144736E+03  0.16019687048E+03  0.00000000000E+00 0. -1.
        -12    1    6    6    0    0  0.55850969449E+02  0.15163658178E+02  0.82718252378E+02  0.10095333870E+03  0.00000000000E+00 0.  1.
</event>
<event>
12    1  0.9017558E-003  0.2810024E+03  0.7818608E-02  0.1095777E+00
         21   -1    0    0  503  502  0.00000000000E+00  0.00000000000E+00  0.31072476703E+03  0.31072476703E+03  0.00000000000E+00 0. -1.
         21   -1    0    0  501  503 -0.00000000000E+00 -0.00000000000E+00 -0.25020322389E+03  0.25020322389E+03  0.00000000000E+00 0.  1.
          6    2    1    2  501    0 -0.11986700665E+03 -0.18282741024E+03  0.39314092710E+02  0.28373924364E+03  0.17654574272E+03 0.  0.
         24    2    3    3    0    0 -0.51552767898E+01 -0.12940793607E+03  0.23002791441E+02  0.15606555904E+03  0.83990115540E+02 0.  0.
         -6    2    1    2    0  502  0.11986700665E+03  0.18282741024E+03  0.21207450425E+02  0.27718874728E+03  0.16908543535E+03 0.  0.
        -24    2    5    5    0    0  0.11159804587E+03  0.14939891274E+03 -0.39904696668E+02  0.20688494454E+03  0.80217432599E+02 0.  0.
          5    1    3    3  501    0 -0.11471172986E+03 -0.53419474172E+02  0.16311301269E+02  0.12767368459E+03  0.47000000000E+01 0. -1.
        -11    1    4    4    0    0 -0.20250829863E+02 -0.44281989831E+02 -0.27519798416E+02  0.55931476276E+02  0.00000000000E+00 0.  1.
         12    1    4    4    0    0  0.15095553073E+02 -0.85125946240E+02  0.50522589857E+02  0.10013408277E+03  0.00000000000E+00 0. -1.
         -5    1    5    5    0  502  0.82689607856E+01  0.33428497502E+02  0.61112147092E+02  0.70303802742E+02  0.47000000000E+01 0.  1.
         11    1    6    6    0    0  0.12088786442E+03  0.11446558363E+03 -0.37528937939E+02  0.17065950540E+03  0.00000000000E+00 0. -1.
        -12    1    6    6    0    0 -0.92898185557E+01  0.34933329112E+02 -0.23757587288E+01  0.36225439144E+02  0.00000000000E+00 0.  1.
</event>
<event>
12    1  0.9017558E-003  0.2034117E+03  0.7818608E-02  0.1147164E+00
         21   -1    0    0  501  502  0.00000000000E+00  0.00000000000E+00  0.87368850875E+03  0.87368850875E+03  0.00000000000E+00 0.  1.
         21   -1    0    0  502  503 -0.00000000000E+00 -0.00000000000E+00 -0.47072227184E+02  0.47072227184E+02  0.00000000000E+00 0.  1.
          6    2    1    2  501    0  0.15058442276E+02  0.10680058403E+03  0.42126197381E+03  0.46723186470E+03  0.17091180000E+03 0.  0.
         24    2    3    3    0    0 -0.16038705183E+02  0.10791447374E+03  0.18535842290E+03  0.22923848525E+03  0.79308035370E+02 0.  0.
         -6    2    1    2    0  503 -0.15058442276E+02 -0.10680058403E+03  0.40535430776E+03  0.45352887124E+03  0.17246217206E+03 0.  0.
        -24    2    5    5    0    0 -0.51473708993E+02 -0.23962869163E+02  0.29410177083E+03  0.31004585612E+03  0.80055102726E+02 0.  0.
          5    1    3    3  501    0  0.31097147459E+02 -0.11138897021E+01  0.23590355091E+03  0.23799337945E+03  0.47000000000E+01 0. -1.
        -11    1    4    4    0    0  0.25898963940E+02  0.49123307950E+02  0.11831478149E+03  0.13069905598E+03  0.00000000000E+00 0.  1.
         12    1    4    4    0    0 -0.41937669123E+02  0.58791165786E+02  0.67043641410E+02  0.98539429263E+02  0.00000000000E+00 0. -1.
         -5    1    5    5    0  503  0.36415266718E+02 -0.82837714870E+02  0.11125253693E+03  0.14348301512E+03  0.47000000000E+01 0.  1.
         11    1    6    6    0    0 -0.32268050239E+02  0.27547898372E+02  0.10950789829E+03  0.11743974438E+03  0.00000000000E+00 0. -1.
        -12    1    6    6    0    0 -0.19205658754E+02 -0.51510767535E+02  0.18459387254E+03  0.19260611174E+03  0.00000000000E+00 0.  1.
</event>
<event>
12    1  0.9017558E-003  0.2544815E+03  0.7818608E-02  0.1110736E+00
         21   -1    0    0  501  502  0.00000000000E+00  0.00000000000E+00  0.82115951250E+02  0.82115951250E+02  0.00000000000E+00 0. -1.
         21   -1    0    0  502  503 -0.00000000000E+00 -0.00000000000E+00 -0.86673269838E+03  0.86673269838E+03  0.00000000000E+00 0. -1.
          6    2    1    2  501    0  0.17093287470E+03  0.76243128528E+02 -0.24681171598E+03  0.35450935043E+03  0.17242329918E+03 0.  0.
         24    2    3    3    0    0  0.99589802349E+02  0.74604674620E+00 -0.55391468833E+02  0.13667123543E+03  0.75446182528E+02 0.  0.
         -6    2    1    2    0  503 -0.17093287470E+03 -0.76243128528E+02 -0.53780503115E+03  0.59433929920E+03  0.17021718108E+03 0.  0.
        -24    2    5    5    0    0 -0.26588286021E+02 -0.20495604642E+02 -0.28406987600E+03  0.29710746096E+03  0.80312776978E+02 0.  0.
          5    1    3    3  501    0  0.71343072350E+02  0.75497081782E+02 -0.19142024714E+03  0.21783811500E+03  0.47000000000E+01 0. -1.
        -13    1    4    4    0    0  0.12512584851E+00  0.11728384625E+02  0.11402436794E+02  0.16358063065E+02  0.00000000000E+00 0.  1.
         14    1    4    4    0    0  0.99464676500E+02 -0.10982337879E+02 -0.66793905628E+02  0.12031317237E+03  0.00000000000E+00 0. -1.
         -5    1    5    5    0  503 -0.14434458868E+03 -0.55747523886E+02 -0.25373515515E+03  0.29723183824E+03  0.47000000000E+01 0.  1.
         11    1    6    6    0    0 -0.39722125891E+02  0.55941812825E+01 -0.67070757587E+02  0.78151319073E+02  0.00000000000E+00 0. -1.
        -12    1    6    6    0    0  0.13133839870E+02 -0.26089785925E+02 -0.21699911841E+03  0.21895614189E+03  0.00000000000E+00 0.  1.
</event>
<event>
12    1  0.9017558E-003  0.2135211E+03  0.7818608E-02  0.1138856E+00
         21   -1    0    0  501  502  0.00000000000E+00  0.00000000000E+00  0.38825004695E+02  0.38825004695E+02  0.00000000000E+00 0. -1.
         21   -1    0    0  502  503 -0.00000000000E+00 -0.00000000000E+00 -0.16210658495E+04  0.16210658495E+04  0.00000000000E+00 0. -1.
          6    2    1    2  501    0 -0.11151035135E+03 -0.58888146389E+02 -0.35441305538E+03  0.41363552130E+03  0.17199813491E+03 0.  0.
         24    2    3    3    0    0 -0.41516290352E+02 -0.28407409672E+02 -0.60691068532E+02  0.11011791152E+03  0.76889305820E+02 0.  0.
         -6    2    1    2    0  503  0.11151035135E+03  0.58888146389E+02 -0.12278277894E+04  0.12462553329E+04  0.17230467797E+03 0.  0.
        -24    2    5    5    0    0  0.98944415626E+02  0.26274675408E+01 -0.10857400684E+04  0.10928468025E+04  0.75403824111E+02 0.  0.
          5    1    3    3  501    0 -0.69994060995E+02 -0.30480736718E+02 -0.29372198685E+03  0.30351760977E+03  0.47000000000E+01 0. -1.
        -11    1    4    4    0    0  0.29589590090E+01 -0.24849001775E+02  0.96492359774E+01  0.26820441506E+02  0.00000000000E+00 0.  1.
         12    1    4    4    0    0 -0.44475249360E+02 -0.35584078964E+01 -0.70340304509E+02  0.83297470015E+02  0.00000000000E+00 0. -1.
         -5    1    5    5    0  503  0.12565935720E+02  0.56260678848E+02 -0.14208772101E+03  0.15340853036E+03  0.47000000000E+01 0.  1.
         11    1    6    6    0    0  0.67079116515E+02 -0.14131508930E+02 -0.37625923421E+03  0.38245302815E+03  0.00000000000E+00 0. -1.
        -12    1    6    6    0    0  0.31865299111E+02  0.16758976471E+02 -0.70948083419E+03  0.71039377437E+03  0.00000000000E+00 0.  1.
</event>
<event>
12    1  0.9017558E-003  0.1979680E+03  0.7818608E-02  0.1152067E+00
         21   -1    0    0  503  502  0.00000000000E+00  0.00000000000E+00  0.38912288188E+03  0.38912288188E+03  0.00000000000E+00 0. -1.
         21   -1    0    0  501  503 -0.00000000000E+00 -0.00000000000E+00 -0.10824949133E+03  0.10824949133E+03  0.00000000000E+00 0. -1.
          6    2    1    2  501    0 -0.54107907475E+02 -0.71711887296E+02  0.68014171045E+02  0.20668292186E+03  0.17326754542E+03 0.  0.
         24    2    3    3    0    0 -0.78919094970E+01  0.25333523469E+02  0.54025442303E+02  0.98186356239E+02  0.77574109654E+02 0.  0.
         -6    2    1    2    0  502  0.54107907475E+02  0.71711887296E+02  0.21285921950E+03  0.29068945135E+03  0.17641159080E+03 0.  0.
        -24    2    5    5    0    0  0.20268704523E+02 -0.28513880004E+02  0.60779850205E+02  0.10537749638E+03  0.78653447587E+02 0.  0.
          5    1    3    3  501    0 -0.46215997978E+02 -0.97045410765E+02  0.13988728742E+02  0.10849656562E+03  0.47000000000E+01 0. -1.
        -11    1    4    4    0    0  0.25502074379E+02  0.15871589688E+02  0.55865700981E+02  0.63429013101E+02  0.00000000000E+00 0.  1.
         12    1    4    4    0    0 -0.33393983876E+02  0.94619337810E+01 -0.18402586782E+01  0.34757343138E+02  0.00000000000E+00 0. -1.
         -5    1    5    5    0  502  0.33839202952E+02  0.10022576730E+03  0.15207936930E+03  0.18531195497E+03  0.47000000000E+01 0.  1.
         13    1    6    6    0    0  0.81723950202E+01 -0.17405314734E+02  0.78732229482E+02  0.81046264445E+02  0.00000000000E+00 0. -1.
        -14    1    6    6    0    0  0.12096309503E+02 -0.11108565269E+02 -0.17952379277E+02  0.24331231938E+02  0.00000000000E+00 0.  1.
</event>
<event>
12    1  0.9017558E-003  0.3638321E+03  0.7818608E-02  0.1057128E+00
         21   -1    0    0  503  502  0.00000000000E+00  0.00000000000E+00  0.72312956482E+03  0.72312956482E+03  0.00000000000E+00 0.  1.
         21   -1    0    0  501  503 -0.00000000000E+00 -0.00000000000E+00 -0.18362782845E+03  0.18362782845E+03  0.00000000000E+00 0. -1.
          6    2    1    2  501    0  0.16603082073E+03 -0.27406715114E+03  0.30016315528E+03  0.47126141311E+03  0.17120269546E+03 0.  0.
         24    2    3    3    0    0  0.12645565240E+03 -0.16275492434E+03  0.10657590233E+03  0.24442508381E+03  0.76844005763E+02 0.  0.
         -6    2    1    2    0  502 -0.16603082073E+03  0.27406715114E+03  0.23933858109E+03  0.43549598015E+03  0.17232166308E+03 0.  0.
        -24    2    5    5    0    0 -0.74833724139E+02  0.20933789562E+03  0.98992944861E+02  0.25598059208E+03  0.79397856248E+02 0.  0.
          5    1    3    3  501    0  0.39575168336E+02 -0.11131222680E+03  0.19358725295E+03  0.22683632929E+03  0.47000000000E+01 0. -1.
        -13    1    4    4    0    0  0.94331523060E+02 -0.82964976433E+02  0.95285001987E+02  0.15767325443E+03  0.00000000000E+00 0.  1.
         14    1    4    4    0    0  0.32124129335E+02 -0.79789947902E+02  0.11290900346E+02  0.86751829389E+02  0.00000000000E+00 0. -1.
         -5    1    5    5    0  502 -0.91197096591E+02  0.64729255516E+02  0.14034563623E+03  0.17951538807E+03  0.47000000000E+01 0.  1.
         13    1    6    6    0    0 -0.87452991884E+01 -0.22228008181E+01 -0.58888612209E+01  0.10774961153E+02  0.00000000000E+00 0. -1.
        -14    1    6    6    0    0 -0.66088424951E+02  0.21156069644E+03  0.10488180608E+03  0.24520563093E+03  0.00000000000E+00 0.  1.
</event>
<event>
12    1  0.9017558E-003  0.1941272E+03  0.7818608E-02  0.1155569E+00
         21   -1    0    0  501  502  0.00000000000E+00  0.00000000000E+00  0.21217593871E+03  0.21217593871E+03  0.00000000000E+00 0.  1.
         21   -1    0    0  502  503 -0.00000000000E+00 -0.00000000000E+00 -0.17454131654E+03  0.17454131654E+03  0.00000000000E+00 0.  1.
          6    2    1    2  501    0  0.53419468948E+02 -0.65526917785E+02  0.13375670327E+02  0.19108014775E+03  0.17083705011E+03 0.  0.
         24    2    3    3    0    0  0.23910663906E+02  0.30188527401E+02  0.21758600024E+02  0.90459178103E+02  0.78907282256E+02 0.  0.
         -6    2    1    2    0  503 -0.53419468948E+02  0.65526917785E+02  0.24258951850E+02  0.19563710750E+03  0.17475115012E+03 0.  0.
        -24    2    5    5    0    0  0.31351134374E+02  0.51938984635E+02  0.41516060655E+02  0.10794112744E+03  0.79038926796E+02 0.  0.
          5    1    3    3  501    0  0.29508805041E+02 -0.95715445186E+02 -0.83829296974E+01  0.10062096965E+03  0.47000000000E+01 0. -1.
        -13    1    4    4    0    0 -0.41300827065E+01  0.15883817748E+02 -0.27486073342E+02  0.32013082906E+02  0.00000000000E+00 0.  1.
         14    1    4    4    0    0  0.28040746613E+02  0.14304709653E+02  0.49244673366E+02  0.58446095197E+02  0.00000000000E+00 0. -1.
         -5    1    5    5    0  503 -0.84770603322E+02  0.13587933150E+02 -0.17257108805E+02  0.87695980062E+02  0.47000000000E+01 0.  1.
         13    1    6    6    0    0  0.16947144546E+02  0.14286276315E+02 -0.22950986630E+02  0.31906914400E+02  0.00000000000E+00 0. -1.
        -14    1    6    6    0    0  0.14403989828E+02  0.37652708320E+02  0.64467047285E+02  0.76034213039E+02  0.00000000000E+00 0.  1.
</event>
<event>
12    1  0.9017558E-003  0.1857040E+03  0.7818608E-02  0.1164094E+00
         21   -1    0    0  503  502  0.00000000000E+00  0.00000000000E+00  0.37850918807E+03  0.37850918807E+03  0.00000000000E+00 0. -1.
         21   -1    0    0  501  503 -0.00000000000E+00 -0.00000000000E+00 -0.93421111676E+02  0.93421111676E+02  0.00000000000E+00 0. -1.
          6    2    1    2  501    0  0.50387427394E+01  0.66272332909E+02  0.86429446260E+02  0.20483168882E+03  0.17340288501E+03 0.  0.
         24    2    3    3    0    0 -0.56730348147E+02  0.68682945376E+02  0.35689028295E+02  0.12471981919E+03  0.79659570493E+02 0.  0.
         -6    2    1    2    0  502 -0.50387427394E+01 -0.66272332909E+02  0.19865863013E+03  0.26709861092E+03  0.16570759063E+03 0.  0.
        -24    2    5    5    0    0 -0.51362521912E+02 -0.21501808049E+00  0.85203867170E+02  0.12780204026E+03  0.80221615687E+02 0.  0.
          5    1    3    3  501    0  0.61769090887E+02 -0.24106124674E+01  0.50740417965E+02  0.80111869637E+02  0.47000000000E+01 0. -1.
        -11    1    4    4    0    0 -0.56196960426E+02  0.61941793765E+01  0.11404687827E+02  0.57676105310E+02  0.00000000000E+00 0.  1.
         12    1    4    4    0    0 -0.53338772116E+00  0.62488766000E+02  0.24284340468E+02  0.67043713878E+02  0.00000000000E+00 0. -1.
         -5    1    5    5    0  502  0.46323779172E+02 -0.66057314828E+02  0.11345476296E+03  0.13929657066E+03  0.47000000000E+01 0.  1.
         11    1    6    6    0    0 -0.57746458140E+01  0.28035152428E+02  0.64040037580E+02  0.70145867442E+02  0.00000000000E+00 0. -1.
        -12    1    6    6    0    0 -0.45587876098E+02 -0.28250170508E+02  0.21163829589E+02  0.57656172816E+02  0.00000000000E+00 0.  1.
</event>
<event>
12    1  0.9017558E-003  0.2167569E+03  0.7818608E-02  0.1136988E+00
         21   -1    0    0  501  502  0.00000000000E+00  0.00000000000E+00  0.13731988997E+03  0.13731988997E+03  0.00000000000E+00 0.  1.
         21   -1    0    0  502  503 -0.00000000000E+00 -0.00000000000E+00 -0.34324637924E+03  0.34324637924E+03  0.00000000000E+00 0. -1.
          6    2    1    2  501    0 -0.10195316399E+02  0.12511774988E+03 -0.13695127605E+03  0.25639658515E+03  0.17670642619E+03 0.  0.
         24    2    3    3    0    0 -0.26718976713E+02  0.76092956238E+02 -0.15164921141E+03  0.20240972522E+03  0.10708955055E+03 0.  0.
         -6    2    1    2    0  503  0.10195316399E+02 -0.12511774988E+03 -0.68975213228E+02  0.22416968406E+03  0.17244150138E+03 0.  0.
        -24    2    5    5    0    0  0.52232560431E+02 -0.66645352424E+02 -0.75434724105E+02  0.15171303198E+03  0.10077997371E+03 0.  0.
          5    1    3    3  501    0  0.16523660314E+02  0.49024793640E+02  0.14697935360E+02  0.53986859933E+02  0.47000000000E+01 0. -1.
        -11    1    4    4    0    0 -0.66459408550E+02  0.33308181603E+02 -0.70646830253E+02  0.10255370579E+03  0.00000000000E+00 0.  1.
         12    1    4    4    0    0  0.39740431837E+02  0.42784774635E+02 -0.81002381156E+02  0.99856019429E+02  0.00000000000E+00 0. -1.
         -5    1    5    5    0  503 -0.42037244032E+02 -0.58472397453E+02  0.64595108771E+01  0.72456652079E+02  0.47000000000E+01 0.  1.
         13    1    6    6    0    0  0.45713323709E+02 -0.91246636027E+02 -0.74297945835E+02  0.12623724215E+03  0.00000000000E+00 0. -1.
        -14    1    6    6    0    0  0.65192367225E+01  0.24601283603E+02 -0.11367782708E+01  0.25475789825E+02  0.00000000000E+00 0.  1.
</event>
<event>
12    1  0.9017558E-003  0.3071530E+03  0.7818608E-02  0.1081970E+00
         21   -1    0    0  501  502  0.00000000000E+00  0.00000000000E+00  0.77172636945E+02  0.77172636945E+02  0.00000000000E+00 0. -1.
         21   -1    0    0  502  503 -0.00000000000E+00 -0.00000000000E+00 -0.12201200926E+04  0.12201200926E+04  0.00000000000E+00 0. -1.
          6    2    1    2  501    0  0.19156095741E+03 -0.16181453991E+03 -0.61443764327E+03  0.68601082092E+03  0.17377480608E+03 0.  0.
         24    2    3    3    0    0  0.96325229218E+02 -0.16014093609E+02 -0.32071714699E+03  0.34451201565E+03  0.79334983325E+02 0.  0.
         -6    2    1    2    0  503 -0.19156095741E+03  0.16181453991E+03 -0.52850981241E+03  0.61128190864E+03  0.17737926682E+03 0.  0.
        -24    2    5    5    0    0 -0.11509731111E+03  0.15557708927E+03 -0.47075615443E+03  0.51514050234E+03  0.79415102381E+02 0.  0.
          5    1    3    3  501    0  0.95235728190E+02 -0.14580044630E+03 -0.29372049628E+03  0.34149880527E+03  0.47000000000E+01 0. -1.
        -11    1    4    4    0    0  0.10236210425E+03 -0.70036739986E+00 -0.30512819770E+03  0.32184112219E+03  0.00000000000E+00 0.  1.
         12    1    4    4    0    0 -0.60368750290E+01 -0.15313726209E+02 -0.15588949286E+02  0.22670893462E+02  0.00000000000E+00 0. -1.
         -5    1    5    5    0  503 -0.76463646302E+02  0.62374506351E+01 -0.57753657971E+02  0.96141406300E+02  0.47000000000E+01 0.  1.
         11    1    6    6    0    0 -0.78448350782E+02  0.41586385957E+02 -0.18047222946E+03  0.20113129256E+03  0.00000000000E+00 0. -1.
        -12    1    6    6    0    0 -0.36648960324E+02  0.11399070332E+03 -0.29028392497E+03  0.31400920979E+03  0.00000000000E+00 0.  1.
</event>
<event>
12    1  0.9017558E-003  0.1877139E+03  0.7818608E-02  0.1161228E+00
         21   -1    0    0  503  502  0.00000000000E+00  0.00000000000E+00  0.88721900997E+02  0.88721900997E+02  0.00000000000E+00 0.  1.
         21   -1    0    0  501  503 -0.00000000000E+00 -0.00000000000E+00 -0.44128899429E+03  0.44128899429E+03  0.00000000000E+00 0.  1.
          6    2    1    2  501    0  0.71592806871E+02  0.28801904970E+02 -0.26709616838E+03  0.32646115433E+03  0.17111821176E+03 0.  0.
         24    2    3    3    0    0  0.90796063282E+02  0.53405236886E+02 -0.26382089252E+03  0.29472936537E+03  0.78535922035E+02 0.  0.
         -6    2    1    2    0  502 -0.71592806871E+02 -0.28801904970E+02 -0.85470924907E+02  0.20354974096E+03  0.16784557877E+03 0.  0.
        -24    2    5    5    0    0 -0.87573138949E+02 -0.42858882588E+02 -0.17305856762E+02  0.13198483232E+03  0.87261473754E+02 0.  0.
          5    1    3    3  501    0 -0.19203256411E+02 -0.24603331916E+02 -0.32752758625E+01  0.31731788952E+02  0.47000000000E+01 0. -1.
        -11    1    4    4    0    0 -0.71277945739E+01  0.24661790993E+02 -0.85490556164E+02  0.89261663572E+02  0.00000000000E+00 0.  1.
         12    1    4    4    0    0  0.97923857856E+02  0.28743445892E+02 -0.17833033636E+03  0.20546770180E+03  0.00000000000E+00 0. -1.
         -5    1    5    5    0  502  0.15980332078E+02  0.14056977618E+02 -0.68165068145E+02  0.71564908637E+02  0.47000000000E+01 0.  1.
         13    1    6    6    0    0 -0.16964330739E+02 -0.39282940302E+02 -0.39140463219E+02  0.57990635254E+02  0.00000000000E+00 0. -1.
        -14    1    6    6    0    0 -0.70608808210E+02 -0.35759422861E+01  0.21834606457E+02  0.73994197064E+02  0.00000000000E+00 0.  1.
</event>
<event>
12    1  0.9017558E-003  0.2549819E+03  0.7818608E-02  0.1110233E+00
         21   -1    0    0  503  502  0.00000000000E+00  0.00000000000E+00  0.65190734412E+03  0.65190734412E+03  0.00000000000E+00 0.  1.
         21   -1    0    0  501  503 -0.00000000000E+00 -0.00000000000E+00 -0.12115318167E+03  0.12115318167E+03  0.00000000000E+00 0.  1.
          6    2    1    2  501    0 -0.16009755647E+03  0.99124245542E+02  0.10259596184E+03  0.27484853815E+03  0.17192714705E+03 0.  0.
         24    2    3    3    0    0 -0.13474579721E+03  0.15630562440E+02  0.99592524372E+02  0.18741274769E+03  0.82487106500E+02 0.  0.
         -6    2    1    2    0  502  0.16009755647E+03 -0.99124245542E+02  0.42815820061E+03  0.49821198765E+03  0.17157766826E+03 0.  0.
        -24    2    5    5    0    0  0.48334672822E+02  0.88044583441E+01  0.21201816351E+03  0.23198247591E+03  0.80314434492E+02 0.  0.
          5    1    3    3  501    0 -0.25351759258E+02  0.83493683103E+02  0.30034374637E+01  0.87435790453E+02  0.47000000000E+01 0. -1.
        -11    1    4    4    0    0 -0.31127604270E+02 -0.51765218692E+01 -0.11959882475E+02  0.33745561413E+02  0.00000000000E+00 0.  1.
         12    1    4    4    0    0 -0.10361819294E+03  0.20807084309E+02  0.11155240685E+03  0.15366718628E+03  0.00000000000E+00 0. -1.
         -5    1    5    5    0  502  0.11176288365E+03 -0.10792870389E+03  0.21614003710E+03  0.26622951174E+03  0.47000000000E+01 0.  1.
         13    1    6    6    0    0 -0.15570440454E+02 -0.75374459198E+01  0.11198301415E+02  0.20607126474E+02  0.00000000000E+00 0. -1.
        -14    1    6    6    0    0  0.63905113276E+02  0.16341904264E+02  0.20081986209E+03  0.21137534943E+03  0.00000000000E+00 0.  1.
</event>
<event>
12    1  0.9017558E-003  0.2117656E+03  0.7818608E-02  0.1141114E+00
         21   -1    0    0  501  502  0.00000000000E+00  0.00000000000E+00  0.69261172826E+03  0.69261172826E+03  0.00000000000E+00 0.  1.
         21   -1    0    0  502  503 -0.00000000000E+00 -0.00000000000E+00 -0.67001859381E+02  0.67001859381E+02  0.00000000000E+00 0. -1.
          6    2    1    2  501    0 -0.81772456457E+02  0.84577961696E+02  0.22696933670E+03  0.31041868652E+03  0.17608098960E+03 0.  0.
         24    2    3    3    0    0 -0.82798023693E+02  0.17950926398E+02  0.58437457551E+02  0.12913079969E+03  0.77987681711E+02 0.  0.
         -6    2    1    2    0  503  0.81772456457E+02 -0.84577961696E+02  0.39864053217E+03  0.44919490111E+03  0.17035732757E+03 0.  0.
        -24    2    5    5    0    0  0.11077843585E+03 -0.89168685643E+02  0.38106731556E+03  0.41465029908E+03  0.80620439065E+02 0.  0.
          5    1    3    3  501    0  0.10255672356E+01  0.66627035298E+02  0.16853187915E+03  0.18128788683E+03  0.47000000000E+01 0. -1.
        -13    1    4    4    0    0 -0.57724244436E+01  0.14597212353E+02  0.49004666336E+02  0.51457330043E+02  0.00000000000E+00 0.  1.
         14    1    4    4    0    0 -0.77025599249E+02  0.33537140447E+01  0.94327912155E+01  0.77673469652E+02  0.00000000000E+00 0. -1.
         -5    1    5    5    0  503 -0.29005979397E+02  0.45907239476E+01  0.17573216617E+02  0.34544602030E+02  0.47000000000E+01 0.  1.
         13    1    6    6    0    0  0.61165448607E+01  0.12462521280E+02  0.14284418925E+02  0.19919115988E+02  0.00000000000E+00 0. -1.
        -14    1    6    6    0    0  0.10466189099E+03 -0.10163120692E+03  0.36678289663E+03  0.39473118309E+03  0.00000000000E+00 0.  1.
</event>
<event>
12    1  0.9017558E-003  0.1866198E+03  0.7818608E-02  0.1163184E+00
         21   -1    0    0  503  502  0.00000000000E+00  0.00000000000E+00  0.58014701091E+03  0.58014701091E+03  0.00000000000E+00 0.  1.
         21   -1    0    0  501  503 -0.00000000000E+00 -0.00000000000E+00 -0.57994312905E+02  0.57994312905E+02  0.00000000000E+00 0.  1.
          6    2    1    2  501    0 -0.27857374715E+02 -0.65392141305E+02  0.23838297197E+03  0.29850593751E+03  0.16500662997E+03 0.  0.
         24    2    3    3    0    0 -0.33193710417E+02 -0.30727226383E+02  0.24573735344E+03  0.26236303043E+03  0.80009549490E+02 0.  0.
         -6    2    1    2    0  502  0.27857374715E+02  0.65392141305E+02  0.28376972603E+03  0.33963538630E+03  0.17255368076E+03 0.  0.
        -24    2    5    5    0    0  0.33592123397E+02 -0.15855565464E+01  0.24936170395E+03  0.26397230854E+03  0.79807114575E+02 0.  0.
          5    1    3    3  501    0  0.53363357019E+01 -0.34664914922E+02 -0.73543814726E+01  0.36142907079E+02  0.47000000000E+01 0. -1.
        -13    1    4    4    0    0  0.18215646547E+02 -0.61528460461E+01  0.14159572740E+02  0.23878039990E+02  0.00000000000E+00 0.  1.
         14    1    4    4    0    0 -0.51409356964E+02 -0.24574380337E+02  0.23157778070E+03  0.23848499044E+03  0.00000000000E+00 0. -1.
         -5    1    5    5    0  502 -0.57347486825E+01  0.66977697852E+02  0.34408022085E+02  0.75663077758E+02  0.47000000000E+01 0.  1.
         13    1    6    6    0    0 -0.12604720933E+02 -0.19017718529E+02  0.23412512314E+02  0.32690951970E+02  0.00000000000E+00 0. -1.
        -14    1    6    6    0    0  0.46196844330E+02  0.17432161982E+02  0.22594919163E+03  0.23128135657E+03  0.00000000000E+00 0.  1.
</event>
<event>
12    1  0.9017558E-003  0.2042905E+03  0.7818608E-02  0.1147485E+00
         21   -1    0    0  503  502  0.00000000000E+00  0.00000000000E+00  0.23961445200E+03  0.23961445200E+03  0.00000000000E+00 0. -1.
         21   -1    0    0  501  503 -0.00000000000E+00 -0.00000000000E+00 -0.16938965143E+03  0.16938965143E+03  0.00000000000E+00 0.  1.
          6    2    1    2  501    0  0.72086193027E+01  0.10823751639E+03  0.46243198203E+02  0.20331077516E+03  0.16561857918E+03 0.  0.
         24    2    3    3    0    0 -0.11323764667E+02  0.13731972679E+03  0.22230428581E+02  0.16102688553E+03  0.80315197171E+02 0.  0.
         -6    2    1    2    0  502 -0.72086193027E+01 -0.10823751639E+03  0.23981602363E+02  0.20569332827E+03  0.17311066950E+03 0.  0.
        -24    2    5    5    0    0 -0.67192840084E+02 -0.94404525912E+02  0.26954721577E+02  0.14388404251E+03  0.80925696799E+02 0.  0.
          5    1    3    3  501    0  0.18532383970E+02 -0.29082210400E+02  0.24012769622E+02  0.42283889630E+02  0.47000000000E+01 0. -1.
        -11    1    4    4    0    0 -0.22384563669E+02  0.75444905034E+00  0.48507009001E+01  0.22916526422E+02  0.00000000000E+00 0.  1.
         12    1    4    4    0    0  0.11060799002E+02  0.13656527774E+03  0.17379727680E+02  0.13811035911E+03  0.00000000000E+00 0. -1.
         -5    1    5    5    0  502  0.59984220781E+02 -0.13832990476E+02 -0.29731192137E+01  0.61809285759E+02  0.47000000000E+01 0.  1.
         11    1    6    6    0    0 -0.33541260142E+01 -0.25811565558E+01  0.31668862474E+02  0.31950420669E+02  0.00000000000E+00 0. -1.
        -12    1    6    6    0    0 -0.63838714069E+02 -0.91823369356E+02 -0.47141408975E+01  0.11193362184E+03  0.00000000000E+00 0.  1.
</event>
<event>
12    1  0.9017558E-003  0.1798940E+03  0.7818608E-02  0.1167968E+00
         21   -1    0    0  503  502  0.00000000000E+00  0.00000000000E+00  0.12501601349E+03  0.12501601349E+03  0.00000000000E+00 0. -1.
         21   -1    0    0  501  503 -0.00000000000E+00 -0.00000000000E+00 -0.34567737772E+03  0.34567737772E+03  0.00000000000E+00 0. -1.
          6    2    1    2  501    0 -0.24164947551E+02  0.46354027303E+02  0.79226036251E+01  0.17981116616E+03  0.17186229165E+03 0.  0.
         24    2    3    3    0    0  0.37579885903E+01 -0.34647314656E+02  0.25714284673E+02  0.92178171940E+02  0.81369724437E+02 0.  0.
         -6    2    1    2    0  502  0.24164947551E+02 -0.46354027303E+02 -0.22858396786E+03  0.29088222505E+03  0.17213133925E+03 0.  0.
        -24    2    5    5    0    0  0.14137834624E+02  0.33252805216E+02 -0.67014458482E+02  0.11042561770E+03  0.79982823002E+02 0.  0.
          5    1    3    3  501    0 -0.27922936142E+02  0.81001341959E+02 -0.17791681048E+02  0.87632994223E+02  0.47000000000E+01 0. -1.
        -11    1    4    4    0    0 -0.16560053016E+02  0.16114767642E+02 -0.11724875942E+02  0.25911267972E+02  0.00000000000E+00 0.  1.
         12    1    4    4    0    0  0.20318041607E+02 -0.50762082298E+02  0.37439160615E+02  0.66266903968E+02  0.00000000000E+00 0. -1.
         -5    1    5    5    0  502  0.10027112928E+02 -0.79606832519E+02 -0.16156950938E+03  0.18045660735E+03  0.47000000000E+01 0.  1.
         13    1    6    6    0    0  0.71060903316E+01 -0.80228161996E+01 -0.67706607061E+02  0.68549593283E+02  0.00000000000E+00 0. -1.
        -14    1    6    6    0    0  0.70317442923E+01  0.41275621416E+02  0.69214857837E+00  0.41876024414E+02  0.00000000000E+00 0.  1.
</event>
<event>
12    1  0.9017558E-003  0.1728445E+03  0.7818608E-02  0.1175254E+00
         21   -1    0    0  501  502  0.00000000000E+00  0.00000000000E+00  0.83106402659E+03  0.83106402659E+03  0.00000000000E+00 0.  1.
         21   -1    0    0  502  503 -0.00000000000E+00 -0.00000000000E+00 -0.35994922015E+02  0.35994922015E+02  0.00000000000E+00 0.  1.
          6    2    1    2  501    0  0.22248694738E+02  0.20296763411E+02  0.35800786220E+03  0.39754855291E+03  0.17020064484E+03 0.  0.
         24    2    3    3    0    0  0.19660361935E+02  0.44952199866E+02  0.94042540138E+02  0.13237998150E+03  0.79203724925E+02 0.  0.
         -6    2    1    2    0  503 -0.22248694738E+02 -0.20296763411E+02  0.43706124237E+03  0.46951039569E+03  0.16885058204E+03 0.  0.
        -24    2    5    5    0    0  0.34518515019E+02  0.26740668748E+02  0.18980424572E+03  0.21145391249E+03  0.82343877550E+02 0.  0.
          5    1    3    3  501    0  0.25883328029E+01 -0.24655436456E+02  0.26396532206E+03  0.26516857141E+03  0.47000000000E+01 0. -1.
        -11    1    4    4    0    0  0.27640440920E+02  0.77635911418E+01  0.89598689141E+02  0.94086090457E+02  0.00000000000E+00 0.  1.
         12    1    4    4    0    0 -0.79800789852E+01  0.37188608725E+02  0.44438509970E+01  0.38293891042E+02  0.00000000000E+00 0. -1.
         -5    1    5    5    0  503 -0.56767209757E+02 -0.47037432159E+02  0.24725699665E+03  0.25805648320E+03  0.47000000000E+01 0.  1.
         13    1    6    6    0    0  0.15796828319E+02 -0.98348594240E+01  0.15903894086E+03  0.16012385505E+03  0.00000000000E+00 0. -1.
        -14    1    6    6    0    0  0.18721686701E+02  0.36575528172E+02  0.30765304856E+02  0.51330057441E+02  0.00000000000E+00 0.  1.
</event>
<event>
12    1  0.9017558E-003  0.2423032E+03  0.7818608E-02  0.1120564E+00
         21   -1    0    0  501  502  0.00000000000E+00  0.00000000000E+00  0.23723882855E+03  0.23723882855E+03  0.00000000000E+00 0.  1.
         21   -1    0    0  502  503 -0.00000000000E+00 -0.00000000000E+00 -0.38089594627E+03  0.38089594627E+03  0.00000000000E+00 0.  1.
          6    2    1    2  501    0 -0.27440159587E+02 -0.14799856837E+03  0.11889343364E+03  0.26990091406E+03  0.18987974154E+03 0.  0.
         24    2    3    3    0    0  0.19128028371E+02 -0.24265990906E+02  0.10624226287E+03  0.13700814158E+03  0.80802801043E+02 0.  0.
         -6    2    1    2    0  503  0.27440159587E+02  0.14799856837E+03 -0.26255055137E+03  0.34823386076E+03  0.17227156224E+03 0.  0.
        -24    2    5    5    0    0  0.21950393723E+02  0.17166610309E+03 -0.26147201801E+03  0.32346406134E+03  0.79437472540E+02 0.  0.
          5    1    3    3  501    0 -0.46568187958E+02 -0.12373257746E+03  0.12651170778E+02  0.13289277248E+03  0.47000000000E+01 0. -1.
        -11    1    4    4    0    0 -0.27905439665E+02 -0.26050991703E+02  0.59356902107E+02  0.70573433807E+02  0.00000000000E+00 0.  1.
         12    1    4    4    0    0  0.47033468036E+02  0.17850007962E+01  0.46885360759E+02  0.66434707773E+02  0.00000000000E+00 0. -1.
         -5    1    5    5    0  503  0.54897658634E+01 -0.23667534717E+02 -0.10785333546E+01  0.24769799415E+02  0.47000000000E+01 0.  1.
         11    1    6    6    0    0  0.26384327089E+02  0.62815567081E+02 -0.46571721923E+02  0.82527895081E+02  0.00000000000E+00 0. -1.
        -12    1    6    6    0    0 -0.44339333657E+01  0.10885053601E+03 -0.21490029609E+03  0.24093616626E+03  0.00000000000E+00 0.  1.
</event>
<event>
12    1  0.9017558E-003  0.1737267E+03  0.7818608E-02  0.1174058E+00
         21   -1    0    0  503  502  0.00000000000E+00  0.00000000000E+00  0.76581740644E+02  0.76581740644E+02  0.00000000000E+00 0.  1.
         21   -1    0    0  501  503 -0.00000000000E+00 -0.00000000000E+00 -0.39374865985E+03  0.39374865985E+03  0.00000000000E+00 0.  1.
          6    2    1    2  501    0 -0.17714944154E+02  0.17406732982E+02 -0.15681660581E+03  0.23403509972E+03  0.17194233465E+03 0.  0.
         24    2    3    3    0    0 -0.20990901734E+02 -0.49542817972E+02 -0.13031985799E+03  0.16180531421E+03  0.79388825092E+02 0.  0.
         -6    2    1    2    0  502  0.17714944154E+02 -0.17406732982E+02 -0.16035031340E+03  0.23629530077E+03  0.17177436526E+03 0.  0.
        -24    2    5    5    0    0 -0.31831335449E+02 -0.57691923648E+02 -0.12826263092E+03  0.16467519342E+03  0.79530024949E+02 0.  0.
          5    1    3    3  501    0  0.32759575801E+01  0.66949550954E+02 -0.26496747810E+02  0.72229785515E+02  0.47000000000E+01 0. -1.
        -13    1    4    4    0    0  0.48975765882E+01 -0.15695047372E+02 -0.11553671600E+03  0.11670070057E+03  0.00000000000E+00 0.  1.
         14    1    4    4    0    0 -0.25888478322E+02 -0.33847770600E+02 -0.14783141994E+02  0.45104613640E+02  0.00000000000E+00 0. -1.
         -5    1    5    5    0  502  0.49546279603E+02  0.40285190666E+02 -0.32087682484E+02  0.71620107349E+02  0.47000000000E+01 0.  1.
         13    1    6    6    0    0 -0.22054513293E+02 -0.69384864071E+02 -0.13033694558E+03  0.14929293453E+03  0.00000000000E+00 0. -1.
        -14    1    6    6    0    0 -0.97768221561E+01  0.11692940424E+02  0.20743146621E+01  0.15382258889E+02  0.00000000000E+00 0.  1.
</event>
<event>
12    1  0.9017558E-003  0.2404243E+03  0.7818608E-02  0.1119957E+00
         21   -1    0    0  503  502  0.00000000000E+00  0.00000000000E+00  0.18490607543E+03  0.18490607543E+03  0.00000000000E+00 0.  1.
         21   -1    0    0  501  503 -0.00000000000E+00 -0.00000000000E+00 -0.31331255025E+03  0.31331255025E+03  0.00000000000E+00 0.  1.
          6    2    1    2  501    0 -0.14154396562E+03 -0.89324542197E+02 -0.92564020397E+02  0.25513733171E+03  0.16885908953E+03 0.  0.
         24    2    3    3    0    0 -0.16793918327E+03 -0.92649257628E+02 -0.95155618558E+02  0.22799755226E+03  0.78363498354E+02 0.  0.
         -6    2    1    2    0  502  0.14154396562E+03  0.89324542197E+02 -0.35842454423E+02  0.24308129398E+03  0.17259856865E+03 0.  0.
        -24    2    5    5    0    0  0.10833795536E+03  0.43775679450E+02  0.41181436600E+02  0.14751923141E+03  0.80078650277E+02 0.  0.
          5    1    3    3  501    0  0.26395217655E+02  0.33247154306E+01  0.25915981610E+01  0.27139779453E+02  0.47000000000E+01 0. -1.
        -13    1    4    4    0    0 -0.86170819502E+02 -0.44082441003E+02 -0.49506449631E+01  0.96918422521E+02  0.00000000000E+00 0.  1.
         14    1    4    4    0    0 -0.81768363773E+02 -0.48566816624E+02 -0.90204973595E+02  0.13107912974E+03  0.00000000000E+00 0. -1.
         -5    1    5    5    0  502  0.33206010255E+02  0.45548862747E+02 -0.77023891024E+02  0.95562062572E+02  0.47000000000E+01 0.  1.
         11    1    6    6    0    0 -0.10237897569E+02  0.20164444496E+01  0.16319369690E+02  0.19370142538E+02  0.00000000000E+00 0. -1.
        -12    1    6    6    0    0  0.11857585293E+03  0.41759235000E+02  0.24862066910E+02  0.12814908887E+03  0.00000000000E+00 0.  1.
</event>
<event>
12    1  0.9017558E-003  0.2343238E+03  0.7818608E-02  0.1123678E+00
         21   -1    0    0  503  502  0.00000000000E+00  0.00000000000E+00  0.93067481051E+03  0.93067481051E+03  0.00000000000E+00 0.  1.
         21   -1    0    0  501  503 -0.00000000000E+00 -0.00000000000E+00 -0.65024295055E+02  0.65024295055E+02  0.00000000000E+00 0.  1.
          6    2    1    2  501    0  0.99077567855E+02  0.12400016382E+03  0.28065287102E+03  0.36561411571E+03  0.17238109673E+03 0.  0.
         24    2    3    3    0    0  0.26709491643E+02  0.12126597422E+02  0.18009983851E+03  0.19862359004E+03  0.78453345263E+02 0.  0.
         -6    2    1    2    0  502 -0.99077567855E+02 -0.12400016382E+03  0.58499764443E+03  0.63008498986E+03  0.17202454876E+03 0.  0.
        -24    2    5    5    0    0 -0.22459949469E+02 -0.12853661627E+03  0.32996501228E+03  0.36371199515E+03  0.79896151572E+02 0.  0.
          5    1    3    3  501    0  0.72368076212E+02  0.11187356640E+03  0.10055303252E+03  0.16699052566E+03  0.47000000000E+01 0. -1.
        -11    1    4    4    0    0  0.16569783124E+02 -0.10224192552E+01 -0.11252672285E+01  0.16639389419E+02  0.00000000000E+00 0.  1.
         12    1    4    4    0    0  0.10139708519E+02  0.13149016677E+02  0.18122510573E+03  0.18198420062E+03  0.00000000000E+00 0. -1.
         -5    1    5    5    0  502 -0.76617618385E+02  0.45364524516E+01  0.25503263215E+03  0.26637299471E+03  0.47000000000E+01 0.  1.
         11    1    6    6    0    0  0.70858960533E+01 -0.27020872067E+02  0.15494765095E+02  0.31944094845E+02  0.00000000000E+00 0. -1.
        -12    1    6    6    0    0 -0.29545845523E+02 -0.10151574420E+03  0.31447024719E+03  0.33176790031E+03  0.00000000000E+00 0.  1.
</event>
<event>
12    1  0.9017558E-003  0.2187125E+03  0.7818608E-02  0.1135127E+00
         21   -1    0    0  503  502  0.00000000000E+00  0.00000000000E+00  0.23200448412E+03  0.23200448412E+03  0.00000000000E+00 0.  1.
         21   -1    0    0  501  503 -0.00000000000E+00 -0.00000000000E+00 -0.20789077106E+03  0.20789077106E+03  0.00000000000E+00 0. -1.
          6    2    1    2  501    0 -0.17164130617E+02  0.13278374293E+03  0.38982988552E+02  0.22215947355E+03  0.17294226934E+03 0.  0.
         24    2    3    3    0    0 -0.36282664175E+02  0.10329433645E+03  0.88964431458E+02  0.16087833407E+03  0.77337032833E+02 0.  0.
         -6    2    1    2    0  502  0.17164130617E+02 -0.13278374293E+03 -0.14869275497E+02  0.21773578164E+03  0.17106035627E+03 0.  0.
        -24    2    5    5    0    0  0.44421765367E+02 -0.13656733792E+03  0.27625952346E+02  0.16689063799E+03  0.80407467199E+02 0.  0.
          5    1    3    3  501    0  0.19118533559E+02  0.29489406480E+02 -0.49981442906E+02  0.61281139472E+02  0.47000000000E+01 0. -1.
        -11    1    4    4    0    0 -0.29899808322E+02  0.11247433294E+03  0.62393610575E+02  0.13205088697E+03  0.00000000000E+00 0.  1.
         12    1    4    4    0    0 -0.63828558532E+01 -0.91799964890E+01  0.26570820883E+02  0.28827447109E+02  0.00000000000E+00 0. -1.
         -5    1    5    5    0  502 -0.27257634751E+02  0.37835949868E+01 -0.42495227843E+02  0.50845143649E+02  0.47000000000E+01 0.  1.
         13    1    6    6    0    0  0.48617735019E+01 -0.10338371009E+03 -0.85404568896E+01  0.10384973643E+03  0.00000000000E+00 0. -1.
        -14    1    6    6    0    0  0.39559991865E+02 -0.33183627831E+02  0.36166409235E+02  0.63040901559E+02  0.00000000000E+00 0.  1.
</event>
<event>
12    1  0.9017558E-003  0.1945304E+03  0.7818608E-02  0.1155297E+00
         21   -1    0    0  501  502  0.00000000000E+00  0.00000000000E+00  0.22565479266E+03  0.22565479266E+03  0.00000000000E+00 0. -1.
         21   -1    0    0  502  503 -0.00000000000E+00 -0.00000000000E+00 -0.18719467872E+03  0.18719467872E+03  0.00000000000E+00 0. -1.
          6    2    1    2  501    0  0.31786288895E+02  0.79048898599E+02  0.91146517260E+02  0.21131051832E+03  0.17054427874E+03 0.  0.
         24    2    3    3    0    0  0.40673998737E+02 -0.10104901521E+01 -0.14230282387E+01  0.88511056321E+02  0.78592536656E+02 0.  0.
         -6    2    1    2    0  503 -0.31786288895E+02 -0.79048898599E+02 -0.52686403316E+02  0.20153895306E+03  0.17487994732E+03 0.  0.
        -24    2    5    5    0    0 -0.64743777035E+02 -0.92752609749E+02  0.15098871903E+00  0.13760251806E+03  0.78355771315E+02 0.  0.
          5    1    3    3  501    0 -0.88877098420E+01  0.80059388751E+02  0.92569545499E+02  0.12279946200E+03  0.47000000000E+01 0. -1.
        -11    1    4    4    0    0 -0.76479200912E+01 -0.55364906338E+01 -0.30504126935E+02  0.31931883288E+02  0.00000000000E+00 0.  1.
         12    1    4    4    0    0  0.48321918829E+02  0.45260004818E+01  0.29081098697E+02  0.56579173032E+02  0.00000000000E+00 0. -1.
         -5    1    5    5    0  503  0.32957488140E+02  0.13703711150E+02 -0.52837392035E+02  0.63936435002E+02  0.47000000000E+01 0.  1.
         11    1    6    6    0    0 -0.32982114327E+02 -0.59184558726E+01 -0.24970774762E+02  0.41789802316E+02  0.00000000000E+00 0. -1.
        -12    1    6    6    0    0 -0.31761662708E+02 -0.86834153876E+02  0.25121763482E+02  0.95812715742E+02  0.00000000000E+00 0.  1.
</event>
<event>
12    1  0.9017558E-003  0.2423691E+03  0.7818608E-02  0.1118265E+00
         21   -1    0    0  501  502  0.00000000000E+00  0.00000000000E+00  0.62575964638E+02  0.62575964638E+02  0.00000000000E+00 0.  1.
         21   -1    0    0  502  503 -0.00000000000E+00 -0.00000000000E+00 -0.96633649160E+03  0.96633649160E+03  0.00000000000E+00 0.  1.
          6    2    1    2  501    0  0.33557499479E+02 -0.16896752093E+03 -0.54050297665E+03  0.59235653953E+03  0.17048951069E+03 0.  0.
         24    2    3    3    0    0  0.22414649299E+02 -0.39997554945E+02 -0.11407652253E+03  0.14668959437E+03  0.80013518849E+02 0.  0.
         -6    2    1    2    0  503 -0.33557499479E+02  0.16896752093E+03 -0.36325755031E+03  0.43655591670E+03  0.17014373822E+03 0.  0.
        -24    2    5    5    0    0 -0.31502665582E+02  0.14763007383E+03 -0.37470063620E+03  0.41180630649E+03  0.79980064138E+02 0.  0.
          5    1    3    3  501    0  0.11142850180E+02 -0.12896996598E+03 -0.42642645412E+03  0.44566694516E+03  0.47000000000E+01 0. -1.
        -11    1    4    4    0    0  0.20116624444E+02  0.10458881858E+02 -0.85923607803E+02  0.88864690212E+02  0.00000000000E+00 0.  1.
         12    1    4    4    0    0  0.22980248552E+01 -0.50456436802E+02 -0.28152914729E+02  0.57824904157E+02  0.00000000000E+00 0. -1.
         -5    1    5    5    0  503 -0.20548338973E+01  0.21337447094E+02  0.11443085893E+02  0.24749610211E+02  0.47000000000E+01 0.  1.
         11    1    6    6    0    0 -0.30579394775E+01  0.27474055227E+02 -0.17386552702E+03  0.17604941406E+03  0.00000000000E+00 0. -1.
        -12    1    6    6    0    0 -0.28444726104E+02  0.12015601861E+03 -0.20083510918E+03  0.23575689243E+03  0.00000000000E+00 0.  1.
</event>
<event>
12    1  0.9017558E-003  0.1871967E+03  0.7818608E-02  0.1161802E+00
         21   -1    0    0  503  502  0.00000000000E+00  0.00000000000E+00  0.74131561660E+02  0.74131561660E+02  0.00000000000E+00 0.  1.
         21   -1    0    0  501  503 -0.00000000000E+00 -0.00000000000E+00 -0.56147990824E+03  0.56147990824E+03  0.00000000000E+00 0. -1.
          6    2    1    2  501    0  0.40077053551E+02  0.59603675341E+02 -0.37412298364E+03  0.41683624603E+03  0.16919125504E+03 0.  0.
         24    2    3    3    0    0 -0.16036830036E+02  0.79724388211E+02 -0.17534138045E+03  0.20925535388E+03  0.80187564110E+02 0.  0.
         -6    2    1    2    0  502 -0.40077053551E+02 -0.59603675341E+02 -0.11322536294E+03  0.21877522387E+03  0.17286945199E+03 0.  0.
        -24    2    5    5    0    0 -0.82361253674E+02 -0.94197697307E+01 -0.99722643381E+02  0.15161279838E+03  0.78547608879E+02 0.  0.
          5    1    3    3  501    0  0.56113883587E+02 -0.20120712870E+02 -0.19878160319E+03  0.20758089215E+03  0.47000000000E+01 0. -1.
        -11    1    4    4    0    0  0.21115846610E+02  0.47639328827E+02 -0.41247701537E+02  0.66458690260E+02  0.00000000000E+00 0.  1.
         12    1    4    4    0    0 -0.37152676646E+02  0.32085059384E+02 -0.13409367891E+03  0.14279666362E+03  0.00000000000E+00 0. -1.
         -5    1    5    5    0  502  0.42284200123E+02 -0.50183905610E+02 -0.13502719560E+02  0.67162425491E+02  0.47000000000E+01 0.  1.
         11    1    6    6    0    0 -0.71141251550E+02 -0.39921677734E+02 -0.68080445157E+02  0.10625330601E+03  0.00000000000E+00 0. -1.
        -12    1    6    6    0    0 -0.11220002124E+02  0.30501908003E+02 -0.31642198224E+02  0.45359492369E+02  0.00000000000E+00 0.  1.
</event>
<event>
12    1  0.9017558E-003  0.1886492E+03  0.7818608E-02  0.1160352E+00
         21   -1    0    0  503  502  0.00000000000E+00  0.00000000000E+00  0.19746293679E+03  0.19746293679E+03  0.00000000000E+00 0. -1.
         21   -1    0    0  501  503 -0.00000000000E+00 -0.00000000000E+00 -0.18022653488E+03  0.18022653488E+03  0.00000000000E+00 0. -1.
          6    2    1    2  501    0 -0.60889188312E+02  0.30934457994E+02 -0.14828450232E+02  0.18633466475E+03  0.17273184538E+03 0.  0.
         24    2    3    3    0    0  0.39111465136E+01  0.73379042196E+02 -0.11633166003E+02  0.10866275243E+03  0.79199004505E+02 0.  0.
         -6    2    1    2    0  502  0.60889188312E+02 -0.30934457994E+02  0.32064852140E+02  0.19135480691E+03  0.17585241949E+03 0.  0.
        -24    2    5    5    0    0  0.10900693559E+03 -0.28395833351E+02  0.76179547047E+01  0.13711918198E+03  0.77812604854E+02 0.  0.
          5    1    3    3  501    0 -0.64800334826E+02 -0.42444584202E+02 -0.31952842289E+01  0.77671912317E+02  0.47000000000E+01 0. -1.
        -11    1    4    4    0    0  0.27490843829E+02 -0.11447221209E+01 -0.13121791189E+02  0.30483410032E+02  0.00000000000E+00 0.  1.
         12    1    4    4    0    0 -0.23579697316E+02  0.74523764317E+02  0.14886251860E+01  0.78179342402E+02  0.00000000000E+00 0. -1.
         -5    1    5    5    0  502 -0.48117747277E+02 -0.25386246430E+01  0.24446897435E+02  0.54235624937E+02  0.47000000000E+01 0.  1.
         13    1    6    6    0    0  0.54008334742E+02  0.87120431193E+00 -0.32481000676E+02  0.63029156932E+02  0.00000000000E+00 0. -1.
        -14    1    6    6    0    0  0.54998600847E+02 -0.29267037662E+02  0.40098955381E+02  0.74090025046E+02  0.00000000000E+00 0.  1.
</event>
<event>
12    1  0.9017558E-003  0.2001751E+03  0.7818608E-02  0.1154061E+00
         21   -1    0    0  501  502  0.00000000000E+00  0.00000000000E+00  0.82841333476E+02  0.82841333476E+02  0.00000000000E+00 0. -1.
         21   -1    0    0  502  503 -0.00000000000E+00 -0.00000000000E+00 -0.84773991591E+03  0.84773991591E+03  0.00000000000E+00 0. -1.
          6    2    1    2  501    0 -0.25268385118E+01  0.70830045255E+02 -0.48209050941E+02  0.18646167295E+03  0.16559155372E+03 0.  0.
         24    2    3    3    0    0  0.18045192395E+02 -0.20113682619E+02 -0.45460932203E+01  0.83396092024E+02  0.78765804790E+02 0.  0.
         -6    2    1    2    0  503  0.25268385118E+01 -0.70830045255E+02 -0.71668953150E+03  0.74411957644E+03  0.18720785041E+03 0.  0.
        -24    2    5    5    0    0  0.62428401613E+02 -0.87693258383E+02 -0.46079182165E+03  0.48072198130E+03  0.84717811068E+02 0.  0.
          5    1    3    3  501    0 -0.20572030906E+02  0.90943727874E+02 -0.43662957720E+02  0.10306558093E+03  0.47000000000E+01 0. -1.
        -13    1    4    4    0    0 -0.10402732586E+02 -0.70186268707E+01  0.32528247045E+02  0.34864951229E+02  0.00000000000E+00 0.  1.
         14    1    4    4    0    0  0.28447924981E+02 -0.13095055748E+02 -0.37074340265E+02  0.48531140795E+02  0.00000000000E+00 0. -1.
         -5    1    5    5    0  503 -0.59901563101E+02  0.16863213128E+02 -0.25589770985E+03  0.26339759514E+03  0.47000000000E+01 0.  1.
         11    1    6    6    0    0  0.29655413018E+02 -0.32081981867E+02 -0.34827197026E+03  0.35100151331E+03  0.00000000000E+00 0. -1.
        -12    1    6    6    0    0  0.32772988594E+02 -0.55611276516E+02 -0.11251985139E+03  0.12972046798E+03  0.00000000000E+00 0.  1.
</event>
<event>
12    1  0.9017558E-003  0.1890817E+03  0.7818608E-02  0.1159520E+00
         21   -1    0    0  503  502  0.00000000000E+00  0.00000000000E+00  0.21197674421E+03  0.21197674421E+03  0.00000000000E+00 0.  1.
         21   -1    0    0  501  503 -0.00000000000E+00 -0.00000000000E+00 -0.17231538032E+03  0.17231538032E+03  0.00000000000E+00 0. -1.
          6    2    1    2  501    0 -0.56144024135E+02 -0.48956245206E+02  0.51101364700E+02  0.19586536648E+03  0.17379018073E+03 0.  0.
         24    2    3    3    0    0 -0.16536315661E+02  0.21250585433E+02  0.73142309462E+02  0.11216552845E+03  0.80661460579E+02 0.  0.
         -6    2    1    2    0  502  0.56144024135E+02  0.48956245206E+02 -0.11440000814E+02  0.18842675806E+03  0.17269888287E+03 0.  0.
        -24    2    5    5    0    0 -0.43892814400E+01  0.18020716579E+02  0.44158541263E+02  0.10048032040E+03  0.88330662877E+02 0.  0.
          5    1    3    3  501    0 -0.39607708474E+02 -0.70206830639E+02 -0.22040944763E+02  0.83699838022E+02  0.47000000000E+01 0. -1.
        -13    1    4    4    0    0 -0.28710280368E+01 -0.17823119060E+02 -0.90079966255E+01  0.20175489541E+02  0.00000000000E+00 0.  1.
         14    1    4    4    0    0 -0.13665287624E+02  0.39073704493E+02  0.82150306088E+02  0.91990038911E+02  0.00000000000E+00 0. -1.
         -5    1    5    5    0  502  0.60533305575E+02  0.30935528628E+02 -0.55598542077E+02  0.87946437656E+02  0.47000000000E+01 0.  1.
         11    1    6    6    0    0 -0.41318287171E+02  0.27361776257E+02  0.12909539477E+02  0.51210583517E+02  0.00000000000E+00 0. -1.
        -12    1    6    6    0    0  0.36929005731E+02 -0.93410596786E+01  0.31249001785E+02  0.49269736885E+02  0.00000000000E+00 0.  1.
</event>
<event>
12    1  0.9017558E-003  0.2551966E+03  0.7818608E-02  0.1110394E+00
         21   -1    0    0  503  502  0.00000000000E+00  0.00000000000E+00  0.65707250847E+02  0.65707250847E+02  0.00000000000E+00 0. -1.
         21   -1    0    0  501  503 -0.00000000000E+00 -0.00000000000E+00 -0.10092210612E+04  0.10092210612E+04  0.00000000000E+00 0. -1.
          6    2    1    2  501    0 -0.17223172813E+03 -0.67547792548E+02 -0.56051934453E+03  0.61587922256E+03  0.17578056984E+03 0.  0.
         24    2    3    3    0    0 -0.12073960028E+02 -0.13921340274E+02 -0.21112321183E+03  0.22777349648E+03  0.83475570679E+02 0.  0.
         -6    2    1    2    0  502  0.17223172813E+03  0.67547792548E+02 -0.38299446586E+03  0.45904908953E+03  0.17266972307E+03 0.  0.
        -24    2    5    5    0    0  0.13939263441E+03  0.10340434461E+03 -0.34797130273E+03  0.39894243134E+03  0.89153076198E+02 0.  0.
          5    1    3    3  501    0 -0.16015776810E+03 -0.53626452275E+02 -0.34939613270E+03  0.38810572607E+03  0.47000000000E+01 0. -1.
        -11    1    4    4    0    0  0.51687570573E+01  0.93647377069E+01  0.34605618240E+01  0.11242324047E+02  0.00000000000E+00 0.  1.
         12    1    4    4    0    0 -0.17242717085E+02 -0.23286077980E+02 -0.21458377366E+03  0.21653117244E+03  0.00000000000E+00 0. -1.
         -5    1    5    5    0  502  0.32839093724E+02 -0.35856552060E+02 -0.35023163139E+02  0.60106658188E+02  0.47000000000E+01 0.  1.
         11    1    6    6    0    0  0.68268342992E+02  0.17100870241E+02 -0.69752009465E+02  0.99087583694E+02  0.00000000000E+00 0. -1.
        -12    1    6    6    0    0  0.71124291414E+02  0.86303474367E+02 -0.27821929326E+03  0.29985484765E+03  0.00000000000E+00 0.  1.
</event>
<event>
12    1  0.9017558E-003  0.2017110E+03  0.7818608E-02  0.1148344E+00
         21   -1    0    0  503  502  0.00000000000E+00  0.00000000000E+00  0.21387176854E+04  0.21387176854E+04  0.00000000000E+00 0.  1.
         21   -1    0    0  501  503 -0.00000000000E+00 -0.00000000000E+00 -0.20966859954E+02  0.20966859954E+02  0.00000000000E+00 0. -1.
          6    2    1    2  501    0 -0.10511369091E+03  0.84278835804E+01  0.13895827730E+04  0.14041465726E+04  0.17195172870E+03 0.  0.
         24    2    3    3    0    0  0.16479449638E+02  0.24006140972E+02  0.45153955310E+03  0.45811552322E+03  0.71651919283E+02 0.  0.
         -6    2    1    2    0  502  0.10511369091E+03 -0.84278835804E+01  0.72816805244E+03  0.75553797278E+03  0.17172361072E+03 0.  0.
        -24    2    5    5    0    0  0.59790065944E+02  0.15413985604E+02  0.67084476006E+03  0.67852683361E+03  0.80953868957E+02 0.  0.
          5    1    3    3  501    0 -0.12159314055E+03 -0.15578257391E+02  0.93804321991E+03  0.94603104936E+03  0.47000000000E+01 0. -1.
        -13    1    4    4    0    0 -0.12375676983E+02  0.48414077396E+01  0.35993671048E+03  0.36018194313E+03  0.00000000000E+00 0.  1.
         14    1    4    4    0    0  0.28855126621E+02  0.19164733232E+02  0.91602842621E+02  0.97933580086E+02  0.00000000000E+00 0. -1.
         -5    1    5    5    0  502  0.45323624966E+02 -0.23841869184E+02  0.57323292387E+02  0.77011139171E+02  0.47000000000E+01 0.  1.
         13    1    6    6    0    0 -0.10318651288E+02 -0.99088426855E+01  0.28678060379E+02  0.32048258531E+02  0.00000000000E+00 0. -1.
        -14    1    6    6    0    0  0.70108717232E+02  0.25322828289E+02  0.64216669968E+03  0.64647857508E+03  0.00000000000E+00 0.  1.
</event>
<event>
12    1  0.9017558E-003  0.2190798E+03  0.7818608E-02  0.1134588E+00
         21   -1    0    0  503  502  0.00000000000E+00  0.00000000000E+00  0.44877678723E+03  0.44877678723E+03  0.00000000000E+00 0.  1.
         21   -1    0    0  501  503 -0.00000000000E+00 -0.00000000000E+00 -0.10697453673E+03  0.10697453673E+03  0.00000000000E+00 0.  1.
          6    2    1    2  501    0  0.13155013421E+03  0.28815473695E+02  0.16379854949E+03  0.27354327052E+03  0.17280100317E+03 0.  0.
         24    2    3    3    0    0  0.10956302096E+03  0.20150717029E+01  0.37634743248E+02  0.14261928226E+03  0.83161106875E+02 0.  0.
         -6    2    1    2    0  502 -0.13155013421E+03 -0.28815473695E+02  0.17800370101E+03  0.28220805343E+03  0.17268554807E+03 0.  0.
        -24    2    5    5    0    0 -0.47461893210E+02 -0.71027442600E+02  0.53378711813E+02  0.12598334180E+03  0.75663641372E+02 0.  0.
          5    1    3    3  501    0  0.21987113250E+02  0.26800401992E+02  0.12616380624E+03  0.13092398826E+03  0.47000000000E+01 0. -1.
        -13    1    4    4    0    0  0.96896719146E+02  0.25958040091E+02  0.50866739818E+02  0.11247319346E+03  0.00000000000E+00 0.  1.
         14    1    4    4    0    0  0.12666301818E+02 -0.23942968388E+02 -0.13231996570E+02  0.30146088805E+02  0.00000000000E+00 0. -1.
         -5    1    5    5    0  502 -0.84088241004E+02  0.42211968905E+02  0.12462498920E+03  0.15622471164E+03  0.47000000000E+01 0.  1.
         13    1    6    6    0    0  0.86694370636E+01 -0.43411520274E+02  0.81749804140E+00  0.44276263783E+02  0.00000000000E+00 0. -1.
        -14    1    6    6    0    0 -0.56131330274E+02 -0.27615922326E+02  0.52561213771E+02  0.81707078012E+02  0.00000000000E+00 0.  1.
</event>
<event>
12    1  0.9017558E-003  0.2223220E+03  0.7818608E-02  0.1132466E+00
         21   -1    0    0  501  502  0.00000000000E+00  0.00000000000E+00  0.39743104641E+03  0.39743104641E+03  0.00000000000E+00 0. -1.
         21   -1    0    0  502  503 -0.00000000000E+00 -0.00000000000E+00 -0.25704996801E+03  0.25704996801E+03  0.00000000000E+00 0. -1.
          6    2    1    2  501    0 -0.12612064613E+03  0.64395005328E+02  0.30623050840E+03  0.37842330725E+03  0.17138827587E+03 0.  0.
         24    2    3    3    0    0 -0.92805590358E+02  0.11128023957E+03  0.24484839141E+03  0.29417384187E+03  0.74775297675E+02 0.  0.
         -6    2    1    2    0  503  0.12612064613E+03 -0.64395005328E+02 -0.16584943000E+03  0.27605770718E+03  0.16925923954E+03 0.  0.
        -24    2    5    5    0    0  0.98665768519E+02 -0.84230248105E+02 -0.62659450518E+02  0.16734952429E+03  0.85146861175E+02 0.  0.
          5    1    3    3  501    0 -0.33315055769E+02 -0.46885234244E+02  0.61382116986E+02  0.84249465379E+02  0.47000000000E+01 0. -1.
        -13    1    4    4    0    0 -0.18718936286E+02  0.77359880738E+02  0.98161544915E+02  0.12637499208E+03  0.00000000000E+00 0.  1.
         14    1    4    4    0    0 -0.74086654072E+02  0.33920358833E+02  0.14668684650E+03  0.16779884979E+03  0.00000000000E+00 0. -1.
         -5    1    5    5    0  503  0.27454877608E+02  0.19835242778E+02 -0.10318997948E+03  0.10870818289E+03  0.47000000000E+01 0.  1.
         11    1    6    6    0    0  0.37217100874E+02 -0.31097027451E+02 -0.70680562679E+02  0.85719773999E+02  0.00000000000E+00 0. -1.
        -12    1    6    6    0    0  0.61448667645E+02 -0.53133220654E+02  0.80211121618E+01  0.81629750292E+02  0.00000000000E+00 0.  1.
</event>
<event>
12    1  0.9017558E-003  0.2952796E+03  0.7818608E-02  0.1087632E+00
         21   -1    0    0  501  502  0.00000000000E+00  0.00000000000E+00  0.11727874672E+03  0.11727874672E+03  0.00000000000E+00 0.  1.
         21   -1    0    0  502  503 -0.00000000000E+00 -0.00000000000E+00 -0.10814449768E+04  0.10814449768E+04  0.00000000000E+00 0. -1.
          6    2    1    2  501    0  0.19454132613E+03 -0.14011124759E+03 -0.14696604393E+03  0.32983189455E+03  0.17237334864E+03 0.  0.
         24    2    3    3    0    0  0.19532040697E+03 -0.69358183700E+02 -0.12894385141E+03  0.25666433043E+03  0.79306006519E+02 0.  0.
         -6    2    1    2    0  503 -0.19454132613E+03  0.14011124759E+03 -0.81720018617E+03  0.86889182898E+03  0.17227703540E+03 0.  0.
        -24    2    5    5    0    0 -0.44247527406E+02  0.10382261373E+03 -0.32354649429E+03  0.35157070204E+03  0.78629801976E+02 0.  0.
          5    1    3    3  501    0 -0.77908084459E+00 -0.70753063888E+02 -0.18022192517E+02  0.73167564122E+02  0.47000000000E+01 0. -1.
        -11    1    4    4    0    0  0.14095206105E+03 -0.77989613631E+02 -0.68903409678E+02  0.17520714373E+03  0.00000000000E+00 0.  1.
         12    1    4    4    0    0  0.54368345922E+02  0.86314299303E+01 -0.60040441733E+02  0.81457186696E+02  0.00000000000E+00 0. -1.
         -5    1    5    5    0  503 -0.15029379872E+03  0.36288633858E+02 -0.49365369188E+03  0.51732112694E+03  0.47000000000E+01 0.  1.
         11    1    6    6    0    0 -0.39271105941E+02  0.32933953975E+02 -0.22062173405E+03  0.22649683137E+03  0.00000000000E+00 0. -1.
        -12    1    6    6    0    0 -0.49764214652E+01  0.70888659754E+02 -0.10292476025E+03  0.12507387067E+03  0.00000000000E+00 0.  1.
</event>
<event>
12    1  0.9017558E-003  0.2789408E+03  0.7818608E-02  0.1096324E+00
         21   -1    0    0  501  502  0.00000000000E+00  0.00000000000E+00  0.61542137156E+02  0.61542137156E+02  0.00000000000E+00 0. -1.
         21   -1    0    0  502  503 -0.00000000000E+00 -0.00000000000E+00 -0.13461979137E+04  0.13461979137E+04  0.00000000000E+00 0. -1.
          6    2    1    2  501    0  0.10922345766E+03  0.19065415763E+03 -0.46723885414E+03  0.54416922207E+03  0.17184069338E+03 0.  0.
         24    2    3    3    0    0  0.48170718015E+02  0.15408322872E+02 -0.15672383648E+03  0.18239552788E+03  0.78408757033E+02 0.  0.
         -6    2    1    2    0  503 -0.10922345766E+03 -0.19065415763E+03 -0.81741692236E+03  0.86357082875E+03  0.17118814145E+03 0.  0.
        -24    2    5    5    0    0 -0.12962523107E+03 -0.10468444169E+03 -0.62467988067E+03  0.65149376337E+03  0.80359427207E+02 0.  0.
          5    1    3    3  501    0  0.61052739648E+02  0.17524583476E+03 -0.31051501765E+03  0.36177369419E+03  0.47000000000E+01 0. -1.
        -11    1    4    4    0    0  0.58458487302E+02  0.36994371846E+02 -0.12166310940E+03  0.13995674501E+03  0.00000000000E+00 0.  1.
         12    1    4    4    0    0 -0.10287769288E+02 -0.21586048974E+02 -0.35060727086E+02  0.42438782865E+02  0.00000000000E+00 0. -1.
         -5    1    5    5    0  503  0.20401773409E+02 -0.85969715934E+02 -0.19273704169E+03  0.21207706537E+03  0.47000000000E+01 0.  1.
         11    1    6    6    0    0 -0.93195000349E+02 -0.45638890532E+02 -0.25404848291E+03  0.27442457632E+03  0.00000000000E+00 0. -1.
        -12    1    6    6    0    0 -0.36430230724E+02 -0.59045551162E+02 -0.37063139776E+03  0.37706918705E+03  0.00000000000E+00 0.  1.
</event>
<event>
12    1  0.9017558E-003  0.2615358E+03  0.7818608E-02  0.1106415E+00
         21   -1    0    0  501  502  0.00000000000E+00  0.00000000000E+00  0.37374862992E+03  0.37374862992E+03  0.00000000000E+00 0. -1.
         21   -1    0    0  502  503 -0.00000000000E+00 -0.00000000000E+00 -0.22610504870E+03  0.22610504870E+03  0.00000000000E+00 0. -1.
          6    2    1    2  501    0 -0.11368031345E+03  0.16055441423E+03 -0.58606655371E+02  0.26677689316E+03  0.17039435753E+03 0.  0.
         24    2    3    3    0    0 -0.37369763085E+02  0.13750971970E+03 -0.74983980696E+02  0.18526207961E+03  0.91618876757E+02 0.  0.
         -6    2    1    2    0  503  0.11368031345E+03 -0.16055441423E+03  0.20625023659E+03  0.33307678546E+03  0.17233702831E+03 0.  0.
        -24    2    5    5    0    0  0.10970710589E+03 -0.17347231636E+03  0.13143124106E+03  0.25690178520E+03  0.81216146702E+02 0.  0.
          5    1    3    3  501    0 -0.76310550364E+02  0.23044694536E+02  0.16377325325E+02  0.81514813549E+02  0.47000000000E+01 0. -1.
        -11    1    4    4    0    0 -0.36613883104E+02  0.69420223477E+02  0.68739857676E+01  0.78784487965E+02  0.00000000000E+00 0.  1.
         12    1    4    4    0    0 -0.75587998098E+00  0.68089496219E+02 -0.81857966464E+02  0.10647759165E+03  0.00000000000E+00 0. -1.
         -5    1    5    5    0  503  0.39732075543E+01  0.12917902126E+02  0.74818995525E+02  0.76175000263E+02  0.47000000000E+01 0.  1.
         11    1    6    6    0    0  0.64583811134E+02 -0.69834413358E+02  0.10329010017E+03  0.14041637633E+03  0.00000000000E+00 0. -1.
        -12    1    6    6    0    0  0.45123294761E+02 -0.10363790300E+03  0.28141140896E+02  0.11648540887E+03  0.00000000000E+00 0.  1.
</event>
<event>
12    1  0.9017558E-003  0.1772829E+03  0.7818608E-02  0.1170693E+00
         21   -1    0    0  501  502  0.00000000000E+00  0.00000000000E+00  0.21636241675E+03  0.21636241675E+03  0.00000000000E+00 0.  1.
         21   -1    0    0  502  503 -0.00000000000E+00 -0.00000000000E+00 -0.14475859726E+03  0.14475859726E+03  0.00000000000E+00 0.  1.
          6    2    1    2  501    0  0.21789346721E+01  0.44141209145E+02  0.43727991226E+02  0.18259615716E+03  0.17168583311E+03 0.  0.
         24    2    3    3    0    0 -0.10594503312E+02  0.93566061049E+02  0.22693934895E+01  0.11666526887E+03  0.68838822863E+02 0.  0.
         -6    2    1    2    0  503 -0.21789346721E+01 -0.44141209145E+02  0.27875828261E+02  0.17852485685E+03  0.17070696708E+03 0.  0.
        -24    2    5    5    0    0 -0.15718687303E+02  0.39442696757E+02  0.26180456177E+02  0.93704113433E+02  0.79323647991E+02 0.  0.
          5    1    3    3  501    0  0.12773437985E+02 -0.49424851904E+02  0.41458597736E+02  0.65930888284E+02  0.47000000000E+01 0. -1.
        -11    1    4    4    0    0 -0.26385257868E+02  0.33186964542E+02  0.26183051144E+02  0.49830799868E+02  0.00000000000E+00 0.  1.
         12    1    4    4    0    0  0.15790754556E+02  0.60379096507E+02 -0.23913657655E+02  0.66834469003E+02  0.00000000000E+00 0. -1.
         -5    1    5    5    0  503  0.13539752631E+02 -0.83583905902E+02  0.16953720837E+01  0.84820743416E+02  0.47000000000E+01 0.  1.
         13    1    6    6    0    0 -0.33011718534E+02  0.44782255284E+01  0.40239834007E+02  0.52240523593E+02  0.00000000000E+00 0. -1.
        -14    1    6    6    0    0  0.17293031231E+02  0.34964471228E+02 -0.14059377829E+02  0.41463589839E+02  0.00000000000E+00 0.  1.
</event>
<event>
12    1  0.9017558E-003  0.2324612E+03  0.7818608E-02  0.1124991E+00
         21   -1    0    0  503  502  0.00000000000E+00  0.00000000000E+00  0.34955300564E+03  0.34955300564E+03  0.00000000000E+00 0.  1.
         21   -1    0    0  501  503 -0.00000000000E+00 -0.00000000000E+00 -0.18015253481E+03  0.18015253481E+03  0.00000000000E+00 0.  1.
          6    2    1    2  501    0 -0.96759828316E+02 -0.12200592548E+03 -0.15528795410E+02  0.23297928644E+03  0.17259865061E+03 0.  0.
         24    2    3    3    0    0 -0.10967258325E+03 -0.13185887508E+03 -0.50476950892E+02  0.19415553820E+03  0.75720617987E+02 0.  0.
         -6    2    1    2    0  502  0.96759828316E+02  0.12200592548E+03  0.18492926625E+03  0.29672625401E+03  0.17204570927E+03 0.  0.
        -24    2    5    5    0    0  0.11468127392E+03  0.11130524690E+03  0.10481658292E+03  0.21380572118E+03  0.95842150336E+02 0.  0.
          5    1    3    3  501    0  0.12912754930E+02  0.98529495994E+01  0.34948155483E+02  0.38823748239E+02  0.47000000000E+01 0. -1.
        -13    1    4    4    0    0 -0.94255392961E+02 -0.67894020537E+02 -0.54343474006E+02  0.12824542991E+03  0.00000000000E+00 0.  1.
         14    1    4    4    0    0 -0.15417190285E+02 -0.63964854541E+02  0.38665231141E+01  0.65910108282E+02  0.00000000000E+00 0. -1.
         -5    1    5    5    0  502 -0.17921445604E+02  0.10700678581E+02  0.80112683328E+02  0.82920532829E+02  0.47000000000E+01 0.  1.
         13    1    6    6    0    0  0.11258576991E+03  0.12718818580E+03  0.91283880781E+02  0.19283448106E+03  0.00000000000E+00 0. -1.
        -14    1    6    6    0    0  0.20955040093E+01 -0.15882938904E+02  0.13532702137E+02  0.20971240126E+02  0.00000000000E+00 0.  1.
</event>
<event>
12    1  0.9017558E-003  0.2740397E+03  0.7818608E-02  0.1099060E+00
         21   -1    0    0  501  502  0.00000000000E+00  0.00000000000E+00  0.21570036969E+03  0.21570036969E+03  0.00000000000E+00 0.  1.
         21   -1    0    0  502  503 -0.00000000000E+00 -0.00000000000E+00 -0.81294210589E+03  0.81294210589E+03  0.00000000000E+00 0. -1.
          6    2    1    2  501    0 -0.21264506344E+03  0.17290687934E+02  0.90653897257E+02  0.28817091021E+03  0.17119419824E+03 0.  0.
         24    2    3    3    0    0 -0.21439686100E+03 -0.22086505929E+02  0.94025786734E+02  0.24833258909E+03  0.79839830180E+02 0.  0.
         -6    2    1    2    0  503  0.21264506344E+03 -0.17290687934E+02 -0.68789563345E+03  0.74047156537E+03  0.17199083027E+03 0.  0.
        -24    2    5    5    0    0  0.15536147502E+03  0.50610851356E+02 -0.39538883244E+03  0.43473581807E+03  0.77228598924E+02 0.  0.
          5    1    3    3  501    0  0.17517975575E+01  0.39377193863E+02 -0.33718894774E+01  0.39838321123E+02  0.47000000000E+01 0. -1.
        -11    1    4    4    0    0 -0.87633705386E+02  0.26380213148E+02  0.56397453729E+02  0.10750002210E+03  0.00000000000E+00 0.  1.
         12    1    4    4    0    0 -0.12676315561E+03 -0.48466719077E+02  0.37628333005E+02  0.14083256699E+03  0.00000000000E+00 0. -1.
         -5    1    5    5    0  503  0.57283588418E+02 -0.67901539291E+02 -0.29250680101E+03  0.30573574730E+03  0.47000000000E+01 0.  1.
         11    1    6    6    0    0  0.62547125325E+02 -0.10280482849E+02 -0.20246976927E+03  0.21215993656E+03  0.00000000000E+00 0. -1.
        -12    1    6    6    0    0  0.92814349699E+02  0.60891334205E+02 -0.19291906318E+03  0.22257588151E+03  0.00000000000E+00 0.  1.
</event>
<event>
12    1  0.9017558E-003  0.5784938E+03  0.7818608E-02  0.9951546E-01
         21   -1    0    0  501  502  0.00000000000E+00  0.00000000000E+00  0.18347527905E+04  0.18347527905E+04  0.00000000000E+00 0.  1.
         21   -1    0    0  502  503 -0.00000000000E+00 -0.00000000000E+00 -0.19627856958E+03  0.19627856958E+03  0.00000000000E+00 0. -1.
          6    2    1    2  501    0 -0.44974763873E+03 -0.31890942180E+03  0.10926304027E+04  0.12363236968E+04  0.17515401370E+03 0.  0.
         24    2    3    3    0    0 -0.29179865874E+03 -0.12906216680E+03  0.56238517411E+03  0.65136903792E+03  0.78746678371E+02 0.  0.
         -6    2    1    2    0  503  0.44974763873E+03  0.31890942180E+03  0.54584381822E+03  0.79470766328E+03  0.17215875908E+03 0.  0.
        -24    2    5    5    0    0  0.97925418323E+02  0.10721254614E+03  0.17225981261E+03  0.23956665309E+03  0.81454408308E+02 0.  0.
          5    1    3    3  501    0 -0.15794897999E+03 -0.18984725500E+03  0.53024522861E+03  0.58495465891E+03  0.47000000000E+01 0. -1.
        -13    1    4    4    0    0 -0.36837652435E+00 -0.13024593018E+02  0.11229190439E+02  0.17200884932E+02  0.00000000000E+00 0.  1.
         14    1    4    4    0    0 -0.29143028222E+03 -0.11603757379E+03  0.55115598367E+03  0.63416815299E+03  0.00000000000E+00 0. -1.
         -5    1    5    5    0  503  0.35182222041E+03  0.21169687567E+03  0.37358400561E+03  0.55514101019E+03  0.47000000000E+01 0.  1.
         11    1    6    6    0    0  0.55424736969E+02  0.79636202261E+02  0.54297068024E+02  0.11118452129E+03  0.00000000000E+00 0. -1.
        -12    1    6    6    0    0  0.42500681354E+02  0.27576343876E+02  0.11796274458E+03  0.12838213180E+03  0.00000000000E+00 0.  1.
</event>
<event>
12    1  0.9017558E-003  0.1866938E+03  0.7818608E-02  0.1161855E+00
         21   -1    0    0  501  502  0.00000000000E+00  0.00000000000E+00  0.23012253511E+03  0.23012253511E+03  0.00000000000E+00 0. -1.
         21   -1    0    0  502  503 -0.00000000000E+00 -0.00000000000E+00 -0.15022881397E+03  0.15022881397E+03  0.00000000000E+00 0. -1.
          6    2    1    2  501    0 -0.71204454268E+02 -0.13538757469E+02  0.35524365060E+02  0.19004357568E+03  0.17205001564E+03 0.  0.
         24    2    3    3    0    0 -0.56114073759E+02  0.18221854565E+02 -0.39310285838E+02  0.10722587808E+03  0.80444173810E+02 0.  0.
         -6    2    1    2    0  503  0.71204454268E+02  0.13538757469E+02  0.44369356079E+02  0.19030777340E+03  0.17027928998E+03 0.  0.
        -24    2    5    5    0    0  0.73769471628E+02 -0.50509206086E+02  0.65063814727E+02  0.12278687613E+03  0.53387284244E+02 0.  0.
          5    1    3    3  501    0 -0.15090380509E+02 -0.31760612034E+02  0.74834650898E+02  0.82817697599E+02  0.47000000000E+01 0. -1.
        -13    1    4    4    0    0 -0.41385877174E+02  0.49480849250E+02 -0.19474993667E+02  0.67382643538E+02  0.00000000000E+00 0.  1.
         14    1    4    4    0    0 -0.14728196585E+02 -0.31258994685E+02 -0.19835292171E+02  0.39843234543E+02  0.00000000000E+00 0. -1.
         -5    1    5    5    0  503 -0.25650173599E+01  0.64047963554E+02 -0.20694458648E+02  0.67520897271E+02  0.47000000000E+01 0.  1.
         11    1    6    6    0    0  0.21137271904E+02  0.83750956033E+01  0.43007698516E+01  0.23139211552E+02  0.00000000000E+00 0. -1.
        -12    1    6    6    0    0  0.52632199724E+02 -0.58884301689E+02  0.60763044875E+02  0.99647664577E+02  0.00000000000E+00 0.  1.
</event>
<event>
12    1  0.9017558E-003  0.1760188E+03  0.7818608E-02  0.1172073E+00
         21   -1    0    0  503  502  0.00000000000E+00  0.00000000000E+00  0.13003250613E+04  0.13003250613E+04  0.00000000000E+00 0. -1.
         21   -1    0    0  501  503 -0.00000000000E+00 -0.00000000000E+00 -0.23688217070E+02  0.23688217070E+02  0.00000000000E+00 0. -1.
          6    2    1    2  501    0  0.33350223638E+02 -0.80120226755E+01  0.67312956855E+03  0.69576292524E+03  0.17264472814E+03 0.  0.
         24    2    3    3    0    0  0.40381066907E+02 -0.66550633768E+02  0.52345379871E+03  0.53482465191E+03  0.77291082820E+02 0.  0.
         -6    2    1    2    0  502 -0.33350223638E+02  0.80120226755E+01  0.60350727564E+03  0.62825035309E+03  0.17117547864E+03 0.  0.
        -24    2    5    5    0    0 -0.32765000291E+02 -0.60412680785E+02  0.39190068453E+03  0.40580547918E+03  0.79804154974E+02 0.  0.
          5    1    3    3  501    0 -0.70308432684E+01  0.58538611093E+02  0.14967576984E+03  0.16093827334E+03  0.47000000000E+01 0. -1.
        -11    1    4    4    0    0  0.42156410487E+02  0.93335506678E+00  0.20664923922E+03  0.21090742559E+03  0.00000000000E+00 0.  1.
         12    1    4    4    0    0 -0.17753435806E+01 -0.67483988835E+02  0.31680455949E+03  0.32391722632E+03  0.00000000000E+00 0. -1.
         -5    1    5    5    0  502 -0.58522334779E+00  0.68424703461E+02  0.21160659111E+03  0.22244487392E+03  0.47000000000E+01 0.  1.
         13    1    6    6    0    0 -0.65638866650E+01 -0.51711793589E+02  0.35940491209E+03  0.36316536872E+03  0.00000000000E+00 0. -1.
        -14    1    6    6    0    0 -0.26201113626E+02 -0.87008871960E+01  0.32495772443E+02  0.42640110458E+02  0.00000000000E+00 0.  1.
</event>
<event>
12    1  0.9017558E-003  0.2027882E+03  0.7818608E-02  0.1147452E+00
         21   -1    0    0  501  502  0.00000000000E+00  0.00000000000E+00  0.38204299618E+02  0.38204299618E+02  0.00000000000E+00 0.  1.
         21   -1    0    0  502  503 -0.00000000000E+00 -0.00000000000E+00 -0.13177141553E+04  0.13177141553E+04  0.00000000000E+00 0.  1.
          6    2    1    2  501    0  0.28420195606E+02  0.10399594003E+03 -0.34922008846E+03  0.40382881163E+03  0.17175615231E+03 0.  0.
         24    2    3    3    0    0 -0.41147828096E+02  0.86701447375E+02 -0.26316570481E+03  0.29172949699E+03  0.81483903250E+02 0.  0.
         -6    2    1    2    0  503 -0.28420195606E+02 -0.10399594003E+03 -0.93028976717E+03  0.95208964324E+03  0.17150153002E+03 0.  0.
        -24    2    5    5    0    0 -0.83049009217E+02 -0.87297435771E+02 -0.75652474461E+03  0.76911554565E+03  0.68491263231E+02 0.  0.
          5    1    3    3  501    0  0.69568023702E+02  0.17294492656E+02 -0.86054383652E+02  0.11209931464E+03  0.47000000000E+01 0. -1.
        -11    1    4    4    0    0  0.17414626286E+02  0.57472065049E+02 -0.11446270945E+03  0.12925950381E+03  0.00000000000E+00 0.  1.
         12    1    4    4    0    0 -0.58562454381E+02  0.29229382326E+02 -0.14870299536E+03  0.16246999318E+03  0.00000000000E+00 0. -1.
         -5    1    5    5    0  503  0.54628813611E+02 -0.16698504261E+02 -0.17376502257E+03  0.18297409759E+03  0.47000000000E+01 0.  1.
         13    1    6    6    0    0 -0.35498307247E+02 -0.61555720061E+02 -0.25600617338E+03  0.26568477054E+03  0.00000000000E+00 0. -1.
        -14    1    6    6    0    0 -0.47550701970E+02 -0.25741715710E+02 -0.50051857123E+03  0.50343077511E+03  0.00000000000E+00 0.  1.
</event>
<event>
12    1  0.9017558E-003  0.2899765E+03  0.7818608E-02  0.1090479E+00
         21   -1    0    0  501  502  0.00000000000E+00  0.00000000000E+00  0.33799062941E+03  0.33799062941E+03  0.00000000000E+00 0. -1.
         21   -1    0    0  502  503 -0.00000000000E+00 -0.00000000000E+00 -0.24892503046E+03  0.24892503046E+03  0.00000000000E+00 0.  1.
          6    2    1    2  501    0  0.16391181391E+03  0.16676125172E+03  0.62229122449E+02  0.29569998977E+03  0.16996947507E+03 0.  0.
         24    2    3    3    0    0  0.15926034075E+03  0.19152363706E+03  0.66200206225E+02  0.26976407960E+03  0.79655706940E+02 0.  0.
         -6    2    1    2    0  503 -0.16391181391E+03 -0.16676125172E+03  0.26836476501E+02  0.29121567010E+03  0.17149335914E+03 0.  0.
        -24    2    5    5    0    0 -0.60536560268E+02 -0.31180897441E+02 -0.33766548167E+02  0.11020933836E+03  0.79805983442E+02 0.  0.
          5    1    3    3  501    0  0.46514731562E+01 -0.24762385340E+02 -0.39710837766E+01  0.25935910175E+02  0.47000000000E+01 0. -1.
        -11    1    4    4    0    0  0.14078909149E+03  0.14013974481E+03  0.22676933970E+02  0.19993738943E+03  0.00000000000E+00 0.  1.
         12    1    4    4    0    0  0.18471249264E+02  0.51383892253E+02  0.43523272256E+02  0.69826690172E+02  0.00000000000E+00 0. -1.
         -5    1    5    5    0  503 -0.10337525364E+03 -0.13558035428E+03  0.60603024668E+02  0.18100633174E+03  0.47000000000E+01 0.  1.
         13    1    6    6    0    0  0.17960667481E+02 -0.11262823210E+02 -0.17764046871E+02  0.27658599463E+02  0.00000000000E+00 0. -1.
        -14    1    6    6    0    0 -0.78497227749E+02 -0.19918074231E+02 -0.16002501297E+02  0.82550738901E+02  0.00000000000E+00 0.  1.
</event>
<event>
12    1  0.9017558E-003  0.1757198E+03  0.7818608E-02  0.1172531E+00
         21   -1    0    0  503  502  0.00000000000E+00  0.00000000000E+00  0.28194748254E+03  0.28194748254E+03  0.00000000000E+00 0. -1.
         21   -1    0    0  501  503 -0.00000000000E+00 -0.00000000000E+00 -0.20026658156E+03  0.20026658156E+03  0.00000000000E+00 0. -1.
          6    2    1    2  501    0 -0.11894009029E+01 -0.43954321093E+01 -0.12274106091E+03  0.21264815083E+03  0.17358897869E+03 0.  0.
         24    2    3    3    0    0  0.84796987669E+01 -0.60017949009E+02 -0.34034710402E+02  0.10739482550E+03  0.81861025751E+02 0.  0.
         -6    2    1    2    0  502  0.11894009029E+01  0.43954321093E+01  0.20442196189E+03  0.26956591326E+03  0.17566077705E+03 0.  0.
        -24    2    5    5    0    0  0.20017736281E+02 -0.14278399253E+02  0.32025856049E+02  0.95078877932E+02  0.86079934491E+02 0.  0.
          5    1    3    3  501    0 -0.96690996698E+01  0.55622516899E+02 -0.88706350505E+02  0.10525332534E+03  0.47000000000E+01 0. -1.
        -11    1    4    4    0    0  0.39132362911E+02 -0.57093382972E+02 -0.13884735192E+02  0.70595906946E+02  0.00000000000E+00 0.  1.
         12    1    4    4    0    0 -0.30652664144E+02 -0.29245660370E+01 -0.20149975210E+02  0.36798918551E+02  0.00000000000E+00 0. -1.
         -5    1    5    5    0  502 -0.18828335378E+02  0.18673831362E+02  0.17239610584E+03  0.17448703533E+03  0.47000000000E+01 0.  1.
         11    1    6    6    0    0  0.13023399661E+01  0.19150468916E+02  0.49410400650E+02  0.53007775293E+02  0.00000000000E+00 0. -1.
        -12    1    6    6    0    0  0.18715396315E+02 -0.33428868168E+02 -0.17384544601E+02  0.42071102639E+02  0.00000000000E+00 0.  1.
</event>
<event>
12    1  0.9017558E-003  0.2010066E+03  0.7818608E-02  0.1150269E+00
         21   -1    0    0  501  502  0.00000000000E+00  0.00000000000E+00  0.16031241923E+03  0.16031241923E+03  0.00000000000E+00 0. -1.
         21   -1    0    0  502  503 -0.00000000000E+00 -0.00000000000E+00 -0.29676228550E+03  0.29676228550E+03  0.00000000000E+00 0. -1.
          6    2    1    2  501    0 -0.16993324752E+02 -0.87815179324E+02  0.29041481876E+02  0.19670761258E+03  0.17277209952E+03 0.  0.
         24    2    3    3    0    0 -0.67171220667E+02 -0.58079672842E+02 -0.18677419666E+02  0.12120128736E+03  0.80347276048E+02 0.  0.
         -6    2    1    2    0  503  0.16993324752E+02  0.87815179324E+02 -0.16549134815E+03  0.26036709215E+03  0.18000932630E+03 0.  0.
        -24    2    5    5    0    0  0.40286271329E+02  0.35303406419E+02 -0.13679700418E+02  0.97982012657E+02  0.80895157076E+02 0.  0.
          5    1    3    3  501    0  0.50177895915E+02 -0.29735506482E+02  0.47718901542E+02  0.75506325222E+02  0.47000000000E+01 0. -1.
        -11    1    4    4    0    0 -0.17158005353E+02  0.20416298660E+02 -0.35135789557E+01  0.26899212549E+02  0.00000000000E+00 0.  1.
         12    1    4    4    0    0 -0.50013215314E+02 -0.78495971502E+02 -0.15163840711E+02  0.94302074809E+02  0.00000000000E+00 0. -1.
         -5    1    5    5    0  503 -0.23292946577E+02  0.52511772905E+02 -0.15181164773E+03  0.16238507949E+03  0.47000000000E+01 0.  1.
         11    1    6    6    0    0  0.34001356106E+01  0.47074576708E+02  0.15304321483E+02  0.49616518927E+02  0.00000000000E+00 0. -1.
        -12    1    6    6    0    0  0.36886135719E+02 -0.11771170289E+02 -0.28984021901E+02  0.48365493730E+02  0.00000000000E+00 0.  1.
</event>
<event>
12    1  0.9017558E-003  0.1761869E+03  0.7818608E-02  0.1171686E+00
         21   -1    0    0  501  502  0.00000000000E+00  0.00000000000E+00  0.67047361299E+02  0.67047361299E+02  0.00000000000E+00 0.  1.
         21   -1    0    0  502  503 -0.00000000000E+00 -0.00000000000E+00 -0.46338710200E+03  0.46338710200E+03  0.00000000000E+00 0. -1.
          6    2    1    2  501    0  0.34061251649E+02  0.95214764619E+01 -0.21541219173E+03  0.27828805370E+03  0.17260069846E+03 0.  0.
         24    2    3    3    0    0  0.86971388605E+02  0.26147455021E+02 -0.15678057597E+03  0.19744461165E+03  0.78463455372E+02 0.  0.
         -6    2    1    2    0  503 -0.34061251649E+02 -0.95214764619E+01 -0.18092754897E+03  0.25214640959E+03  0.17202385450E+03 0.  0.
        -24    2    5    5    0    0  0.43776183183E+02  0.80842794729E+01 -0.12587389045E+03  0.15508135811E+03  0.78894116053E+02 0.  0.
          5    1    3    3  501    0 -0.52910136956E+02 -0.16625978559E+02 -0.58631615762E+02  0.80843442051E+02  0.47000000000E+01 0. -1.
        -11    1    4    4    0    0  0.18436463531E+02  0.36573152015E+02 -0.23517724800E+02  0.47229037843E+02  0.00000000000E+00 0.  1.
         12    1    4    4    0    0  0.68534925074E+02 -0.10425696994E+02 -0.13326285117E+03  0.15021557381E+03  0.00000000000E+00 0. -1.
         -5    1    5    5    0  503 -0.77837434832E+02 -0.17605755935E+02 -0.55053658519E+02  0.97065051484E+02  0.47000000000E+01 0.  1.
         13    1    6    6    0    0  0.28394373782E+02 -0.50245433125E+00 -0.13305924522E+03  0.13605607543E+03  0.00000000000E+00 0. -1.
        -14    1    6    6    0    0  0.15381809402E+02  0.85867338041E+01  0.71853547709E+01  0.19025282681E+02  0.00000000000E+00 0.  1.
</event>
<event>
12    1  0.9017558E-003  0.1804956E+03  0.7818608E-02  0.1167466E+00
         21   -1    0    0  501  502  0.00000000000E+00  0.00000000000E+00  0.31907993138E+02  0.31907993138E+02  0.00000000000E+00 0.  1.
         21   -1    0    0  502  503 -0.00000000000E+00 -0.00000000000E+00 -0.10428304546E+04  0.10428304546E+04  0.00000000000E+00 0.  1.
          6    2    1    2  501    0 -0.55283378887E+02  0.89656608881E+01 -0.42286377674E+03  0.45977433057E+03  0.17158678945E+03 0.  0.
         24    2    3    3    0    0 -0.31738399247E+02  0.28650838423E+01 -0.42625861130E+03  0.43477037072E+03  0.79456509226E+02 0.  0.
         -6    2    1    2    0  503  0.55283378887E+02 -0.89656608881E+01 -0.58805868476E+03  0.61496411720E+03  0.17097138262E+03 0.  0.
        -24    2    5    5    0    0 -0.22292758368E+02 -0.40317261933E+02 -0.36912190481E+03  0.38053633819E+03  0.80215181781E+02 0.  0.
          5    1    3    3  501    0 -0.23544979640E+02  0.61005770459E+01  0.33948345555E+01  0.25003959851E+02  0.47000000000E+01 0. -1.
        -13    1    4    4    0    0 -0.50475023800E+02  0.25141415305E+02 -0.29143126040E+03  0.29683665260E+03  0.00000000000E+00 0.  1.
         14    1    4    4    0    0  0.18736624553E+02 -0.22276331462E+02 -0.13482735090E+03  0.13793371811E+03  0.00000000000E+00 0. -1.
         -5    1    5    5    0  503  0.77576137255E+02  0.31351601045E+02 -0.21893677995E+03  0.23442777901E+03  0.47000000000E+01 0.  1.
         13    1    6    6    0    0 -0.75798321422E+01  0.14930598650E+02 -0.22299484992E+03  0.22362262793E+03  0.00000000000E+00 0. -1.
        -14    1    6    6    0    0 -0.14712926226E+02 -0.55247860583E+02 -0.14612705488E+03  0.15691371026E+03  0.00000000000E+00 0.  1.
</event>
<event>
12    1  0.9017558E-003  0.1818162E+03  0.7818608E-02  0.1166168E+00
         21   -1    0    0  501  502  0.00000000000E+00  0.00000000000E+00  0.32302290551E+02  0.32302290551E+02  0.00000000000E+00 0. -1.
         21   -1    0    0  502  503 -0.00000000000E+00 -0.00000000000E+00 -0.12421721036E+04  0.12421721036E+04  0.00000000000E+00 0. -1.
          6    2    1    2  501    0 -0.14258314112E+02 -0.55233428516E+02 -0.33525938155E+03  0.38116564010E+03  0.17214633638E+03 0.  0.
         24    2    3    3    0    0 -0.59106186530E+02  0.42391362355E+01 -0.23855126770E+03  0.25900645337E+03  0.81646334906E+02 0.  0.
         -6    2    1    2    0  503  0.14258314112E+02  0.55233428516E+02 -0.87461043146E+03  0.89330875401E+03  0.17263572060E+03 0.  0.
        -24    2    5    5    0    0  0.21465963535E+02 -0.20839119056E+02 -0.64691006934E+03  0.65308276122E+03  0.84435766780E+02 0.  0.
          5    1    3    3  501    0  0.44847872417E+02 -0.59472564751E+02 -0.96708113851E+02  0.12215918673E+03  0.47000000000E+01 0. -1.
        -11    1    4    4    0    0 -0.15215253292E+02  0.27425936662E+02 -0.17784325077E+03  0.18058767338E+03  0.00000000000E+00 0.  1.
         12    1    4    4    0    0 -0.43890933238E+02 -0.23186800426E+02 -0.60708016929E+02  0.78418779982E+02  0.00000000000E+00 0. -1.
         -5    1    5    5    0  503 -0.72076494231E+01  0.76072547572E+02 -0.22770036212E+03  0.24022599279E+03  0.47000000000E+01 0.  1.
         13    1    6    6    0    0  0.36406356087E+02 -0.44261912741E+02 -0.32839753228E+03  0.33336088387E+03  0.00000000000E+00 0. -1.
        -14    1    6    6    0    0 -0.14940392552E+02  0.23422793685E+02 -0.31851253706E+03  0.31972187735E+03  0.00000000000E+00 0.  1.
</event>
<event>
12    1  0.9017558E-003  0.1883877E+03  0.7818608E-02  0.1160268E+00
         21   -1    0    0  501  502  0.00000000000E+00  0.00000000000E+00  0.25553054128E+02  0.25553054128E+02  0.00000000000E+00 0. -1.
         21   -1    0    0  502  503 -0.00000000000E+00 -0.00000000000E+00 -0.13778025177E+04  0.13778025177E+04  0.00000000000E+00 0.  1.
          6    2    1    2  501    0  0.29680304793E+02  0.69664393441E+02 -0.68070453832E+03  0.70629214336E+03  0.17249891326E+03 0.  0.
         24    2    3    3    0    0  0.37909747294E+02  0.86736618145E+02 -0.67454274653E+03  0.68581673718E+03  0.79851676451E+02 0.  0.
         -6    2    1    2    0  503 -0.29680304793E+02 -0.69664393441E+02 -0.67154492526E+03  0.69706342848E+03  0.17085311958E+03 0.  0.
        -24    2    5    5    0    0 -0.64596325797E+02 -0.82508043842E+02 -0.36441402255E+03  0.38765177828E+03  0.80598131288E+02 0.  0.
          5    1    3    3  501    0 -0.82294425012E+01 -0.17072224704E+02 -0.61617917920E+01  0.20475406182E+02  0.47000000000E+01 0. -1.
        -13    1    4    4    0    0  0.10734731397E+02  0.34273448995E+01 -0.87100767773E+01  0.14242422150E+02  0.00000000000E+00 0.  1.
         14    1    4    4    0    0  0.27175015897E+02  0.83309273245E+02 -0.66583266975E+03  0.67157431503E+03  0.00000000000E+00 0. -1.
         -5    1    5    5    0  503  0.34916021004E+02  0.12843650401E+02 -0.30713090271E+03  0.30941165020E+03  0.47000000000E+01 0.  1.
         13    1    6    6    0    0 -0.40211724422E+02 -0.30751522380E+02 -0.62816776685E+02  0.80675810146E+02  0.00000000000E+00 0. -1.
        -14    1    6    6    0    0 -0.24384601375E+02 -0.51756521462E+02 -0.30159724586E+03  0.30697596813E+03  0.00000000000E+00 0.  1.
</event>
<event>
12    1  0.9017558E-003  0.1867177E+03  0.7818608E-02  0.1161716E+00
         21   -1    0    0  503  502  0.00000000000E+00  0.00000000000E+00  0.48730270320E+02  0.48730270320E+02  0.00000000000E+00 0. -1.
         21   -1    0    0  501  503 -0.00000000000E+00 -0.00000000000E+00 -0.72051731013E+03  0.72051731013E+03  0.00000000000E+00 0.  1.
          6    2    1    2  501    0 -0.13802814476E+02  0.69699028361E+02 -0.37878884069E+03  0.42181204754E+03  0.17145245806E+03 0.  0.
         24    2    3    3    0    0 -0.46106745043E+02  0.47525348037E+02 -0.36588037771E+03  0.38029175797E+03  0.79805261379E+02 0.  0.
         -6    2    1    2    0  502  0.13802814476E+02 -0.69699028361E+02 -0.29299819912E+03  0.34743553291E+03  0.17267030028E+03 0.  0.
        -24    2    5    5    0    0  0.27766103006E+02 -0.10037383863E+03 -0.28252778035E+03  0.31183164154E+03  0.81062704371E+02 0.  0.
          5    1    3    3  501    0  0.32303930567E+02  0.22173680323E+02 -0.12908462981E+02  0.41520289567E+02  0.47000000000E+01 0. -1.
        -13    1    4    4    0    0 -0.10985963107E+00 -0.67773258241E+01 -0.19587459181E+03  0.19599183639E+03  0.00000000000E+00 0.  1.
         14    1    4    4    0    0 -0.45996885412E+02  0.54302673861E+02 -0.17000578590E+03  0.18429992159E+03  0.00000000000E+00 0. -1.
         -5    1    5    5    0  502 -0.13963288529E+02  0.30674810266E+02 -0.10470418769E+02  0.35603891369E+02  0.47000000000E+01 0.  1.
         11    1    6    6    0    0  0.28877566931E+02 -0.86394103325E+01 -0.27489937374E+02  0.40795219567E+02  0.00000000000E+00 0. -1.
        -12    1    6    6    0    0 -0.11114639250E+01 -0.91734428294E+02 -0.25503784298E+03  0.27103642197E+03  0.00000000000E+00 0.  1.
</event>
<event>
12    1  0.9017558E-003  0.2070441E+03  0.7818608E-02  0.1144293E+00
         21   -1    0    0  501  502  0.00000000000E+00  0.00000000000E+00  0.10120782586E+03  0.10120782586E+03  0.00000000000E+00 0. -1.
         21   -1    0    0  502  503 -0.00000000000E+00 -0.00000000000E+00 -0.46659661962E+03  0.46659661962E+03  0.00000000000E+00 0.  1.
          6    2    1    2  501    0  0.10645478470E+03 -0.31461306385E+02 -0.92148592135E+02  0.22498166315E+03  0.17263531138E+03 0.  0.
         24    2    3    3    0    0  0.28129075339E+02  0.83942261594E+01  0.24280998389E+02  0.79031946568E+02  0.69244305060E+02 0.  0.
         -6    2    1    2    0  503 -0.10645478470E+03  0.31461306385E+02 -0.27324020162E+03  0.34282278233E+03  0.17477075647E+03 0.  0.
        -24    2    5    5    0    0  0.36126741695E+01  0.18580029378E+02 -0.17729853740E+03  0.19616786174E+03  0.81785021298E+02 0.  0.
          5    1    3    3  501    0  0.78325709364E+02 -0.39855532545E+02 -0.11642959052E+03  0.14594971659E+03  0.47000000000E+01 0. -1.
        -13    1    4    4    0    0  0.11071649589E+02  0.34987674908E+02  0.29405135708E+02  0.47025321116E+02  0.00000000000E+00 0.  1.
         14    1    4    4    0    0  0.17057425750E+02 -0.26593448748E+02 -0.51241373188E+01  0.32006625452E+02  0.00000000000E+00 0. -1.
         -5    1    5    5    0  503 -0.11006745887E+03  0.12881277007E+02 -0.95941664225E+02  0.14665492059E+03  0.47000000000E+01 0.  1.
         11    1    6    6    0    0 -0.14339845239E+02  0.33330266902E+02 -0.30091667782E+02  0.47138586351E+02  0.00000000000E+00 0. -1.
        -12    1    6    6    0    0  0.17952519409E+02 -0.14750237524E+02 -0.14720686961E+03  0.14902927539E+03  0.00000000000E+00 0.  1.
</event>
<event>
12    1  0.9017558E-003  0.1872030E+03  0.7818608E-02  0.1161144E+00
         21   -1    0    0  501  502  0.00000000000E+00  0.00000000000E+00  0.11943055261E+03  0.11943055261E+03  0.00000000000E+00 0.  1.
         21   -1    0    0  502  503 -0.00000000000E+00 -0.00000000000E+00 -0.33266616327E+03  0.33266616327E+03  0.00000000000E+00 0.  1.
          6    2    1    2  501    0  0.49201358793E+02  0.56142853034E+02 -0.27932148699E+02  0.18869147740E+03  0.17103062608E+03 0.  0.
         24    2    3    3    0    0  0.60474348184E+01 -0.29671803496E+01 -0.68020686970E+02  0.10511254404E+03  0.79852723381E+02 0.  0.
         -6    2    1    2    0  503 -0.49201358793E+02 -0.56142853034E+02 -0.18530346196E+03  0.26340523848E+03  0.17167455546E+03 0.  0.
        -24    2    5    5    0    0 -0.10716076464E+02 -0.98871103300E+02 -0.15154901190E+03  0.19656009486E+03  0.76016041212E+02 0.  0.
          5    1    3    3  501    0  0.43153923975E+02  0.59110033384E+02  0.40088538271E+02  0.83578933361E+02  0.47000000000E+01 0. -1.
        -11    1    4    4    0    0 -0.63060531227E+01  0.36421457514E+02 -0.20883318670E+02  0.42454703769E+02  0.00000000000E+00 0.  1.
         12    1    4    4    0    0  0.12353487941E+02 -0.39388637864E+02 -0.47137368300E+02  0.62657840270E+02  0.00000000000E+00 0. -1.
         -5    1    5    5    0  503 -0.38485282329E+02  0.42728250266E+02 -0.33754450065E+02  0.66845143623E+02  0.47000000000E+01 0.  1.
         13    1    6    6    0    0  0.30216537250E+02 -0.51363039866E+02 -0.94860945804E+02  0.11202588998E+03  0.00000000000E+00 0. -1.
        -14    1    6    6    0    0 -0.40932613714E+02 -0.47508063434E+02 -0.56688066094E+02  0.84534204877E+02  0.00000000000E+00 0.  1.
</event>
<event>
12    1  0.9017558E-003  0.1766196E+03  0.7818608E-02  0.1171535E+00
         21   -1    0    0  503  502  0.00000000000E+00  0.00000000000E+00  0.19605092351E+04  0.19605092351E+04  0.00000000000E+00 0. -1.
         21   -1    0    0  501  503 -0.00000000000E+00 -0.00000000000E+00 -0.16314939771E+02  0.16314939771E+02  0.00000000000E+00 0. -1.
          6    2    1    2  501    0 -0.12237075569E+02 -0.21061786224E+02  0.79433111969E+03  0.81372993955E+03  0.17493182085E+03 0.  0.
         24    2    3    3    0    0 -0.55938907205E+02 -0.57372420646E+02  0.62461168216E+03  0.63469058706E+03  0.79193635026E+02 0.  0.
         -6    2    1    2    0  502  0.12237075569E+02  0.21061786224E+02  0.11498631757E+04  0.11630942354E+04  0.17323259713E+03 0.  0.
        -24    2    5    5    0    0  0.56349501936E+01  0.49368454741E+02  0.11069697782E+04  0.11110674241E+04  0.81361748337E+02 0.  0.
          5    1    3    3  501    0  0.43701831636E+02  0.36310634421E+02  0.16971943754E+03  0.17903935249E+03  0.47000000000E+01 0. -1.
        -11    1    4    4    0    0 -0.27553265166E+02 -0.61794769761E+02  0.55881026600E+03  0.56289136552E+03  0.00000000000E+00 0.  1.
         12    1    4    4    0    0 -0.28385642039E+02  0.44223491151E+01  0.65801416155E+02  0.71799221539E+02  0.00000000000E+00 0. -1.
         -5    1    5    5    0  502  0.66021253754E+01 -0.28306668517E+02  0.42893397482E+02  0.52026811257E+02  0.47000000000E+01 0.  1.
         13    1    6    6    0    0  0.36043701216E+02  0.82358991019E+01  0.68695669777E+03  0.68795093069E+03  0.00000000000E+00 0. -1.
        -14    1    6    6    0    0 -0.30408751022E+02  0.41132555639E+02  0.42001308043E+03  0.42311649342E+03  0.00000000000E+00 0.  1.
</event>
<event>
12    1  0.9017558E-003  0.2143265E+03  0.7818608E-02  0.1138496E+00
         21   -1    0    0  503  502  0.00000000000E+00  0.00000000000E+00  0.30548468342E+03  0.30548468342E+03  0.00000000000E+00 0.  1.
         21   -1    0    0  501  503 -0.00000000000E+00 -0.00000000000E+00 -0.16152690538E+03  0.16152690538E+03  0.00000000000E+00 0.  1.
          6    2    1    2  501    0  0.10743656898E+03  0.67858355685E+02  0.73430087193E+01  0.21284737405E+03  0.17059517014E+03 0.  0.
         24    2    3    3    0    0  0.11964377867E+03  0.94277245366E+00 -0.46624184755E+01  0.14361637283E+03  0.79299443916E+02 0.  0.
         -6    2    1    2    0  502 -0.10743656898E+03 -0.67858355685E+02  0.13661476932E+03  0.25416421475E+03  0.17259339522E+03 0.  0.
        -24    2    5    5    0    0 -0.41568649605E+02 -0.94045653707E+02  0.42185637486E+02  0.13599777147E+03  0.78378748541E+02 0.  0.
          5    1    3    3  501    0 -0.12207209694E+02  0.66915583231E+02  0.12005427195E+02  0.69231001219E+02  0.47000000000E+01 0. -1.
        -13    1    4    4    0    0  0.34334718913E+02 -0.39923730261E+01 -0.38471784539E+02  0.51719340394E+02  0.00000000000E+00 0.  1.
         14    1    4    4    0    0  0.85309059757E+02  0.49351454798E+01  0.33809366063E+02  0.91897032439E+02  0.00000000000E+00 0. -1.
         -5    1    5    5    0  502 -0.65867919371E+02  0.26187298022E+02  0.94429131829E+02  0.11816644328E+03  0.47000000000E+01 0.  1.
         13    1    6    6    0    0 -0.62032656611E+02 -0.57604166439E+02  0.41307112915E+02  0.94194310098E+02  0.00000000000E+00 0. -1.
        -14    1    6    6    0    0  0.20464007007E+02 -0.36441487268E+02  0.87852457051E+00  0.41803461369E+02  0.00000000000E+00 0.  1.
</event>
<event>
12    1  0.9017558E-003  0.1731474E+03  0.7818608E-02  0.1175075E+00
         21   -1    0    0  503  502  0.00000000000E+00  0.00000000000E+00  0.23430493622E+04  0.23430493622E+04  0.00000000000E+00 0.  1.
         21   -1    0    0  501  503 -0.00000000000E+00 -0.00000000000E+00 -0.14021229126E+02  0.14021229126E+02  0.00000000000E+00 0.  1.
          6    2    1    2  501    0 -0.17509969954E+02  0.11837741281E+02  0.79169507611E+03  0.81001760312E+03  0.17000203726E+03 0.  0.
         24    2    3    3    0    0 -0.83836397341E+01  0.28658928613E+02  0.18547660960E+03  0.20347893051E+03  0.78169577501E+02 0.  0.
         -6    2    1    2    0  502  0.17509969954E+02 -0.11837741281E+02  0.15373330570E+04  0.15470529882E+04  0.17185252136E+03 0.  0.
        -24    2    5    5    0    0 -0.33411384416E+02  0.43795385190E+02  0.97523441340E+03  0.97989780292E+03  0.77994786486E+02 0.  0.
          5    1    3    3  501    0 -0.91263302200E+01 -0.16821187333E+02  0.60621846650E+03  0.60653867261E+03  0.47000000000E+01 0. -1.
        -11    1    4    4    0    0 -0.28381931692E+02  0.99341675771E+01  0.20857792758E+02  0.36596027800E+02  0.00000000000E+00 0.  1.
         12    1    4    4    0    0  0.19998291957E+02  0.18724761036E+02  0.16461881685E+03  0.16688290271E+03  0.00000000000E+00 0. -1.
         -5    1    5    5    0  502  0.50921354370E+02 -0.55633126471E+02  0.56209864357E+03  0.56715518529E+03  0.47000000000E+01 0.  1.
         11    1    6    6    0    0  0.24974010005E+02  0.20287312145E+02  0.29033896841E+03  0.29211640280E+03  0.00000000000E+00 0. -1.
        -12    1    6    6    0    0 -0.58385394421E+02  0.23508073045E+02  0.68489544499E+03  0.68778140011E+03  0.00000000000E+00 0.  1.
</event>
<event>
12    1  0.9017558E-003  0.2065283E+03  0.7818608E-02  0.1144478E+00
         21   -1    0    0  501  502  0.00000000000E+00  0.00000000000E+00  0.46429809738E+03  0.46429809738E+03  0.00000000000E+00 0.  1.
         21   -1    0    0  502  503 -0.00000000000E+00 -0.00000000000E+00 -0.96601571415E+02  0.96601571415E+02  0.00000000000E+00 0.  1.
          6    2    1    2  501    0  0.85343230546E+02  0.75166581476E+02  0.24753701011E+03  0.32195986353E+03  0.17161031548E+03 0.  0.
         24    2    3    3    0    0  0.90252042554E+02  0.70620900924E+02  0.94545392091E+02  0.16874992641E+03  0.80031016902E+02 0.  0.
         -6    2    1    2    0  503 -0.85343230546E+02 -0.75166581476E+02  0.12015951585E+03  0.23893980526E+03  0.17239616967E+03 0.  0.
        -24    2    5    5    0    0 -0.61048797829E+02  0.19571395585E+02  0.34325055662E+02  0.10872786912E+03  0.80830346002E+02 0.  0.
          5    1    3    3  501    0 -0.49088120080E+01  0.45456805519E+01  0.15299161802E+03  0.15320993711E+03  0.47000000000E+01 0. -1.
        -11    1    4    4    0    0  0.27703772397E+02  0.43428629968E+02  0.85679602683E+02  0.99972692380E+02  0.00000000000E+00 0.  1.
         12    1    4    4    0    0  0.62548270157E+02  0.27192270957E+02  0.88657894080E+01  0.68777234033E+02  0.00000000000E+00 0. -1.
         -5    1    5    5    0  503 -0.24294432718E+02 -0.94737977062E+02  0.85834460193E+02  0.13021193615E+03  0.47000000000E+01 0.  1.
         11    1    6    6    0    0 -0.61338578091E+02  0.33450206126E+02  0.51389065752E+02  0.86730464838E+02  0.00000000000E+00 0. -1.
        -12    1    6    6    0    0  0.28978026242E+00 -0.13878810540E+02 -0.17064010090E+02  0.21997404278E+02  0.00000000000E+00 0.  1.
</event>
<event>
12    1  0.9017558E-003  0.2542000E+03  0.7818608E-02  0.1111835E+00
         21   -1    0    0  501  502  0.00000000000E+00  0.00000000000E+00  0.12399619498E+04  0.12399619498E+04  0.00000000000E+00 0.  1.
         21   -1    0    0  502  503 -0.00000000000E+00 -0.00000000000E+00 -0.50615167887E+02  0.50615167887E+02  0.00000000000E+00 0.  1.
          6    2    1    2  501    0  0.15885561456E+03  0.97190325118E+02  0.58342848094E+03  0.63349671768E+03  0.16201306545E+03 0.  0.
         24    2    3    3    0    0  0.17611702277E+03  0.80871898498E+02  0.56620349831E+03  0.60378077437E+03  0.80045938818E+02 0.  0.
         -6    2    1    2    0  503 -0.15885561456E+03 -0.97190325118E+02  0.60591830100E+03  0.65708040003E+03  0.17302196115E+03 0.  0.
        -24    2    5    5    0    0 -0.68005722611E+02 -0.78012865791E+02  0.20443821643E+03  0.24497625527E+03  0.86646383516E+02 0.  0.
          5    1    3    3  501    0 -0.17261408210E+02  0.16318426620E+02  0.17224982628E+02  0.29715943318E+02  0.47000000000E+01 0. -1.
        -11    1    4    4    0    0  0.24563421665E+02 -0.38214390485E+01  0.24367598888E+02  0.34810127203E+02  0.00000000000E+00 0.  1.
         12    1    4    4    0    0  0.15155360110E+03  0.84693337547E+02  0.54183589942E+03  0.56897064716E+03  0.00000000000E+00 0. -1.
         -5    1    5    5    0  503 -0.90849891945E+02 -0.19177459327E+02  0.40148008458E+03  0.41210414475E+03  0.47000000000E+01 0.  1.
         13    1    6    6    0    0 -0.67060537966E+02 -0.11511143446E+02  0.93656200512E+02  0.11576314642E+03  0.00000000000E+00 0. -1.
        -14    1    6    6    0    0 -0.94518464483E+00 -0.66501722345E+02  0.11078201591E+03  0.12921310885E+03  0.00000000000E+00 0.  1.
</event>
<event>
12    1  0.9017558E-003  0.2396754E+03  0.7818608E-02  0.1120646E+00
         21   -1    0    0  501  502  0.00000000000E+00  0.00000000000E+00  0.48037692927E+03  0.48037692927E+03  0.00000000000E+00 0. -1.
         21   -1    0    0  502  503 -0.00000000000E+00 -0.00000000000E+00 -0.14648352552E+03  0.14648352552E+03  0.00000000000E+00 0. -1.
          6    2    1    2  501    0 -0.31811962654E+02 -0.15732411284E+03  0.30694777139E+03  0.38943708403E+03  0.17799278245E+03 0.  0.
         24    2    3    3    0    0  0.24225684270E+02 -0.25189134648E+02  0.61047921727E+02  0.10467631356E+03  0.77517130945E+02 0.  0.
         -6    2    1    2    0  503  0.31811962654E+02  0.15732411284E+03  0.26945632362E+02  0.23742337076E+03  0.17286096272E+03 0.  0.
        -24    2    5    5    0    0  0.47998573923E+02  0.15934197513E+03  0.64736155561E+02  0.19599521854E+03  0.80806111890E+02 0.  0.
          5    1    3    3  501    0 -0.56037646924E+02 -0.13213497819E+03  0.24589984967E+03  0.28476077048E+03  0.47000000000E+01 0. -1.
        -11    1    4    4    0    0  0.24373335753E+02 -0.26154915708E+02  0.78991987519E+02  0.86705669962E+02  0.00000000000E+00 0.  1.
         12    1    4    4    0    0 -0.14765148294E+00  0.96578106061E+00 -0.17944065792E+02  0.17970643594E+02  0.00000000000E+00 0. -1.
         -5    1    5    5    0  503 -0.16186611269E+02 -0.20178622849E+01 -0.37790523199E+02  0.41428152219E+02  0.47000000000E+01 0.  1.
         11    1    6    6    0    0 -0.58661175456E+01  0.11278352743E+03  0.48842520398E+02  0.12304522418E+03  0.00000000000E+00 0. -1.
        -12    1    6    6    0    0  0.53864691469E+02  0.46558447699E+02  0.15893635163E+02  0.72949994365E+02  0.00000000000E+00 0.  1.
</event>
<event>
12    1  0.9017558E-003  0.2025769E+03  0.7818608E-02  0.1147596E+00
         21   -1    0    0  503  502  0.00000000000E+00  0.00000000000E+00  0.20146293227E+03  0.20146293227E+03  0.00000000000E+00 0.  1.
         21   -1    0    0  501  503 -0.00000000000E+00 -0.00000000000E+00 -0.20641571759E+03  0.20641571759E+03  0.00000000000E+00 0.  1.
          6    2    1    2  501    0 -0.39702595831E+02  0.99492462913E+02  0.21195964695E+02  0.20368271760E+03  0.17193700660E+03 0.  0.
         24    2    3    3    0    0 -0.77311835288E+02  0.52114156433E+02  0.52468904181E+02  0.13542405104E+03  0.83028203140E+02 0.  0.
         -6    2    1    2    0  502  0.39702595831E+02 -0.99492462913E+02 -0.26148750008E+02  0.20419593226E+03  0.17186382788E+03 0.  0.
        -24    2    5    5    0    0  0.30718564551E+02 -0.12735118510E+03  0.14205098303E+02  0.15412254318E+03  0.79937594061E+02 0.  0.
          5    1    3    3  501    0  0.37609239457E+02  0.47378306479E+02 -0.31272939486E+02  0.68258666567E+02  0.47000000000E+01 0. -1.
        -13    1    4    4    0    0 -0.21836648614E+02  0.62040978387E+02  0.14156366431E+02  0.67277967660E+02  0.00000000000E+00 0.  1.
         14    1    4    4    0    0 -0.55475186674E+02 -0.99268219541E+01  0.38312537750E+02  0.68146083376E+02  0.00000000000E+00 0. -1.
         -5    1    5    5    0  502  0.89840312797E+01  0.27858722189E+02 -0.40353848311E+02  0.50073389076E+02  0.47000000000E+01 0.  1.
         13    1    6    6    0    0  0.29130757550E+02 -0.57655149895E+02  0.44156705496E+02  0.78246610055E+02  0.00000000000E+00 0. -1.
        -14    1    6    6    0    0  0.15878070014E+01 -0.69696035207E+02 -0.29951607192E+02  0.75875933128E+02  0.00000000000E+00 0.  1.
</event>
<event>
12    1  0.9017558E-003  0.1724565E+03  0.7818608E-02  0.1175602E+00
         21   -1    0    0  503  502  0.00000000000E+00  0.00000000000E+00  0.56157443888E+02  0.56157443888E+02  0.00000000000E+00 0.  1.
         21   -1    0    0  501  503 -0.00000000000E+00 -0.00000000000E+00 -0.54576464931E+03  0.54576464931E+03  0.00000000000E+00 0.  1.
          6    2    1    2  501    0  0.91733717101E+01  0.32108430460E+01 -0.30268973016E+03  0.34837095547E+03  0.17218243118E+03 0.  0.
         24    2    3    3    0    0  0.72092892898E+01 -0.62258101150E+02 -0.21310749907E+03  0.23729842780E+03  0.83472706127E+02 0.  0.
         -6    2    1    2    0  502 -0.91733717101E+01 -0.32108430460E+01 -0.18691747526E+03  0.25355113773E+03  0.17104261640E+03 0.  0.
        -24    2    5    5    0    0  0.42131375134E+02  0.37969120091E+02 -0.66919577834E+02  0.11662213496E+03  0.76849109393E+02 0.  0.
          5    1    3    3  501    0  0.19640824204E+01  0.65468944196E+02 -0.89582231094E+02  0.11107252766E+03  0.47000000000E+01 0. -1.
        -13    1    4    4    0    0  0.18443202905E+02  0.11612376046E+02 -0.95552711060E+02  0.98006732431E+02  0.00000000000E+00 0.  1.
         14    1    4    4    0    0 -0.11233913616E+02 -0.73870477195E+02 -0.11755478801E+03  0.13929169537E+03  0.00000000000E+00 0. -1.
         -5    1    5    5    0  502 -0.51304746845E+02 -0.41179963137E+02 -0.11999789743E+03  0.13692900277E+03  0.47000000000E+01 0.  1.
         11    1    6    6    0    0 -0.12977470779E+01 -0.21149496696E+02 -0.84384555545E+01  0.22807737506E+02  0.00000000000E+00 0. -1.
        -12    1    6    6    0    0  0.43429122212E+02  0.59118616788E+02 -0.58481122279E+02  0.93814397456E+02  0.00000000000E+00 0.  1.
</event>
<event>
12    1  0.9017558E-003  0.1860240E+03  0.7818608E-02  0.1162178E+00
         21   -1    0    0  501  502  0.00000000000E+00  0.00000000000E+00  0.28672065724E+02  0.28672065724E+02  0.00000000000E+00 0. -1.
         21   -1    0    0  502  503 -0.00000000000E+00 -0.00000000000E+00 -0.12702587761E+04  0.12702587761E+04  0.00000000000E+00 0.  1.
          6    2    1    2  501    0  0.68057911116E+02  0.11326660495E+02 -0.47376501843E+03  0.50897762416E+03  0.17275635069E+03 0.  0.
         24    2    3    3    0    0  0.23943976210E+02  0.65075157258E+02 -0.35958169709E+03  0.37520594917E+03  0.81684865922E+02 0.  0.
         -6    2    1    2    0  503 -0.68057911116E+02 -0.11326660495E+02 -0.76782169191E+03  0.78995321763E+03  0.17238260636E+03 0.  0.
        -24    2    5    5    0    0 -0.11210013562E+03 -0.20858106355E+02 -0.54174465305E+03  0.55938113888E+03  0.80115469293E+02 0.  0.
          5    1    3    3  501    0  0.44113934906E+02 -0.53748496763E+02 -0.11418332134E+03  0.13377167499E+03  0.47000000000E+01 0. -1.
        -11    1    4    4    0    0  0.45817330866E+02  0.45255939064E+02 -0.14571022701E+03  0.15930724429E+03  0.00000000000E+00 0.  1.
         12    1    4    4    0    0 -0.21873354655E+02  0.19819218194E+02 -0.21387147009E+03  0.21589870488E+03  0.00000000000E+00 0. -1.
         -5    1    5    5    0  503  0.44042224506E+02  0.95314458593E+01 -0.22607703886E+03  0.23057207875E+03  0.47000000000E+01 0.  1.
         13    1    6    6    0    0 -0.30556964933E+02 -0.10315421985E+02 -0.42188329175E+02  0.53103588911E+02  0.00000000000E+00 0. -1.
        -14    1    6    6    0    0 -0.81543170689E+02 -0.10542684370E+02 -0.49955632387E+03  0.50627754997E+03  0.00000000000E+00 0.  1.
</event>
<event>
12    1  0.9017558E-003  0.1828031E+03  0.7818608E-02  0.1165183E+00
         21   -1    0    0  503  502  0.00000000000E+00  0.00000000000E+00  0.36787652226E+02  0.36787652226E+02  0.00000000000E+00 0.  1.
         21   -1    0    0  501  503 -0.00000000000E+00 -0.00000000000E+00 -0.11724495596E+04  0.11724495596E+04  0.00000000000E+00 0. -1.
          6    2    1    2  501    0  0.59857205286E+02  0.20287132871E+01 -0.85518529739E+03  0.87444759622E+03  0.17242304070E+03 0.  0.
         24    2    3    3    0    0  0.33965555642E+02 -0.65886257186E+02 -0.46674977292E+03  0.47924250085E+03  0.79519596625E+02 0.  0.
         -6    2    1    2    0  502 -0.59857205286E+02 -0.20287132871E+01 -0.28047660996E+03  0.33478961558E+03  0.17271351211E+03 0.  0.
        -24    2    5    5    0    0 -0.97832862357E+02  0.26565532353E+02 -0.16224725600E+03  0.20727470840E+03  0.79759865843E+02 0.  0.
          5    1    3    3  501    0  0.25891649644E+02  0.67914970473E+02 -0.38843552447E+03  0.39520509537E+03  0.47000000000E+01 0. -1.
        -13    1    4    4    0    0  0.46925972985E+02 -0.46927015190E+02 -0.18472631144E+03  0.19628551101E+03  0.00000000000E+00 0.  1.
         14    1    4    4    0    0 -0.12960417343E+02 -0.18959241996E+02 -0.28202346148E+03  0.28295698984E+03  0.00000000000E+00 0. -1.
         -5    1    5    5    0  502  0.37975657071E+02 -0.28594245640E+02 -0.11822935397E+03  0.12751490718E+03  0.47000000000E+01 0.  1.
         11    1    6    6    0    0 -0.54714096769E+02  0.18589606996E+02 -0.15147162471E+03  0.16211989071E+03  0.00000000000E+00 0. -1.
        -12    1    6    6    0    0 -0.43118765588E+02  0.79759253576E+01 -0.10775631293E+02  0.45154817693E+02  0.00000000000E+00 0.  1.
</event>
<event>
12    1  0.9017558E-003  0.2261905E+03  0.7818608E-02  0.1129532E+00
         21   -1    0    0  503  502  0.00000000000E+00  0.00000000000E+00  0.15858409429E+03  0.15858409429E+03  0.00000000000E+00 0.  1.
         21   -1    0    0  501  503 -0.00000000000E+00 -0.00000000000E+00 -0.34139863064E+03  0.34139863064E+03  0.00000000000E+00 0. -1.
          6    2    1    2  501    0 -0.14612240822E+03  0.90233255614E+01 -0.15204577040E+03  0.27170904383E+03  0.17109853774E+03 0.  0.
         24    2    3    3    0    0 -0.88497356772E+02 -0.32173847038E+02 -0.15866792640E+03  0.20040829675E+03  0.78237049714E+02 0.  0.
         -6    2    1    2    0  502  0.14612240822E+03 -0.90233255614E+01 -0.30768765949E+02  0.22827368109E+03  0.17242093241E+03 0.  0.
        -24    2    5    5    0    0  0.44704984676E+02  0.27632351466E+02 -0.62342235092E+02  0.11580988065E+03  0.82239234418E+02 0.  0.
          5    1    3    3  501    0 -0.57625051447E+02  0.41197172599E+02  0.66221560079E+01  0.71300747083E+02  0.47000000000E+01 0. -1.
        -13    1    4    4    0    0 -0.16646817255E+02 -0.35149759791E+02 -0.18935523547E+02  0.43257094101E+02  0.00000000000E+00 0.  1.
         14    1    4    4    0    0 -0.71850539518E+02  0.29759127531E+01 -0.13973240286E+03  0.15715120265E+03  0.00000000000E+00 0. -1.
         -5    1    5    5    0  502  0.10141742354E+03 -0.36655677028E+02  0.31573469142E+02  0.11246380044E+03  0.47000000000E+01 0.  1.
         13    1    6    6    0    0  0.25291734172E+02 -0.27941445857E+02 -0.32720516180E+02  0.49910203297E+02  0.00000000000E+00 0. -1.
        -14    1    6    6    0    0  0.19413250504E+02  0.55573797324E+02 -0.29621718911E+02  0.65899677354E+02  0.00000000000E+00 0.  1.
</event>
<event>
12    1  0.9017558E-003  0.2016002E+03  0.7818608E-02  0.1149386E+00
         21   -1    0    0  503  502  0.00000000000E+00  0.00000000000E+00  0.71041500292E+03  0.71041500292E+03  0.00000000000E+00 0.  1.
         21   -1    0    0  501  503 -0.00000000000E+00 -0.00000000000E+00 -0.77804575495E+02  0.77804575495E+02  0.00000000000E+00 0.  1.
          6    2    1    2  501    0  0.34905062593E+02 -0.96073529505E+02  0.10981715457E+03  0.22957010916E+03  0.17376461411E+03 0.  0.
         24    2    3    3    0    0 -0.38935496084E+02 -0.92282269811E+02  0.75657235257E+02  0.14798707267E+03  0.78384732272E+02 0.  0.
         -6    2    1    2    0  502 -0.34905062593E+02  0.96073529505E+02  0.52279327285E+03  0.55864946925E+03  0.16830905172E+03 0.  0.
        -24    2    5    5    0    0 -0.57389104064E+02  0.17681776601E+02  0.17889840711E+03  0.20518579683E+03  0.80563122225E+02 0.  0.
          5    1    3    3  501    0  0.73840558677E+02 -0.37912596947E+01  0.34159919315E+02  0.81583036493E+02  0.47000000000E+01 0. -1.
        -11    1    4    4    0    0  0.63702197563E+01 -0.79008721833E+02  0.54866470434E+02  0.96401698135E+02  0.00000000000E+00 0.  1.
         12    1    4    4    0    0 -0.45305715841E+02 -0.13273547978E+02  0.20790764823E+02  0.51585374532E+02  0.00000000000E+00 0. -1.
         -5    1    5    5    0  502  0.22484041472E+02  0.78391752904E+02  0.34389486573E+03  0.35346367242E+03  0.47000000000E+01 0.  1.
         13    1    6    6    0    0  0.77497583798E+00  0.32459691778E+02  0.28301834934E+02  0.43072334955E+02  0.00000000000E+00 0. -1.
        -14    1    6    6    0    0 -0.58164079902E+02 -0.14777915177E+02  0.15059657218E+03  0.16211346187E+03  0.00000000000E+00 0.  1.
</event>
<event>
12    1  0.9017558E-003  0.1748322E+03  0.7818608E-02  0.1172972E+00
         21   -1    0    0  503  502  0.00000000000E+00  0.00000000000E+00  0.81247470628E+03  0.81247470628E+03  0.00000000000E+00 0. -1.
         21   -1    0    0  501  503 -0.00000000000E+00 -0.00000000000E+00 -0.72848735927E+02  0.72848735927E+02  0.00000000000E+00 0. -1.
          6    2    1    2  501    0  0.33882423090E+02 -0.11005647374E+02  0.61877465532E+02  0.18545922952E+03  0.17116413820E+03 0.  0.
         24    2    3    3    0    0 -0.34482059977E+02 -0.22411279313E+00 -0.83570174437E+01  0.86742885225E+02  0.79154442136E+02 0.  0.
         -6    2    1    2    0  502 -0.33882423090E+02  0.11005647374E+02  0.67774850482E+03  0.69986421269E+03  0.17087345475E+03 0.  0.
        -24    2    5    5    0    0  0.76306923765E+01 -0.17317601403E+02  0.60973783511E+03  0.61517013750E+03  0.79346983046E+02 0.  0.
          5    1    3    3  501    0  0.68364483067E+02 -0.10781534580E+02  0.70234482976E+02  0.98716344299E+02  0.47000000000E+01 0. -1.
        -13    1    4    4    0    0  0.14817925356E+02  0.10114208658E+02  0.21644356701E+02  0.28113098471E+02  0.00000000000E+00 0.  1.
         14    1    4    4    0    0 -0.49299985334E+02 -0.10338321451E+02 -0.30001374145E+02  0.58629786754E+02  0.00000000000E+00 0. -1.
         -5    1    5    5    0  502 -0.41513115466E+02  0.28323248777E+02  0.68010669711E+02  0.84694075185E+02  0.47000000000E+01 0.  1.
         11    1    6    6    0    0 -0.11786444420E+02 -0.29749699333E+02  0.10183446975E+03  0.10674373102E+03  0.00000000000E+00 0. -1.
        -12    1    6    6    0    0  0.19417136797E+02  0.12432097930E+02  0.50790336537E+03  0.50842640648E+03  0.00000000000E+00 0.  1.
</event>
<event>
12    1  0.9017558E-003  0.1770205E+03  0.7818608E-02  0.1170772E+00
         21   -1    0    0  501  502  0.00000000000E+00  0.00000000000E+00  0.15568565178E+02  0.15568565178E+02  0.00000000000E+00 0. -1.
         21   -1    0    0  502  503 -0.00000000000E+00 -0.00000000000E+00 -0.20956957468E+04  0.20956957468E+04  0.00000000000E+00 0.  1.
          6    2    1    2  501    0  0.24134674079E+02  0.30024361726E+02 -0.12537346225E+04  0.12661701147E+04  0.17277821340E+03 0.  0.
         24    2    3    3    0    0 -0.23177019983E+01  0.69542679673E+02 -0.11038667242E+04  0.11088681675E+04  0.78900647332E+02 0.  0.
         -6    2    1    2    0  503 -0.24134674079E+02 -0.30024361726E+02 -0.82639255912E+03  0.84509419724E+03  0.17255606519E+03 0.  0.
        -24    2    5    5    0    0  0.13410948020E+02 -0.15722105993E+02 -0.77658406501E+03  0.78092875215E+03  0.79623286497E+02 0.  0.
          5    1    3    3  501    0  0.26452376077E+02 -0.39518317946E+02 -0.14986789831E+03  0.15730194722E+03  0.47000000000E+01 0. -1.
        -11    1    4    4    0    0  0.20791580067E+02  0.66193685034E+02 -0.10002253276E+04  0.10026288444E+04  0.00000000000E+00 0.  1.
         12    1    4    4    0    0 -0.23109282065E+02  0.33489946393E+01 -0.10364139661E+03  0.10623932311E+03  0.00000000000E+00 0. -1.
         -5    1    5    5    0  503 -0.37545622099E+02 -0.14302255734E+02 -0.49808494111E+02  0.64165445089E+02  0.47000000000E+01 0.  1.
         13    1    6    6    0    0 -0.22722933249E+02  0.19831438532E+02 -0.22335217468E+03  0.22537926166E+03  0.00000000000E+00 0. -1.
        -14    1    6    6    0    0  0.36133881270E+02 -0.35553544525E+02 -0.55323189033E+03  0.55554949049E+03  0.00000000000E+00 0.  1.
</event>
<event>
12    1  0.9017558E-003  0.2337909E+03  0.7818608E-02  0.1124072E+00
         21   -1    0    0  501  502  0.00000000000E+00  0.00000000000E+00  0.13443555004E+04  0.13443555004E+04  0.00000000000E+00 0. -1.
         21   -1    0    0  502  503 -0.00000000000E+00 -0.00000000000E+00 -0.42200422435E+02  0.42200422435E+02  0.00000000000E+00 0. -1.
          6    2    1    2  501    0 -0.94432910306E+02  0.12647132085E+03  0.78617398849E+03  0.82008025298E+03  0.17189971380E+03 0.  0.
         24    2    3    3    0    0  0.15470364462E+02  0.51485055538E+02  0.32124645099E+03  0.33646741722E+03  0.84386002716E+02 0.  0.
         -6    2    1    2    0  503  0.94432910306E+02 -0.12647132085E+03  0.51598108951E+03  0.56647566988E+03  0.17246921550E+03 0.  0.
        -24    2    5    5    0    0  0.12049406913E+03 -0.78713509374E+02  0.45933795494E+03  0.48779576616E+03  0.78985539075E+02 0.  0.
          5    1    3    3  501    0 -0.10990327477E+03  0.74986265312E+02  0.46492753750E+03  0.48361283576E+03  0.47000000000E+01 0. -1.
        -13    1    4    4    0    0 -0.70087521336E+01  0.67192621892E+02  0.17332860589E+03  0.18602896727E+03  0.00000000000E+00 0.  1.
         14    1    4    4    0    0  0.22479116596E+02 -0.15707566354E+02  0.14791784511E+03  0.15043844995E+03  0.00000000000E+00 0. -1.
         -5    1    5    5    0  503 -0.26061158825E+02 -0.47757811476E+02  0.56643134563E+02  0.78679903720E+02  0.47000000000E+01 0.  1.
         13    1    6    6    0    0  0.32612690727E+02 -0.34029315226E+02  0.59097474248E+02  0.75591622245E+02  0.00000000000E+00 0. -1.
        -14    1    6    6    0    0  0.87881378404E+02 -0.44684194148E+02  0.40024048070E+03  0.41220414392E+03  0.00000000000E+00 0.  1.
</event>
<event>
12    1  0.9017558E-003  0.1740980E+03  0.7818608E-02  0.1176709E+00
         21   -1    0    0  503  502  0.00000000000E+00  0.00000000000E+00  0.38507535663E+02  0.38507535663E+02  0.00000000000E+00 0. -1.
         21   -1    0    0  501  503 -0.00000000000E+00 -0.00000000000E+00 -0.79812833935E+03  0.79812833935E+03  0.00000000000E+00 0. -1.
          6    2    1    2  501    0  0.59447484901E+00  0.24894430661E+02 -0.48512254669E+03  0.51158296607E+03  0.16047791061E+03 0.  0.
         24    2    3    3    0    0 -0.30455903199E+02 -0.23965029265E+02 -0.15812799900E+03  0.17947018851E+03  0.75519532771E+02 0.  0.
         -6    2    1    2    0  502 -0.59447484901E+00 -0.24894430661E+02 -0.27449825700E+03  0.32505290894E+03  0.17230790590E+03 0.  0.
        -24    2    5    5    0    0 -0.29756846063E+02  0.13395413089E+02 -0.26059263423E+03  0.27473380348E+03  0.80655035678E+02 0.  0.
          5    1    3    3  501    0  0.31050378048E+02  0.48859459926E+02 -0.32699454768E+03  0.33211277756E+03  0.47000000000E+01 0. -1.
        -13    1    4    4    0    0 -0.48439416955E+02 -0.36167763429E+02 -0.13395526964E+03  0.14696427624E+03  0.00000000000E+00 0.  1.
         14    1    4    4    0    0  0.17983513755E+02  0.12202734165E+02 -0.24172729365E+02  0.32505912278E+02  0.00000000000E+00 0. -1.
         -5    1    5    5    0  502  0.29162371214E+02 -0.38289843750E+02 -0.13905622763E+02  0.50319105454E+02  0.47000000000E+01 0.  1.
         11    1    6    6    0    0 -0.18984247299E+02  0.39330686433E+02 -0.73120810030E+02  0.85170167314E+02  0.00000000000E+00 0. -1.
        -12    1    6    6    0    0 -0.10772598764E+02 -0.25935273344E+02 -0.18747182420E+03  0.18956363617E+03  0.00000000000E+00 0.  1.
</event>
<event>
12    1  0.9017558E-003  0.1904877E+03  0.7818608E-02  0.1158111E+00
         21   -1    0    0  503  502  0.00000000000E+00  0.00000000000E+00  0.39455622818E+02  0.39455622818E+02  0.00000000000E+00 0.  1.
         21   -1    0    0  501  503 -0.00000000000E+00 -0.00000000000E+00 -0.10564728431E+04  0.10564728431E+04  0.00000000000E+00 0.  1.
          6    2    1    2  501    0 -0.64840128309E+02  0.50042995806E+02 -0.70661452642E+03  0.73173702388E+03  0.17154136382E+03 0.  0.
         24    2    3    3    0    0 -0.83246467372E+02  0.55614367554E+02 -0.69983246510E+03  0.71081048913E+03  0.73913057351E+02 0.  0.
         -6    2    1    2    0  502  0.64840128309E+02 -0.50042995806E+02 -0.31040269385E+03  0.36419144203E+03  0.17197973842E+03 0.  0.
        -24    2    5    5    0    0  0.10829181913E+02 -0.83705960994E+02 -0.26513498176E+03  0.28595057474E+03  0.65933402418E+02 0.  0.
          5    1    3    3  501    0  0.18406339063E+02 -0.55713717481E+01 -0.67820613254E+01  0.20926534751E+02  0.47000000000E+01 0. -1.
        -11    1    4    4    0    0 -0.80425135853E+02  0.12777610929E+02 -0.47020508741E+03  0.47720466683E+03  0.00000000000E+00 0.  1.
         12    1    4    4    0    0 -0.28213315191E+01  0.42836756625E+02 -0.22962737769E+03  0.23360582230E+03  0.00000000000E+00 0. -1.
         -5    1    5    5    0  502  0.54010946396E+02  0.33662965188E+02 -0.45267712087E+02  0.78240867285E+02  0.47000000000E+01 0.  1.
         13    1    6    6    0    0 -0.27753636878E+01 -0.39739973902E+02 -0.41102349647E+02  0.57239595699E+02  0.00000000000E+00 0. -1.
        -14    1    6    6    0    0  0.13604545601E+02 -0.43965987092E+02 -0.22403263212E+03  0.22871097904E+03  0.00000000000E+00 0.  1.
</event>
<event>
12    1  0.9017558E-003  0.1749008E+03  0.7818608E-02  0.1173039E+00
         21   -1    0    0  501  502  0.00000000000E+00  0.00000000000E+00  0.31056851064E+03  0.31056851064E+03  0.00000000000E+00 0.  1.
         21   -1    0    0  502  503 -0.00000000000E+00 -0.00000000000E+00 -0.13187805331E+03  0.13187805331E+03  0.00000000000E+00 0.  1.
          6    2    1    2  501    0  0.22025291700E+02  0.21018576041E+02  0.20156922530E+03  0.26687158172E+03  0.17223064340E+03 0.  0.
         24    2    3    3    0    0  0.67017158297E+00  0.12467749457E+02  0.22173172200E+03  0.23592365669E+03  0.79618599190E+02 0.  0.
         -6    2    1    2    0  503 -0.22025291700E+02 -0.21018576041E+02 -0.22878767964E+02  0.17557498223E+03  0.17139498928E+03 0.  0.
        -24    2    5    5    0    0 -0.46618514096E+02 -0.17923290414E+01 -0.69073360623E+02  0.11962406131E+03  0.85803779611E+02 0.  0.
          5    1    3    3  501    0  0.21355120117E+02  0.85508265842E+01 -0.20162496701E+02  0.30947925031E+02  0.47000000000E+01 0. -1.
        -13    1    4    4    0    0  0.12752550620E+02  0.22453676388E+01 -0.66378517387E+00  0.12965717639E+02  0.00000000000E+00 0.  1.
         14    1    4    4    0    0 -0.12082379037E+02  0.10222381818E+02  0.22239550717E+03  0.22295793905E+03  0.00000000000E+00 0. -1.
         -5    1    5    5    0  503  0.24593222395E+02 -0.19226247000E+02  0.46194592659E+02  0.55950920926E+02  0.47000000000E+01 0.  1.
         11    1    6    6    0    0 -0.12373129019E+02  0.33755946418E+02 -0.15533803276E+01  0.35985708701E+02  0.00000000000E+00 0. -1.
        -12    1    6    6    0    0 -0.34245385077E+02 -0.35548275460E+02 -0.67519980295E+02  0.83638352604E+02  0.00000000000E+00 0.  1.
</event>
<event>
12    1  0.9017558E-003  0.2166075E+03  0.7818608E-02  0.1137566E+00
         21   -1    0    0  503  502  0.00000000000E+00  0.00000000000E+00  0.76580153320E+02  0.76580153320E+02  0.00000000000E+00 0.  1.
         21   -1    0    0  501  503 -0.00000000000E+00 -0.00000000000E+00 -0.59721882580E+03  0.59721882580E+03  0.00000000000E+00 0. -1.
          6    2    1    2  501    0 -0.71764040589E+02 -0.10867966257E+03 -0.27747637889E+03  0.35201130296E+03  0.17308226365E+03 0.  0.
         24    2    3    3    0    0  0.19204923669E+02 -0.26210878669E+02 -0.70976617222E+02  0.11171836851E+03  0.79921676766E+02 0.  0.
         -6    2    1    2    0  502  0.71764040589E+02  0.10867966257E+03 -0.24316229359E+03  0.32178767616E+03  0.16570474021E+03 0.  0.
        -24    2    5    5    0    0 -0.18687293281E+02  0.82072024955E+02 -0.13606001609E+03  0.17902074013E+03  0.80318523440E+02 0.  0.
          5    1    3    3  501    0 -0.90968964258E+02 -0.82468783898E+02 -0.20649976167E+03  0.24029293445E+03  0.47000000000E+01 0. -1.
        -11    1    4    4    0    0  0.75991316066E+01 -0.79891422021E+01  0.17477154061E+02  0.20664561654E+02  0.00000000000E+00 0.  1.
         12    1    4    4    0    0  0.11605792062E+02 -0.18221736466E+02 -0.88453771283E+02  0.91053806858E+02  0.00000000000E+00 0. -1.
         -5    1    5    5    0  502  0.90451333870E+02  0.26607637612E+02 -0.10710227750E+03  0.14276693603E+03  0.47000000000E+01 0.  1.
         11    1    6    6    0    0  0.13807287242E+02 -0.10986636640E+02 -0.23814407934E+02  0.29639051788E+02  0.00000000000E+00 0. -1.
        -12    1    6    6    0    0 -0.32494580523E+02  0.93058661595E+02 -0.11224560816E+03  0.14938168834E+03  0.00000000000E+00 0.  1.
</event>
<event>
12    1  0.9017558E-003  0.1948130E+03  0.7818608E-02  0.1154234E+00
         21   -1    0    0  503  502  0.00000000000E+00  0.00000000000E+00  0.87804156599E+02  0.87804156599E+02  0.00000000000E+00 0.  1.
         21   -1    0    0  501  503 -0.00000000000E+00 -0.00000000000E+00 -0.61105339228E+03  0.61105339228E+03  0.00000000000E+00 0. -1.
          6    2    1    2  501    0 -0.56218233981E+02  0.71933261912E+02 -0.45078946134E+03  0.49100536708E+03  0.17187276702E+03 0.  0.
         24    2    3    3    0    0 -0.52541149853E+02  0.89297694865E+02 -0.45414095659E+03  0.47234077493E+03  0.78276104128E+02 0.  0.
         -6    2    1    2    0  502  0.56218233981E+02 -0.71933261912E+02 -0.72459774345E+02  0.20785218180E+03  0.17209656179E+03 0.  0.
        -24    2    5    5    0    0  0.90679083422E+02 -0.11812305345E+02 -0.21948577855E+02  0.12197115635E+03  0.77672364346E+02 0.  0.
          5    1    3    3  501    0 -0.36770841282E+01 -0.17364432952E+02  0.33514952504E+01  0.18664592143E+02  0.47000000000E+01 0. -1.
        -11    1    4    4    0    0  0.59300732421E+01  0.96877179674E+01 -0.49025379634E+01  0.12371439955E+02  0.00000000000E+00 0.  1.
         12    1    4    4    0    0 -0.58471223095E+02  0.79609976897E+02 -0.44923841863E+03  0.45996933498E+03  0.00000000000E+00 0. -1.
         -5    1    5    5    0  502 -0.34460849440E+02 -0.60120956567E+02 -0.50511196490E+02  0.85881025457E+02  0.47000000000E+01 0.  1.
         13    1    6    6    0    0  0.24733074348E+02  0.32209217571E+02 -0.53165157155E+01  0.40956367058E+02  0.00000000000E+00 0. -1.
        -14    1    6    6    0    0  0.65946009074E+02 -0.44021522916E+02 -0.16632062140E+02  0.81014789290E+02  0.00000000000E+00 0.  1.
</event>
<event>
12    1  0.9017558E-003  0.1920124E+03  0.7818608E-02  0.1157065E+00
         21   -1    0    0  501  502  0.00000000000E+00  0.00000000000E+00  0.29532974507E+03  0.29532974507E+03  0.00000000000E+00 0.  1.
         21   -1    0    0  502  503 -0.00000000000E+00 -0.00000000000E+00 -0.12782262115E+03  0.12782262115E+03  0.00000000000E+00 0.  1.
          6    2    1    2  501    0 -0.83197260491E+02  0.20414959937E+02  0.12154524639E+03  0.22571565791E+03  0.16981094359E+03 0.  0.
         24    2    3    3    0    0 -0.46063661407E+02 -0.42960022800E+02  0.11249773064E+03  0.15155879606E+03  0.79667463897E+02 0.  0.
         -6    2    1    2    0  503  0.83197260491E+02 -0.20414959937E+02  0.45961877533E+02  0.19743670830E+03  0.17184354761E+03 0.  0.
        -24    2    5    5    0    0  0.86563799490E+02 -0.71513198299E+02  0.48088935639E+02  0.14596848583E+03  0.79917608891E+02 0.  0.
          5    1    3    3  501    0 -0.37133599085E+02  0.63374982738E+02  0.90475157514E+01  0.74156861849E+02  0.47000000000E+01 0. -1.
        -13    1    4    4    0    0 -0.36381419443E+02 -0.38327474064E+02  0.12462361153E+03  0.13536486804E+03  0.00000000000E+00 0.  1.
         14    1    4    4    0    0 -0.96822419637E+01 -0.46325487369E+01 -0.12125880894E+02  0.16193928020E+02  0.00000000000E+00 0. -1.
         -5    1    5    5    0  503 -0.33665389983E+01  0.51098238362E+02 -0.21270581059E+01  0.51468222475E+02  0.47000000000E+01 0.  1.
         13    1    6    6    0    0  0.45347245342E+02 -0.42390415554E+02  0.67676175850E+02  0.91833462140E+02  0.00000000000E+00 0. -1.
        -14    1    6    6    0    0  0.41216554148E+02 -0.29122782746E+02 -0.19587240211E+02  0.54135023688E+02  0.00000000000E+00 0.  1.
</event>
<event>
12    1  0.9017558E-003  0.1948601E+03  0.7818608E-02  0.1154752E+00
         21   -1    0    0  503  502  0.00000000000E+00  0.00000000000E+00  0.20297969755E+03  0.20297969755E+03  0.00000000000E+00 0.  1.
         21   -1    0    0  501  503 -0.00000000000E+00 -0.00000000000E+00 -0.19123701159E+03  0.19123701159E+03  0.00000000000E+00 0. -1.
          6    2    1    2  501    0  0.63473078635E+02  0.57146261280E+02 -0.31313603065E+02  0.19465639434E+03  0.17209312371E+03 0.  0.
         24    2    3    3    0    0  0.46750411736E+01  0.12849118179E+02 -0.74340129239E+02  0.10925839640E+03  0.78892246270E+02 0.  0.
         -6    2    1    2    0  502 -0.63473078635E+02 -0.57146261280E+02  0.43056289031E+02  0.19956031481E+03  0.17514550617E+03 0.  0.
        -24    2    5    5    0    0 -0.22125227081E+02  0.26031092037E+02  0.94175539886E+00  0.97463101937E+02  0.91274453764E+02 0.  0.
          5    1    3    3  501    0  0.58798037462E+02  0.44297143102E+02  0.43026526174E+02  0.85397997933E+02  0.47000000000E+01 0. -1.
        -11    1    4    4    0    0 -0.82255203283E+01  0.42105064751E+02 -0.22740538385E+02  0.48555409054E+02  0.00000000000E+00 0.  1.
         12    1    4    4    0    0  0.12900561502E+02 -0.29255946572E+02 -0.51599590854E+02  0.60702987350E+02  0.00000000000E+00 0. -1.
         -5    1    5    5    0  502 -0.41347851554E+02 -0.83177353317E+02  0.42114533632E+02  0.10209721287E+03  0.47000000000E+01 0.  1.
         11    1    6    6    0    0 -0.97813315113E+01 -0.33316328082E+02  0.10090696478E+02  0.36159014345E+02  0.00000000000E+00 0. -1.
        -12    1    6    6    0    0 -0.12343895570E+02  0.59347420119E+02 -0.91489410787E+01  0.61304087592E+02  0.00000000000E+00 0.  1.
</event>
<event>
12    1  0.9017558E-003  0.1791166E+03  0.7818608E-02  0.1169279E+00
         21   -1    0    0  503  502  0.00000000000E+00  0.00000000000E+00  0.20245198264E+04  0.20245198264E+04  0.00000000000E+00 0.  1.
         21   -1    0    0  501  503 -0.00000000000E+00 -0.00000000000E+00 -0.23540206672E+02  0.23540206672E+02  0.00000000000E+00 0.  1.
          6    2    1    2  501    0 -0.15299547553E+02  0.41016209160E+02  0.41140436201E+03  0.44870515982E+03  0.17368467347E+03 0.  0.
         24    2    3    3    0    0  0.47868939981E+02  0.16966818513E+02  0.14068948360E+03  0.16964017384E+03  0.80030928016E+02 0.  0.
         -6    2    1    2    0  502  0.15299547553E+02 -0.41016209160E+02  0.15895752577E+04  0.15993548732E+04  0.17108508140E+03 0.  0.
        -24    2    5    5    0    0 -0.17750337193E+02 -0.71611121693E+02  0.68010060429E+03  0.68875365494E+03  0.80009612078E+02 0.  0.
          5    1    3    3  501    0 -0.63168487534E+02  0.24049390648E+02  0.27071487840E+03  0.27906498597E+03  0.47000000000E+01 0. -1.
        -13    1    4    4    0    0  0.35783504082E+02 -0.22877817688E+02  0.31787733056E+02  0.53050105367E+02  0.00000000000E+00 0.  1.
         14    1    4    4    0    0  0.12085435899E+02  0.39844636200E+02  0.10890175055E+03  0.11659006848E+03  0.00000000000E+00 0. -1.
         -5    1    5    5    0  502  0.33049884746E+02  0.30594912532E+02  0.90947465342E+03  0.91060121830E+03  0.47000000000E+01 0.  1.
         11    1    6    6    0    0  0.10044097474E+02 -0.18340951985E+02  0.34354915944E+02  0.40218586043E+02  0.00000000000E+00 0. -1.
        -12    1    6    6    0    0 -0.27794434667E+02 -0.53270169708E+02  0.64574568834E+03  0.64853506890E+03  0.00000000000E+00 0.  1.
</event>
<event>
12    1  0.9017558E-003  0.2034221E+03  0.7818608E-02  0.1147098E+00
         21   -1    0    0  503  502  0.00000000000E+00  0.00000000000E+00  0.61670163098E+02  0.61670163098E+02  0.00000000000E+00 0.  1.
         21   -1    0    0  501  503 -0.00000000000E+00 -0.00000000000E+00 -0.67924853266E+03  0.67924853266E+03  0.00000000000E+00 0. -1.
          6    2    1    2  501    0 -0.42305264558E+02  0.97323043606E+02 -0.35811193012E+03  0.41185520097E+03  0.17354838472E+03 0.  0.
         24    2    3    3    0    0 -0.83971264930E+02  0.85305490349E+02 -0.18524287161E+03  0.23356813311E+03  0.76882711346E+02 0.  0.
         -6    2    1    2    0  502  0.42305264558E+02 -0.97323043606E+02 -0.25946643944E+03  0.32906349479E+03  0.17233235385E+03 0.  0.
        -24    2    5    5    0    0  0.85890841945E+02 -0.39525296022E+02 -0.19678357862E+03  0.23319111492E+03  0.81944087694E+02 0.  0.
          5    1    3    3  501    0  0.41666000373E+02  0.12017553257E+02 -0.17286905851E+03  0.17828706785E+03  0.47000000000E+01 0. -1.
        -13    1    4    4    0    0 -0.72868875416E+02  0.24402825538E+02 -0.76463353486E+02  0.10840671255E+03  0.00000000000E+00 0.  1.
         14    1    4    4    0    0 -0.11102389514E+02  0.60902664811E+02 -0.10877951813E+03  0.12516142057E+03  0.00000000000E+00 0. -1.
         -5    1    5    5    0  502 -0.43585577387E+02 -0.57797747584E+02 -0.62682860815E+02  0.95872379870E+02  0.47000000000E+01 0.  1.
         13    1    6    6    0    0  0.30814550245E+02 -0.49129078448E+02 -0.14813009695E+03  0.15907774350E+03  0.00000000000E+00 0. -1.
        -14    1    6    6    0    0  0.55076291700E+02  0.96037824265E+01 -0.48653481676E+02  0.74113371422E+02  0.00000000000E+00 0.  1.
</event>
<event>
12    1  0.9017558E-003  0.1828576E+03  0.7818608E-02  0.1165452E+00
         21   -1    0    0  503  502  0.00000000000E+00  0.00000000000E+00  0.20061674241E+04  0.20061674241E+04  0.00000000000E+00 0.  1.
         21   -1    0    0  501  503 -0.00000000000E+00 -0.00000000000E+00 -0.17733157964E+02  0.17733157964E+02  0.00000000000E+00 0.  1.
          6    2    1    2  501    0  0.59791625182E+02 -0.15448878930E+02  0.12548314283E+04  0.12678516238E+04  0.17038814590E+03 0.  0.
         24    2    3    3    0    0 -0.24003572360E+02  0.13451405064E+02  0.43463832398E+03  0.44286939375E+03  0.80409672718E+02 0.  0.
         -6    2    1    2    0  502 -0.59791625182E+02  0.15448878930E+02  0.73360283780E+03  0.75604895821E+03  0.17211390787E+03 0.  0.
        -24    2    5    5    0    0 -0.74961553829E+02 -0.99965277092E+01  0.70867917209E+03  0.71705056636E+03  0.78842759029E+02 0.  0.
          5    1    3    3  501    0  0.83795197542E+02 -0.28900283995E+02  0.82019310433E+03  0.82498223007E+03  0.47000000000E+01 0. -1.
        -11    1    4    4    0    0 -0.74192847331E+01  0.83470970893E+01  0.42005376184E+03  0.42020219258E+03  0.00000000000E+00 0.  1.
         12    1    4    4    0    0 -0.16584287627E+02  0.51043079752E+01  0.14584562136E+02  0.22667201165E+02  0.00000000000E+00 0. -1.
         -5    1    5    5    0  502  0.15169928647E+02  0.25445406639E+02  0.24923665710E+02  0.38998391847E+02  0.47000000000E+01 0.  1.
         13    1    6    6    0    0  0.30347859306E+01  0.17642298822E+02  0.27277211642E+03  0.27335889986E+03  0.00000000000E+00 0. -1.
        -14    1    6    6    0    0 -0.77996339760E+02 -0.27638826531E+02  0.43590705567E+03  0.44369166651E+03  0.00000000000E+00 0.  1.
</event>
<event>
12    1  0.9017558E-003  0.3211888E+03  0.7818608E-02  0.1075150E+00
         21   -1    0    0  501  502  0.00000000000E+00  0.00000000000E+00  0.15636044938E+03  0.15636044938E+03  0.00000000000E+00 0.  1.
         21   -1    0    0  502  503 -0.00000000000E+00 -0.00000000000E+00 -0.70197033197E+03  0.70197033197E+03  0.00000000000E+00 0. -1.
          6    2    1    2  501    0  0.61141612666E+02 -0.26394747285E+03 -0.16670010816E+03  0.36187176946E+03  0.17249836592E+03 0.  0.
         24    2    3    3    0    0  0.10006782114E+03 -0.18886491125E+03 -0.15603519513E+03  0.27649922625E+03  0.80133117199E+02 0.  0.
         -6    2    1    2    0  503 -0.61141612666E+02  0.26394747285E+03 -0.37890977443E+03  0.49645901190E+03  0.17173342164E+03 0.  0.
        -24    2    5    5    0    0  0.73116737903E+01  0.14058890801E+03 -0.28683273302E+03  0.32792575256E+03  0.73780626398E+02 0.  0.
          5    1    3    3  501    0 -0.38926208469E+02 -0.75082561606E+02 -0.10664913027E+02  0.85372543203E+02  0.47000000000E+01 0. -1.
        -11    1    4    4    0    0  0.74476800383E+02 -0.17168533746E+03 -0.15895455941E+03  0.24553859341E+03  0.00000000000E+00 0.  1.
         12    1    4    4    0    0  0.25591020753E+02 -0.17179573784E+02  0.29193642764E+01  0.30960632848E+02  0.00000000000E+00 0. -1.
         -5    1    5    5    0  503 -0.68453286457E+02  0.12335856484E+03 -0.92077041410E+02  0.16853325933E+03  0.47000000000E+01 0.  1.
         11    1    6    6    0    0 -0.94921372075E+00  0.14500292895E+03 -0.24194408270E+03  0.28207036279E+03  0.00000000000E+00 0. -1.
        -12    1    6    6    0    0  0.82608875110E+01 -0.44140209422E+01 -0.44888650323E+02  0.45855389772E+02  0.00000000000E+00 0.  1.
</event>
<event>
12    1  0.9017558E-003  0.2793209E+03  0.7818608E-02  0.1096368E+00
         21   -1    0    0  503  502  0.00000000000E+00  0.00000000000E+00  0.35349726079E+03  0.35349726079E+03  0.00000000000E+00 0.  1.
         21   -1    0    0  501  503 -0.00000000000E+00 -0.00000000000E+00 -0.25815647658E+03  0.25815647658E+03  0.00000000000E+00 0.  1.
          6    2    1    2  501    0  0.16273364234E+03 -0.14800023178E+03 -0.71677299088E+02  0.28620761404E+03  0.16849586398E+03 0.  0.
         24    2    3    3    0    0  0.18989887010E+03 -0.12830426179E+03 -0.69555899893E+02  0.25225954831E+03  0.79204116329E+02 0.  0.
         -6    2    1    2    0  502 -0.16273364234E+03  0.14800023178E+03  0.16701808329E+03  0.32544612333E+03  0.17214479977E+03 0.  0.
        -24    2    5    5    0    0 -0.76832424078E+02  0.21120608820E+02  0.85903894060E+01  0.10499458169E+03  0.67828945796E+02 0.  0.
          5    1    3    3  501    0 -0.27165227759E+02 -0.19695969981E+02 -0.21213991950E+01  0.33948065736E+02  0.47000000000E+01 0. -1.
        -11    1    4    4    0    0  0.36614494179E+02 -0.66352138288E+02 -0.95825064072E+01  0.76387511207E+02  0.00000000000E+00 0.  1.
         12    1    4    4    0    0  0.15328437592E+03 -0.61952123507E+02 -0.59973393486E+02  0.17587203710E+03  0.00000000000E+00 0. -1.
         -5    1    5    5    0  502 -0.85901218262E+02  0.12687962295E+03  0.15842769389E+03  0.22045154164E+03  0.47000000000E+01 0.  1.
         11    1    6    6    0    0 -0.10615408075E+02  0.17550923987E+02 -0.23611190015E+02  0.31276350735E+02  0.00000000000E+00 0. -1.
        -12    1    6    6    0    0 -0.66217016003E+02  0.35696848335E+01  0.32201579421E+02  0.73718230956E+02  0.00000000000E+00 0.  1.
</event>
<event>
12    1  0.9017558E-003  0.2239565E+03  0.7818608E-02  0.1131220E+00
         21   -1    0    0  503  502  0.00000000000E+00  0.00000000000E+00  0.63720207651E+03  0.63720207651E+03  0.00000000000E+00 0. -1.
         21   -1    0    0  501  503 -0.00000000000E+00 -0.00000000000E+00 -0.80670935483E+02  0.80670935483E+02  0.00000000000E+00 0. -1.
          6    2    1    2  501    0  0.24259163187E+02 -0.13928786590E+03  0.21664676103E+03  0.31159644893E+03  0.17368624394E+03 0.  0.
         24    2    3    3    0    0 -0.26507070702E+02 -0.92408295718E+02  0.20724812904E+03  0.24170132115E+03  0.78903889252E+02 0.  0.
         -6    2    1    2    0  502 -0.24259163187E+02  0.13928786590E+03  0.33988438000E+03  0.40627656307E+03  0.17190007954E+03 0.  0.
        -24    2    5    5    0    0  0.41801622434E+02  0.12287609373E+03  0.20987182232E+03  0.25944765305E+03  0.80131097721E+02 0.  0.
          5    1    3    3  501    0  0.50766233888E+02 -0.46879570182E+02  0.93986319892E+01  0.69895127777E+02  0.47000000000E+01 0. -1.
        -13    1    4    4    0    0 -0.16758386386E+02  0.53945078622E+01  0.74354063021E+02  0.76409887561E+02  0.00000000000E+00 0.  1.
         14    1    4    4    0    0 -0.97486843161E+01 -0.97802803580E+02  0.13289406602E+03  0.16529143359E+03  0.00000000000E+00 0. -1.
         -5    1    5    5    0  502 -0.66060785620E+02  0.16411772167E+02  0.13001255768E+03  0.14682891002E+03  0.47000000000E+01 0.  1.
         11    1    6    6    0    0  0.50921021718E+02  0.10419496914E+03  0.11875235669E+03  0.16598694004E+03  0.00000000000E+00 0. -1.
        -12    1    6    6    0    0 -0.91193992842E+01  0.18681124599E+02  0.91119465628E+02  0.93460713008E+02  0.00000000000E+00 0.  1.
</event>
<event>
12    1  0.9017558E-003  0.2059286E+03  0.7818608E-02  0.1146361E+00
         21   -1    0    0  501  502  0.00000000000E+00  0.00000000000E+00  0.33683342115E+03  0.33683342115E+03  0.00000000000E+00 0.  1.
         21   -1    0    0  502  503 -0.00000000000E+00 -0.00000000000E+00 -0.31031635532E+03  0.31031635532E+03  0.00000000000E+00 0.  1.
          6    2    1    2  501    0  0.11239091899E+03 -0.20642254295E+02  0.26560023561E+03  0.33160680542E+03  0.16236307125E+03 0.  0.
         24    2    3    3    0    0  0.32103758017E+02 -0.61429488603E+02  0.12486123599E+03  0.16445662529E+03  0.81556238271E+02 0.  0.
         -6    2    1    2    0  503 -0.11239091899E+03  0.20642254295E+02 -0.23908316978E+03  0.31554297106E+03  0.17131486561E+03 0.  0.
        -24    2    5    5    0    0 -0.46788884972E+02 -0.31052567938E+02 -0.51630934939E+02  0.11027141468E+03  0.79627694426E+02 0.  0.
          5    1    3    3  501    0  0.80287160974E+02  0.40787234307E+02  0.14073899963E+03  0.16715018012E+03  0.47000000000E+01 0. -1.
        -13    1    4    4    0    0 -0.11251406335E+02  0.15176383229E+02  0.19236165672E+02  0.26961951379E+02  0.00000000000E+00 0.  1.
         14    1    4    4    0    0  0.43355164352E+02 -0.76605871831E+02  0.10562507032E+03  0.13749467391E+03  0.00000000000E+00 0. -1.
         -5    1    5    5    0  503 -0.65602034019E+02  0.51694822233E+02 -0.18745223484E+03  0.20527155639E+03  0.47000000000E+01 0.  1.
         13    1    6    6    0    0 -0.59027460442E+02 -0.20531498544E+02 -0.70906335199E+01  0.62897222533E+02  0.00000000000E+00 0. -1.
        -14    1    6    6    0    0  0.12238575470E+02 -0.10521069394E+02 -0.44540301419E+02  0.47374192143E+02  0.00000000000E+00 0.  1.
</event>
<event>
12    1  0.9017558E-003  0.3566966E+03  0.7818608E-02  0.1060497E+00
         21   -1    0    0  503  502  0.00000000000E+00  0.00000000000E+00  0.96120099685E+03  0.96120099685E+03  0.00000000000E+00 0.  1.
         21   -1    0    0  501  503 -0.00000000000E+00 -0.00000000000E+00 -0.14719432401E+03  0.14719432401E+03  0.00000000000E+00 0. -1.
          6    2    1    2  501    0  0.42710177819E+02  0.30253254588E+03  0.22162252853E+03  0.41993930382E+03  0.18407165217E+03 0.  0.
         24    2    3    3    0    0 -0.28874929091E+02  0.25835003427E+03  0.17356294889E+03  0.32294273141E+03  0.81175173585E+02 0.  0.
         -6    2    1    2    0  502 -0.42710177819E+02 -0.30253254588E+03  0.59238414431E+03  0.68845601704E+03  0.17234445848E+03 0.  0.
        -24    2    5    5    0    0 -0.73197219023E+01 -0.29583535397E+03  0.47203737956E+03  0.56274694603E+03  0.79326556560E+02 0.  0.
          5    1    3    3  501    0  0.71585106911E+02  0.44182511612E+02  0.48059579636E+02  0.96996572406E+02  0.47000000000E+01 0. -1.
        -13    1    4    4    0    0 -0.11604891975E+02  0.10577686330E+03  0.11984652251E+03  0.16027041925E+03  0.00000000000E+00 0.  1.
         14    1    4    4    0    0 -0.17270037116E+02  0.15257317097E+03  0.53716426379E+02  0.16267231216E+03  0.00000000000E+00 0. -1.
         -5    1    5    5    0  502 -0.35390455917E+02 -0.66971919056E+01  0.12034676475E+03  0.12570907101E+03  0.47000000000E+01 0.  1.
         13    1    6    6    0    0  0.19188447205E+02 -0.17948301202E+03  0.22550088429E+03  0.28884770542E+03  0.00000000000E+00 0. -1.
        -14    1    6    6    0    0 -0.26508169107E+02 -0.11635234195E+03  0.24653649527E+03  0.27389924061E+03  0.00000000000E+00 0.  1.
</event>
<event>
12    1  0.9017558E-003  0.2532253E+03  0.7818608E-02  0.1111461E+00
         21   -1    0    0  503  502  0.00000000000E+00  0.00000000000E+00  0.45973270504E+03  0.45973270504E+03  0.00000000000E+00 0.  1.
         21   -1    0    0  501  503 -0.00000000000E+00 -0.00000000000E+00 -0.13903721736E+03  0.13903721736E+03  0.00000000000E+00 0. -1.
          6    2    1    2  501    0 -0.78137924410E+01 -0.18159040540E+03  0.14978458865E+03  0.29420822805E+03  0.17631485408E+03 0.  0.
         24    2    3    3    0    0 -0.43527974243E+02 -0.16613602601E+03  0.16478424427E+03  0.25223895009E+03  0.83515130970E+02 0.  0.
         -6    2    1    2    0  502  0.78137924410E+01  0.18159040540E+03  0.17091089903E+03  0.30456169435E+03  0.17467443881E+03 0.  0.
        -24    2    5    5    0    0  0.36747361491E+01  0.16378213599E+03  0.19993285592E+03  0.26994045480E+03  0.77824228271E+02 0.  0.
          5    1    3    3  501    0  0.35714181802E+02 -0.15454379387E+02 -0.14999655618E+02  0.41969277963E+02  0.47000000000E+01 0. -1.
        -13    1    4    4    0    0  0.11576769396E+02 -0.38362368480E+02  0.79515284622E+02  0.89041413924E+02  0.00000000000E+00 0.  1.
         14    1    4    4    0    0 -0.55104743639E+02 -0.12777365753E+03  0.85268959649E+02  0.16319753616E+03  0.00000000000E+00 0. -1.
         -5    1    5    5    0  502  0.41390562919E+01  0.17808269408E+02 -0.29021956890E+02  0.34621239551E+02  0.47000000000E+01 0.  1.
         13    1    6    6    0    0  0.22177149444E+02  0.89604095859E+01  0.15837052776E+02  0.28686706643E+02  0.00000000000E+00 0. -1.
        -14    1    6    6    0    0 -0.18502413295E+02  0.15482172640E+03  0.18409580315E+03  0.24125374816E+03  0.00000000000E+00 0.  1.
</event>
<event>
12    1  0.9017558E-003  0.2029381E+03  0.7818608E-02  0.1147432E+00
         21   -1    0    0  501  502  0.00000000000E+00  0.00000000000E+00  0.69594966982E+03  0.69594966982E+03  0.00000000000E+00 0.  1.
         21   -1    0    0  502  503 -0.00000000000E+00 -0.00000000000E+00 -0.63634162096E+02  0.63634162096E+02  0.00000000000E+00 0.  1.
          6    2    1    2  501    0 -0.80008766374E+02  0.71671341471E+02  0.41848858834E+03  0.46478591691E+03  0.17133320200E+03 0.  0.
         24    2    3    3    0    0 -0.21284788987E+01 -0.81163509090E+01  0.25232651304E+03  0.26462762880E+03  0.79301369264E+02 0.  0.
         -6    2    1    2    0  503  0.80008766374E+02 -0.71671341471E+02  0.21382691939E+03  0.29479791501E+03  0.17217919547E+03 0.  0.
        -24    2    5    5    0    0  0.93964102033E+02 -0.10716594431E+02  0.19178209064E+03  0.22832764305E+03  0.80056507671E+02 0.  0.
          5    1    3    3  501    0 -0.77880287475E+02  0.79787692380E+02  0.16616207529E+03  0.20015828811E+03  0.47000000000E+01 0. -1.
        -11    1    4    4    0    0 -0.14062216392E+02  0.33448853488E+02  0.12485483520E+03  0.13002038918E+03  0.00000000000E+00 0.  1.
         12    1    4    4    0    0  0.11933737493E+02 -0.41565204397E+02  0.12747167785E+03  0.13460723963E+03  0.00000000000E+00 0. -1.
         -5    1    5    5    0  503 -0.13955335659E+02 -0.60954747039E+02  0.22044828747E+02  0.66470271960E+02  0.47000000000E+01 0.  1.
         11    1    6    6    0    0  0.79703781448E+02  0.60572200084E+01  0.19013009272E+03  0.20624944812E+03  0.00000000000E+00 0. -1.
        -12    1    6    6    0    0  0.14260320585E+02 -0.16773814440E+02  0.16519979203E+01  0.22078194926E+02  0.00000000000E+00 0.  1.
</event>
<event>
12    1  0.9017558E-003  0.2985979E+03  0.7818608E-02  0.1086225E+00
         21   -1    0    0  503  502  0.00000000000E+00  0.00000000000E+00  0.15405359613E+03  0.15405359613E+03  0.00000000000E+00 0. -1.
         21   -1    0    0  501  503 -0.00000000000E+00 -0.00000000000E+00 -0.57450177421E+03  0.57450177421E+03  0.00000000000E+00 0. -1.
          6    2    1    2  501    0 -0.18901992850E+03 -0.15432328945E+03 -0.20593852815E+03  0.36089372307E+03  0.16819450329E+03 0.  0.
         24    2    3    3    0    0 -0.17921585819E+03 -0.10159036514E+03 -0.21243423364E+03  0.30666121168E+03  0.80460356786E+02 0.  0.
         -6    2    1    2    0  502  0.18901992850E+03  0.15432328945E+03 -0.21450964992E+03  0.36766164727E+03  0.17209440992E+03 0.  0.
        -24    2    5    5    0    0  0.18568094865E+03  0.75183448697E+02 -0.12902312325E+03  0.25102417720E+03  0.78969649590E+02 0.  0.
          5    1    3    3  501    0 -0.98040703020E+01 -0.52732924315E+02  0.64957054857E+01  0.54232511385E+02  0.47000000000E+01 0. -1.
        -13    1    4    4    0    0 -0.52540977567E+02  0.58917691689E+01 -0.70727726806E+02  0.88304465384E+02  0.00000000000E+00 0.  1.
         14    1    4    4    0    0 -0.12667488063E+03 -0.10748213431E+03 -0.14170650683E+03  0.21835674630E+03  0.00000000000E+00 0. -1.
         -5    1    5    5    0  502  0.33389798441E+01  0.79139840755E+02 -0.85486526671E+02  0.11663747007E+03  0.47000000000E+01 0.  1.
         13    1    6    6    0    0  0.53300291336E+02 -0.13904439346E+02 -0.42010186041E+02  0.69275610580E+02  0.00000000000E+00 0. -1.
        -14    1    6    6    0    0  0.13238065732E+03  0.89087888043E+02 -0.87012937212E+02  0.18174856662E+03  0.00000000000E+00 0.  1.
</event>
<event>
12    1  0.9017558E-003  0.1929735E+03  0.7818608E-02  0.1158336E+00
         21   -1    0    0  501  502  0.00000000000E+00  0.00000000000E+00  0.12547566036E+03  0.12547566036E+03  0.00000000000E+00 0.  1.
         21   -1    0    0  502  503 -0.00000000000E+00 -0.00000000000E+00 -0.40586453131E+03  0.40586453131E+03  0.00000000000E+00 0.  1.
          6    2    1    2  501    0 -0.32958513603E+02  0.76857070436E+02  0.48649535765E+01  0.19303478109E+03  0.17391229411E+03 0.  0.
         24    2    3    3    0    0  0.25264936067E+02 -0.11287747028E+02 -0.16716699708E+02  0.85111953588E+02  0.78732879834E+02 0.  0.
         -6    2    1    2    0  503  0.32958513603E+02 -0.76857070436E+02 -0.28525382453E+03  0.33830541058E+03  0.16151635684E+03 0.  0.
        -24    2    5    5    0    0  0.14848537876E+02 -0.76632848741E+02 -0.29375936312E+03  0.31775168384E+03  0.92620173717E+02 0.  0.
          5    1    3    3  501    0 -0.58223449670E+02  0.88144817464E+02  0.21581653284E+02  0.10792282750E+03  0.47000000000E+01 0. -1.
        -13    1    4    4    0    0  0.25673074366E+02  0.40058100428E+01  0.27792366422E+02  0.38046930137E+02  0.00000000000E+00 0.  1.
         14    1    4    4    0    0 -0.40813829908E+00 -0.15293557071E+02 -0.44509066130E+02  0.47065023451E+02  0.00000000000E+00 0. -1.
         -5    1    5    5    0  503  0.18109975727E+02 -0.22422169496E+00  0.85055385926E+01  0.20553726742E+02  0.47000000000E+01 0.  1.
         11    1    6    6    0    0 -0.28258926982E+02 -0.36406989018E+02 -0.54692179352E+02  0.71521117761E+02  0.00000000000E+00 0. -1.
        -12    1    6    6    0    0  0.43107464858E+02 -0.40225859723E+02 -0.23906718377E+03  0.24623056608E+03  0.00000000000E+00 0.  1.
</event>
<event>
12    1  0.9017558E-003  0.1834429E+03  0.7818608E-02  0.1164520E+00
         21   -1    0    0  503  502  0.00000000000E+00  0.00000000000E+00  0.17651521933E+03  0.17651521933E+03  0.00000000000E+00 0. -1.
         21   -1    0    0  501  503 -0.00000000000E+00 -0.00000000000E+00 -0.22014836647E+03  0.22014836647E+03  0.00000000000E+00 0. -1.
          6    2    1    2  501    0  0.16186391501E+02 -0.64669012033E+02 -0.94469760672E+02  0.20633911483E+03  0.17090118268E+03 0.  0.
         24    2    3    3    0    0  0.45659575973E+02 -0.10760594741E+01 -0.12977856102E+02  0.98748442706E+02  0.86584498646E+02 0.  0.
         -6    2    1    2    0  502 -0.16186391501E+02  0.64669012033E+02  0.50836613527E+02  0.19032447096E+03  0.17086533465E+03 0.  0.
        -24    2    5    5    0    0  0.10677591340E+02  0.10328776755E+03  0.24144659649E+02  0.13603236976E+03  0.84495367630E+02 0.  0.
          5    1    3    3  501    0 -0.29473184471E+02 -0.63592952559E+02 -0.81491904570E+02  0.10759067213E+03  0.47000000000E+01 0. -1.
        -13    1    4    4    0    0  0.65230451416E+02 -0.51600543318E+01 -0.30472955299E+02  0.72181984991E+02  0.00000000000E+00 0.  1.
         14    1    4    4    0    0 -0.19570875443E+02  0.40839948577E+01  0.17495099197E+02  0.26566457715E+02  0.00000000000E+00 0. -1.
         -5    1    5    5    0  502 -0.26863982842E+02 -0.38618755514E+02  0.26691953878E+02  0.54292101206E+02  0.47000000000E+01 0.  1.
         11    1    6    6    0    0  0.14493031850E+02  0.92063062067E+02  0.51313510434E+02  0.10638952826E+03  0.00000000000E+00 0. -1.
        -12    1    6    6    0    0 -0.38154405095E+01  0.11224705479E+02 -0.27168850785E+02  0.29642841503E+02  0.00000000000E+00 0.  1.
</event>
<event>
12    1  0.9017558E-003  0.1839157E+03  0.7818608E-02  0.1165848E+00
         21   -1    0    0  503  502  0.00000000000E+00  0.00000000000E+00  0.34583800390E+03  0.34583800390E+03  0.00000000000E+00 0.  1.
         21   -1    0    0  501  503 -0.00000000000E+00 -0.00000000000E+00 -0.95099597528E+02  0.95099597528E+02  0.00000000000E+00 0.  1.
          6    2    1    2  501    0  0.95413944743E+01  0.33178276547E+02  0.98125367272E+02  0.20194863538E+03  0.17309773941E+03 0.  0.
         24    2    3    3    0    0 -0.52862408375E+02  0.23649600620E+02  0.97061396185E+02  0.13863787556E+03  0.80285790036E+02 0.  0.
         -6    2    1    2    0  502 -0.95413944743E+01 -0.33178276547E+02  0.15261303910E+03  0.23898896604E+03  0.18064647781E+03 0.  0.
        -24    2    5    5    0    0 -0.55526715371E+02 -0.56057206153E+02  0.14733315573E+03  0.18714243939E+03  0.84199806182E+02 0.  0.
          5    1    3    3  501    0  0.62403802849E+02  0.95286759269E+01  0.10639710868E+01  0.63310759824E+02  0.47000000000E+01 0. -1.
        -11    1    4    4    0    0 -0.16621426993E+02 -0.96539673253E+01 -0.93647233780E+01  0.21381509870E+02  0.00000000000E+00 0.  1.
         12    1    4    4    0    0 -0.36240981382E+02  0.33303567945E+02  0.10642611956E+03  0.11725636569E+03  0.00000000000E+00 0. -1.
         -5    1    5    5    0  502  0.45985320896E+02  0.22878929606E+02  0.52798833692E+01  0.51846526656E+02  0.47000000000E+01 0.  1.
         13    1    6    6    0    0 -0.49820775553E+02 -0.16180653636E+02  0.24416891514E+02  0.57793665916E+02  0.00000000000E+00 0. -1.
        -14    1    6    6    0    0 -0.57059398174E+01 -0.39876552517E+02  0.12291626421E+03  0.12934877347E+03  0.00000000000E+00 0.  1.
</event>
<event>
12    1  0.9017558E-003  0.2676350E+03  0.7818608E-02  0.1102859E+00
         21   -1    0    0  501  502  0.00000000000E+00  0.00000000000E+00  0.94483350131E+03  0.94483350131E+03  0.00000000000E+00 0.  1.
         21   -1    0    0  502  503 -0.00000000000E+00 -0.00000000000E+00 -0.76213549083E+02  0.76213549083E+02  0.00000000000E+00 0.  1.
          6    2    1    2  501    0 -0.11102829447E+03 -0.17044355001E+03  0.38232140582E+03  0.46668847171E+03  0.17392580708E+03 0.  0.
         24    2    3    3    0    0 -0.82549141940E+02 -0.17116694418E+03  0.38587170573E+03  0.43759757868E+03  0.80512011357E+02 0.  0.
         -6    2    1    2    0  503  0.11102829447E+03  0.17044355001E+03  0.48629854640E+03  0.55435857868E+03  0.17160673531E+03 0.  0.
        -24    2    5    5    0    0  0.93052655210E+02  0.17868309734E+03  0.31946008307E+03  0.38628663993E+03  0.81093634744E+02 0.  0.
          5    1    3    3  501    0 -0.28479152526E+02  0.72339417211E+00 -0.35502999085E+01  0.29090893028E+02  0.47000000000E+01 0. -1.
        -11    1    4    4    0    0 -0.74760501422E+02 -0.73425949294E+02  0.23948906975E+03  0.26141062934E+03  0.00000000000E+00 0.  1.
         12    1    4    4    0    0 -0.77886405182E+01 -0.97740994890E+02  0.14638263598E+03  0.17618694934E+03  0.00000000000E+00 0. -1.
         -5    1    5    5    0  503  0.17975639256E+02 -0.82395473284E+01  0.16683846333E+03  0.16807193875E+03  0.47000000000E+01 0.  1.
         11    1    6    6    0    0  0.16940218772E+02  0.66363931175E+02  0.17586157927E+03  0.18872847543E+03  0.00000000000E+00 0. -1.
        -12    1    6    6    0    0  0.76112436438E+02  0.11231916616E+03  0.14359850380E+03  0.19755816450E+03  0.00000000000E+00 0.  1.
</event>
<event>
12    1  0.9017558E-003  0.2188188E+03  0.7818608E-02  0.1134911E+00
         21   -1    0    0  503  502  0.00000000000E+00  0.00000000000E+00  0.11852446153E+04  0.11852446153E+04  0.00000000000E+00 0. -1.
         21   -1    0    0  501  503 -0.00000000000E+00 -0.00000000000E+00 -0.46812631150E+02  0.46812631150E+02  0.00000000000E+00 0.  1.
          6    2    1    2  501    0 -0.84914998676E+02 -0.10402561208E+03  0.33953500523E+03  0.40393774780E+03  0.17277094476E+03 0.  0.
         24    2    3    3    0    0  0.14934113045E+02 -0.24712835848E+02  0.88625399848E+02  0.12244515170E+03  0.79401521958E+02 0.  0.
         -6    2    1    2    0  502  0.84914998676E+02  0.10402561208E+03  0.79889697897E+03  0.82811949870E+03  0.17179533215E+03 0.  0.
        -24    2    5    5    0    0  0.74928134742E+02  0.14036604365E+03  0.69618677661E+03  0.71861223827E+03  0.80066656447E+02 0.  0.
          5    1    3    3  501    0 -0.99849111721E+02 -0.79312776230E+02  0.25090960538E+03  0.28149259610E+03  0.47000000000E+01 0. -1.
        -11    1    4    4    0    0 -0.16085941507E+02 -0.39099580316E+02  0.74059683407E+02  0.85278200036E+02  0.00000000000E+00 0.  1.
         12    1    4    4    0    0  0.31020054552E+02  0.14386744467E+02  0.14565716441E+02  0.37166951667E+02  0.00000000000E+00 0. -1.
         -5    1    5    5    0  502  0.99868639344E+01 -0.36340431573E+02  0.10271020235E+03  0.10950726042E+03  0.47000000000E+01 0.  1.
         13    1    6    6    0    0  0.53788946172E+02  0.22389188410E+02  0.22550256147E+03  0.23290756046E+03  0.00000000000E+00 0. -1.
        -14    1    6    6    0    0  0.21139188570E+02  0.11797685524E+03  0.47068421514E+03  0.48570467782E+03  0.00000000000E+00 0.  1.
</event>
<event>
12    1  0.9017558E-003  0.2059303E+03  0.7818608E-02  0.1145456E+00
         21   -1    0    0  503  502  0.00000000000E+00  0.00000000000E+00  0.54359182633E+02  0.54359182633E+02  0.00000000000E+00 0.  1.
         21   -1    0    0  501  503 -0.00000000000E+00 -0.00000000000E+00 -0.10472874955E+04  0.10472874955E+04  0.00000000000E+00 0.  1.
          6    2    1    2  501    0  0.37419104181E+02  0.99505398721E+02 -0.78333717481E+03  0.80995335161E+03  0.17636833226E+03 0.  0.
         24    2    3    3    0    0  0.60821911324E+02  0.10617646070E+03 -0.39724625912E+03  0.42306773592E+03  0.78797037343E+02 0.  0.
         -6    2    1    2    0  502 -0.37419104181E+02 -0.99505398721E+02 -0.20959113811E+03  0.29169332657E+03  0.17278610435E+03 0.  0.
        -24    2    5    5    0    0  0.28827471330E+02 -0.18246852994E+02 -0.13910396074E+03  0.16527302679E+03  0.82469938436E+02 0.  0.
          5    1    3    3  501    0 -0.23402807143E+02 -0.66710619759E+01 -0.38609091569E+03  0.38688561569E+03  0.47000000000E+01 0. -1.
        -13    1    4    4    0    0  0.29092811065E+02  0.42927702983E+01 -0.16339348850E+03  0.16601882911E+03  0.00000000000E+00 0.  1.
         14    1    4    4    0    0  0.31729100259E+02  0.10188369040E+03 -0.23385277061E+03  0.25704890682E+03  0.00000000000E+00 0. -1.
         -5    1    5    5    0  502 -0.66246575511E+02 -0.81258545727E+02 -0.70487177372E+02  0.12642029977E+03  0.47000000000E+01 0.  1.
         11    1    6    6    0    0 -0.14862419058E+02  0.33308020772E+01 -0.10426551071E+03  0.10537211428E+03  0.00000000000E+00 0. -1.
        -12    1    6    6    0    0  0.43689890388E+02 -0.21577655071E+02 -0.34838450023E+02  0.59900912518E+02  0.00000000000E+00 0.  1.
</event>
<event>
12    1  0.9017558E-003  0.1967057E+03  0.7818608E-02  0.1152666E+00
         21   -1    0    0  501  502  0.00000000000E+00  0.00000000000E+00  0.67857668724E+02  0.67857668724E+02  0.00000000000E+00 0. -1.
         21   -1    0    0  502  503 -0.00000000000E+00 -0.00000000000E+00 -0.57107174441E+03  0.57107174441E+03  0.00000000000E+00 0. -1.
          6    2    1    2  501    0 -0.83454944926E+02  0.43930112003E+02 -0.27212951399E+03  0.33546079175E+03  0.17200258092E+03 0.  0.
         24    2    3    3    0    0 -0.15534374891E+02  0.43327513299E+02 -0.24610236365E+03  0.26256998633E+03  0.79107737401E+02 0.  0.
         -6    2    1    2    0  503  0.83454944926E+02 -0.43930112003E+02 -0.23108456170E+03  0.30346862139E+03  0.17262255629E+03 0.  0.
        -24    2    5    5    0    0  0.77117115017E+02 -0.16888104821E+02 -0.48279358991E+02  0.11850573220E+03  0.74030092167E+02 0.  0.
          5    1    3    3  501    0 -0.67920570035E+02  0.60259870393E+00 -0.26027150336E+02  0.72890805413E+02  0.47000000000E+01 0. -1.
        -11    1    4    4    0    0 -0.11201238898E+02 -0.20430587989E+02 -0.10675137756E+03  0.10926451066E+03  0.00000000000E+00 0.  1.
         12    1    4    4    0    0 -0.43331359927E+01  0.63758101289E+02 -0.13935098609E+03  0.15330547567E+03  0.00000000000E+00 0. -1.
         -5    1    5    5    0  503  0.63378299089E+01 -0.27042007183E+02 -0.18280520271E+03  0.18496288919E+03  0.47000000000E+01 0.  1.
         13    1    6    6    0    0  0.33056807357E+02 -0.22359889196E+02 -0.60480411794E+02  0.72461005846E+02  0.00000000000E+00 0. -1.
        -14    1    6    6    0    0  0.44060307660E+02  0.54717843753E+01  0.12201052803E+02  0.46044726352E+02  0.00000000000E+00 0.  1.
</event>
<event>
12    1  0.9017558E-003  0.2673816E+03  0.7818608E-02  0.1103011E+00
         21   -1    0    0  501  502  0.00000000000E+00  0.00000000000E+00  0.10745569552E+04  0.10745569552E+04  0.00000000000E+00 0. -1.
         21   -1    0    0  502  503 -0.00000000000E+00 -0.00000000000E+00 -0.71164719471E+02  0.71164719471E+02  0.00000000000E+00 0. -1.
          6    2    1    2  501    0  0.95075497514E+02 -0.18059129801E+03  0.35098532762E+03  0.44122968487E+03  0.17274364664E+03 0.  0.
         24    2    3    3    0    0  0.69081098518E+02 -0.20511312153E+03  0.31865507258E+03  0.39281105210E+03  0.76914735759E+02 0.  0.
         -6    2    1    2    0  503 -0.95075497514E+02  0.18059129801E+03  0.65240690811E+03  0.70449198980E+03  0.17035733857E+03 0.  0.
        -24    2    5    5    0    0 -0.13152363081E+03  0.15134130558E+03  0.57143810986E+03  0.61088608845E+03  0.80234926505E+02 0.  0.
          5    1    3    3  501    0  0.25994398996E+02  0.24521823516E+02  0.32330255045E+02  0.48418632766E+02  0.47000000000E+01 0. -1.
        -13    1    4    4    0    0  0.38114704355E+02 -0.50142599864E+02  0.14456383804E+03  0.15768866249E+03  0.00000000000E+00 0.  1.
         14    1    4    4    0    0  0.30966394163E+02 -0.15497052167E+03  0.17409123453E+03  0.23512238961E+03  0.00000000000E+00 0. -1.
         -5    1    5    5    0  503  0.36448133292E+02  0.29249992435E+02  0.80968798245E+02  0.93605901348E+02  0.47000000000E+01 0.  1.
         11    1    6    6    0    0 -0.47676126574E+02  0.96078253957E+02  0.21066418043E+03  0.23639678687E+03  0.00000000000E+00 0. -1.
        -12    1    6    6    0    0 -0.83847504232E+02  0.55263051622E+02  0.36077392943E+03  0.37448930158E+03  0.00000000000E+00 0.  1.
</event>
<event>
12    1  0.9017558E-003  0.1947707E+03  0.7818608E-02  0.1154310E+00
         21   -1    0    0  503  502  0.00000000000E+00  0.00000000000E+00  0.10376912170E+03  0.10376912170E+03  0.00000000000E+00 0. -1.
         21   -1    0    0  501  503 -0.00000000000E+00 -0.00000000000E+00 -0.36935503241E+03  0.36935503241E+03  0.00000000000E+00 0. -1.
          6    2    1    2  501    0  0.31422531071E+02  0.85057517378E+02 -0.15897859611E+03  0.25141566701E+03  0.17237600435E+03 0.  0.
         24    2    3    3    0    0 -0.11807056870E+01  0.11670893219E+03 -0.70545943591E+02  0.15188071265E+03  0.66847975289E+02 0.  0.
         -6    2    1    2    0  502 -0.31422531071E+02 -0.85057517378E+02 -0.10660731459E+03  0.22170848710E+03  0.17195167056E+03 0.  0.
        -24    2    5    5    0    0  0.31564329226E+02 -0.62693682349E+02 -0.11373648045E+02  0.10526525230E+03  0.77618353407E+02 0.  0.
          5    1    3    3  501    0  0.32603236758E+02 -0.31651414812E+02 -0.88432652522E+02  0.99534954356E+02  0.47000000000E+01 0. -1.
        -13    1    4    4    0    0  0.30349855564E+02  0.80204435030E+02 -0.51429997959E+02  0.99994548958E+02  0.00000000000E+00 0.  1.
         14    1    4    4    0    0 -0.31530561251E+02  0.36504497160E+02 -0.19115945632E+02  0.51886163696E+02  0.00000000000E+00 0. -1.
         -5    1    5    5    0  502 -0.62986860297E+02 -0.22363835028E+02 -0.95233666550E+02  0.11644323481E+03  0.47000000000E+01 0.  1.
         11    1    6    6    0    0  0.10120664223E+02  0.13123967259E+02  0.14820791475E+02  0.22233358290E+02  0.00000000000E+00 0. -1.
        -12    1    6    6    0    0  0.21443665003E+02 -0.75817649608E+02 -0.26194439519E+02  0.83031894009E+02  0.00000000000E+00 0.  1.
</event>
<event>
12    1  0.9017558E-003  0.2439149E+03  0.7818608E-02  0.1117454E+00
         21   -1    0    0  501  502  0.00000000000E+00  0.00000000000E+00  0.20535594873E+03  0.20535594873E+03  0.00000000000E+00 0. -1.
         21   -1    0    0  502  503 -0.00000000000E+00 -0.00000000000E+00 -0.29749979502E+03  0.29749979502E+03  0.00000000000E+00 0. -1.
          6    2    1    2  501    0 -0.33703540211E+02 -0.16935224810E+03 -0.11901450801E+01  0.24391778813E+03  0.17227407920E+03 0.  0.
         24    2    3    3    0    0  0.39512093040E+02 -0.12633825799E+03 -0.24344704294E+02  0.15577610725E+03  0.78428120168E+02 0.  0.
         -6    2    1    2    0  503  0.33703540211E+02  0.16935224810E+03 -0.90953701217E+02  0.25893795562E+03  0.17017689777E+03 0.  0.
        -24    2    5    5    0    0  0.35875762522E+01  0.11066149395E+03 -0.12647603082E+03  0.18386797622E+03  0.74514490936E+02 0.  0.
          5    1    3    3  501    0 -0.73215633250E+02 -0.43013990104E+02  0.23154559214E+02  0.88141680885E+02  0.47000000000E+01 0. -1.
        -11    1    4    4    0    0  0.40762117363E+02 -0.51987765069E+02  0.20214913532E+02  0.69086327575E+02  0.00000000000E+00 0.  1.
         12    1    4    4    0    0 -0.12500243229E+01 -0.74350492925E+02 -0.44559617826E+02  0.86689779673E+02  0.00000000000E+00 0. -1.
         -5    1    5    5    0  503  0.30115963958E+02  0.58690754144E+02  0.35522329600E+02  0.75069979401E+02  0.47000000000E+01 0.  1.
         13    1    6    6    0    0 -0.11566831699E+01  0.95845739237E+02 -0.54569112026E+02  0.11029746884E+03  0.00000000000E+00 0. -1.
        -14    1    6    6    0    0  0.47442594221E+01  0.14815754717E+02 -0.71906918790E+02  0.73570507374E+02  0.00000000000E+00 0.  1.
</event>
<event>
12    1  0.9017558E-003  0.1800600E+03  0.7818608E-02  0.1167959E+00
         21   -1    0    0  503  502  0.00000000000E+00  0.00000000000E+00  0.80367620051E+02  0.80367620051E+02  0.00000000000E+00 0.  1.
         21   -1    0    0  501  503 -0.00000000000E+00 -0.00000000000E+00 -0.44082775209E+03  0.44082775209E+03  0.00000000000E+00 0.  1.
          6    2    1    2  501    0 -0.33609809725E+02 -0.42702299437E+02 -0.25772162682E+03  0.31388688549E+03  0.17073791104E+03 0.  0.
         24    2    3    3    0    0 -0.64193988887E+02 -0.57492422903E+01 -0.77716557793E+02  0.12754087581E+03  0.77928747273E+02 0.  0.
         -6    2    1    2    0  502  0.33609809725E+02  0.42702299437E+02 -0.10273850522E+03  0.20730848665E+03  0.17166392311E+03 0.  0.
        -24    2    5    5    0    0 -0.38404904711E+02  0.17320622324E+02 -0.16079810115E+02  0.91713642193E+02  0.79861700504E+02 0.  0.
          5    1    3    3  501    0  0.30584179162E+02 -0.36953057147E+02 -0.18000506903E+03  0.18634600968E+03  0.47000000000E+01 0. -1.
        -11    1    4    4    0    0  0.48955770890E+01 -0.27866137207E+02 -0.26255017646E+02  0.38598111734E+02  0.00000000000E+00 0.  1.
         12    1    4    4    0    0 -0.69089565976E+02  0.22116894916E+02 -0.51461540147E+02  0.88942764078E+02  0.00000000000E+00 0. -1.
         -5    1    5    5    0  502  0.72014714437E+02  0.25381677113E+02 -0.86658695106E+02  0.11559484446E+03  0.47000000000E+01 0.  1.
         11    1    6    6    0    0 -0.28074701367E+02 -0.27021593148E+02  0.86309203429E+01  0.39910501614E+02  0.00000000000E+00 0. -1.
        -12    1    6    6    0    0 -0.10330203344E+02  0.44342215472E+02 -0.24710730458E+02  0.51803140579E+02  0.00000000000E+00 0.  1.
</event>
<event>
12    1  0.9017558E-003  0.2314218E+03  0.7818608E-02  0.1126622E+00
         21   -1    0    0  503  502  0.00000000000E+00  0.00000000000E+00  0.18841250833E+04  0.18841250833E+04  0.00000000000E+00 0. -1.
         21   -1    0    0  501  503 -0.00000000000E+00 -0.00000000000E+00 -0.31915611401E+02  0.31915611401E+02  0.00000000000E+00 0. -1.
          6    2    1    2  501    0 -0.25909284737E+02  0.14665046076E+03  0.57022736570E+03  0.61333805759E+03  0.16984309116E+03 0.  0.
         24    2    3    3    0    0  0.12548846466E+02  0.15223314576E+03  0.52808826251E+03  0.55582294440E+03  0.82033702253E+02 0.  0.
         -6    2    1    2    0  502  0.25909284737E+02 -0.14665046076E+03  0.12819821062E+04  0.13027026371E+04  0.17713946893E+03 0.  0.
        -24    2    5    5    0    0 -0.41261576809E+02 -0.12407317828E+03  0.10014271161E+04  0.10132983337E+04  0.82586760863E+02 0.  0.
          5    1    3    3  501    0 -0.38458131203E+02 -0.55826849985E+01  0.42139103192E+02  0.57515113190E+02  0.47000000000E+01 0. -1.
        -13    1    4    4    0    0  0.43016640289E+02  0.49777582503E+02  0.17739094693E+03  0.18919774606E+03  0.00000000000E+00 0.  1.
         14    1    4    4    0    0 -0.30467793823E+02  0.10245556326E+03  0.35069731559E+03  0.36662519834E+03  0.00000000000E+00 0. -1.
         -5    1    5    5    0  502  0.67170861546E+02 -0.22577282481E+02  0.28055499011E+03  0.28940430336E+03  0.47000000000E+01 0.  1.
         13    1    6    6    0    0 -0.51543905120E+02 -0.88132058164E+02  0.88844587801E+03  0.89429307946E+03  0.00000000000E+00 0. -1.
        -14    1    6    6    0    0  0.10282328311E+02 -0.35941120114E+02  0.11298123805E+03  0.11900525426E+03  0.00000000000E+00 0.  1.
</event>
<event>
12    1  0.9017558E-003  0.2490031E+03  0.7818608E-02  0.1113975E+00
         21   -1    0    0  501  502  0.00000000000E+00  0.00000000000E+00  0.20929981323E+03  0.20929981323E+03  0.00000000000E+00 0.  1.
         21   -1    0    0  502  503 -0.00000000000E+00 -0.00000000000E+00 -0.29896283113E+03  0.29896283113E+03  0.00000000000E+00 0. -1.
          6    2    1    2  501    0  0.25193309377E+02 -0.17804864580E+03 -0.19300879570E+02  0.24950911061E+03  0.17189022433E+03 0.  0.
         24    2    3    3    0    0 -0.32598116589E+02 -0.63769741016E+02  0.31301013621E+02  0.11173335590E+03  0.79845928463E+02 0.  0.
         -6    2    1    2    0  503 -0.25193309377E+02  0.17804864580E+03 -0.70362138331E+02  0.25875353374E+03  0.17223976778E+03 0.  0.
        -24    2    5    5    0    0  0.19154852387E+02  0.69660615562E+02 -0.87470777889E+02  0.14030725859E+03  0.82555921032E+02 0.  0.
          5    1    3    3  501    0  0.57791425965E+02 -0.11427890478E+03 -0.50601893191E+02  0.13777575472E+03  0.47000000000E+01 0. -1.
        -11    1    4    4    0    0 -0.55105292997E+02 -0.51070670673E+02  0.39156373865E+02  0.84723245532E+02  0.00000000000E+00 0.  1.
         12    1    4    4    0    0  0.22507176408E+02 -0.12699070343E+02 -0.78553602438E+01  0.27010110366E+02  0.00000000000E+00 0. -1.
         -5    1    5    5    0  503 -0.44348161763E+02  0.10838803024E+03  0.17108639559E+02  0.11844627515E+03  0.47000000000E+01 0.  1.
         11    1    6    6    0    0  0.34871137251E+02  0.77375975265E+02 -0.48903314871E+02  0.97951885978E+02  0.00000000000E+00 0. -1.
        -12    1    6    6    0    0 -0.15716284864E+02 -0.77153597028E+01 -0.38567463018E+02  0.42355372610E+02  0.00000000000E+00 0.  1.
</event>
<event>
12    1  0.9017558E-003  0.1923148E+03  0.7818608E-02  0.1156584E+00
         21   -1    0    0  503  502  0.00000000000E+00  0.00000000000E+00  0.72892742733E+02  0.72892742733E+02  0.00000000000E+00 0.  1.
         21   -1    0    0  501  503 -0.00000000000E+00 -0.00000000000E+00 -0.64906801963E+03  0.64906801963E+03  0.00000000000E+00 0.  1.
          6    2    1    2  501    0 -0.71494637047E+02  0.48724161558E+02 -0.45759160190E+03  0.49602475723E+03  0.17077751200E+03 0.  0.
         24    2    3    3    0    0  0.34038672226E+01  0.76718544169E+02 -0.25685708582E+03  0.27990000772E+03  0.80443336939E+02 0.  0.
         -6    2    1    2    0  502  0.71494637047E+02 -0.48724161558E+02 -0.11858367500E+03  0.22593600514E+03  0.17175407825E+03 0.  0.
        -24    2    5    5    0    0  0.67747443285E+02 -0.92183616115E+02 -0.11561766623E+03  0.18196268528E+03  0.81580873611E+02 0.  0.
          5    1    3    3  501    0 -0.74898504270E+02 -0.27994382611E+02 -0.20073451609E+03  0.21612474950E+03  0.47000000000E+01 0. -1.
        -11    1    4    4    0    0 -0.34037412186E+02  0.52124995357E+02 -0.18529798740E+03  0.19547609753E+03  0.00000000000E+00 0.  1.
         12    1    4    4    0    0  0.37441279409E+02  0.24593548812E+02 -0.71559098415E+02  0.84423910197E+02  0.00000000000E+00 0. -1.
         -5    1    5    5    0  502  0.37471937621E+01  0.43459454558E+02 -0.29660087723E+01  0.43973319861E+02  0.47000000000E+01 0.  1.
         13    1    6    6    0    0  0.84199241389E+02 -0.79672725695E+02 -0.80210384752E+02  0.14096439725E+03  0.00000000000E+00 0. -1.
        -14    1    6    6    0    0 -0.16451798104E+02 -0.12510890420E+02 -0.35407281475E+02  0.40998288030E+02  0.00000000000E+00 0.  1.
</event>
<event>
12    1  0.9017558E-003  0.2695233E+03  0.7818608E-02  0.1101575E+00
         21   -1    0    0  503  502  0.00000000000E+00  0.00000000000E+00  0.54029656857E+03  0.54029656857E+03  0.00000000000E+00 0. -1.
         21   -1    0    0  501  503 -0.00000000000E+00 -0.00000000000E+00 -0.14641115474E+03  0.14641115474E+03  0.00000000000E+00 0.  1.
          6    2    1    2  501    0  0.46143518050E+02 -0.20108839011E+03  0.29545666278E+03  0.39992180728E+03  0.17342735499E+03 0.  0.
         24    2    3    3    0    0  0.93878935031E+02 -0.10677284460E+03  0.17194971923E+03  0.23728679486E+03  0.80775134078E+02 0.  0.
         -6    2    1    2    0  502 -0.46143518050E+02  0.20108839011E+03  0.98428751050E+02  0.28678591603E+03  0.17318249827E+03 0.  0.
        -24    2    5    5    0    0  0.67359998226E+01  0.43286713420E+02  0.67105697302E+02  0.11737270441E+03  0.85755838742E+02 0.  0.
          5    1    3    3  501    0 -0.47735416981E+02 -0.94315545504E+02  0.12350694355E+03  0.16263501241E+03  0.47000000000E+01 0. -1.
        -13    1    4    4    0    0  0.38298334889E+02 -0.45795547981E+01  0.80680020775E+02  0.89425949979E+02  0.00000000000E+00 0.  1.
         14    1    4    4    0    0  0.55580600142E+02 -0.10219328980E+03  0.91269698453E+02  0.14786084488E+03  0.00000000000E+00 0. -1.
         -5    1    5    5    0  502 -0.52879517873E+02  0.15780167669E+03  0.31323053748E+02  0.16941321162E+03  0.47000000000E+01 0.  1.
         13    1    6    6    0    0  0.44712701152E+02  0.10156255765E+02  0.30106246986E+02  0.54852176648E+02  0.00000000000E+00 0. -1.
        -14    1    6    6    0    0 -0.37976701329E+02  0.33130457655E+02  0.36999450316E+02  0.62520527764E+02  0.00000000000E+00 0.  1.
</event>
<event>
12    1  0.9017558E-003  0.2026488E+03  0.7818608E-02  0.1147690E+00
         21   -1    0    0  501  502  0.00000000000E+00  0.00000000000E+00  0.10550149618E+03  0.10550149618E+03  0.00000000000E+00 0.  1.
         21   -1    0    0  502  503 -0.00000000000E+00 -0.00000000000E+00 -0.40425738136E+03  0.40425738136E+03  0.00000000000E+00 0.  1.
          6    2    1    2  501    0 -0.10138576106E+03  0.33320739699E+02 -0.20066464291E+03  0.28461801544E+03  0.17132358727E+03 0.  0.
         24    2    3    3    0    0 -0.55692625343E+02  0.63451609112E+02 -0.19712182210E+03  0.22956918690E+03  0.81958670134E+02 0.  0.
         -6    2    1    2    0  503  0.10138576106E+03 -0.33320739699E+02 -0.98091242270E+02  0.22514086210E+03  0.17227063515E+03 0.  0.
        -24    2    5    5    0    0  0.15467192678E+02  0.39696149942E+02 -0.48479198494E+02  0.10186510838E+03  0.78811479177E+02 0.  0.
          5    1    3    3  501    0 -0.45693135722E+02 -0.30130869413E+02 -0.35428208076E+01  0.55048828535E+02  0.47000000000E+01 0. -1.
        -11    1    4    4    0    0 -0.58622010360E+02  0.12703548767E+02 -0.67304527938E+02  0.90154421583E+02  0.00000000000E+00 0.  1.
         12    1    4    4    0    0  0.29293850177E+01  0.50748060345E+02 -0.12981729416E+03  0.13941476532E+03  0.00000000000E+00 0. -1.
         -5    1    5    5    0  503  0.85918568387E+02 -0.73016889641E+02 -0.49612043776E+02  0.12327575372E+03  0.47000000000E+01 0.  1.
         13    1    6    6    0    0 -0.91283836818E+01  0.45440743372E+02 -0.58549390486E+02  0.74674089704E+02  0.00000000000E+00 0. -1.
        -14    1    6    6    0    0  0.24595576360E+02 -0.57445934299E+01  0.10070191992E+02  0.27191018681E+02  0.00000000000E+00 0.  1.
</event>
<event>
12    1  0.9017558E-003  0.1766564E+03  0.7818608E-02  0.1172196E+00
         21   -1    0    0  503  502  0.00000000000E+00  0.00000000000E+00  0.11073397499E+03  0.11073397499E+03  0.00000000000E+00 0.  1.
         21   -1    0    0  501  503 -0.00000000000E+00 -0.00000000000E+00 -0.28073902226E+03  0.28073902226E+03  0.00000000000E+00 0.  1.
          6    2    1    2  501    0  0.42462694112E+02  0.15205423179E+02 -0.11246532859E+03  0.20568195844E+03  0.16619967691E+03 0.  0.
         24    2    3    3    0    0  0.55359802103E+02  0.56641923864E+02 -0.11542299030E+03  0.16193088135E+03  0.81401034483E+02 0.  0.
         -6    2    1    2    0  502 -0.42462694112E+02 -0.15205423179E+02 -0.57539718684E+02  0.18579103882E+03  0.17080165572E+03 0.  0.
        -24    2    5    5    0    0  0.17000547258E+02 -0.50451489432E+02 -0.64441369805E+02  0.11616428356E+03  0.80666469114E+02 0.  0.
          5    1    3    3  501    0 -0.12897107991E+02 -0.41436500685E+02  0.29576617189E+01  0.43751077089E+02  0.47000000000E+01 0. -1.
        -13    1    4    4    0    0  0.43684352766E+02  0.68477871527E+02 -0.52185960862E+02  0.96544891510E+02  0.00000000000E+00 0.  1.
         14    1    4    4    0    0  0.11675449337E+02 -0.11835947662E+02 -0.63237029442E+02  0.65385989837E+02  0.00000000000E+00 0. -1.
         -5    1    5    5    0  502 -0.59463241370E+02  0.35246066253E+02  0.69016511218E+01  0.69626755265E+02  0.47000000000E+01 0.  1.
         13    1    6    6    0    0 -0.19085275922E+02  0.27530180827E+01 -0.45069573572E+02  0.49021355832E+02  0.00000000000E+00 0. -1.
        -14    1    6    6    0    0  0.36085823180E+02 -0.53204507515E+02 -0.19371796233E+02  0.67142927727E+02  0.00000000000E+00 0.  1.
</event>
<event>
12    1  0.9017558E-003  0.1889126E+03  0.7818608E-02  0.1159510E+00
         21   -1    0    0  503  502  0.00000000000E+00  0.00000000000E+00  0.20875374174E+03  0.20875374174E+03  0.00000000000E+00 0.  1.
         21   -1    0    0  501  503 -0.00000000000E+00 -0.00000000000E+00 -0.19056971787E+03  0.19056971787E+03  0.00000000000E+00 0.  1.
          6    2    1    2  501    0  0.26621147609E+02 -0.72681514923E+02  0.73554970055E+02  0.20246335933E+03  0.17201683098E+03 0.  0.
         24    2    3    3    0    0  0.35931022562E+02 -0.11436825406E+03  0.68388382882E+02  0.15918239799E+03  0.79315376793E+02 0.  0.
         -6    2    1    2    0  502 -0.26621147609E+02  0.72681514923E+02 -0.55370946184E+02  0.19686010027E+03  0.17232721574E+03 0.  0.
        -24    2    5    5    0    0 -0.33370387938E+01  0.11293165413E+03 -0.12370886757E+02  0.13335168712E+03  0.69749116749E+02 0.  0.
          5    1    3    3  501    0 -0.93098749524E+01  0.41686739141E+02  0.51665871731E+01  0.43280961344E+02  0.47000000000E+01 0. -1.
        -13    1    4    4    0    0  0.53928584778E+02 -0.10989026350E+03  0.47640485014E+02  0.13135363748E+03  0.00000000000E+00 0.  1.
         14    1    4    4    0    0 -0.17997562216E+02 -0.44779905652E+01  0.20747897867E+02  0.27828760503E+02  0.00000000000E+00 0. -1.
         -5    1    5    5    0  502 -0.23284108815E+02 -0.40250139206E+02 -0.43000059428E+02  0.63508413145E+02  0.47000000000E+01 0.  1.
         11    1    6    6    0    0  0.25076556594E+02  0.39940315848E+02  0.16367190473E+02  0.49919409498E+02  0.00000000000E+00 0. -1.
        -12    1    6    6    0    0 -0.28413595388E+02  0.72991338281E+02 -0.28738077230E+02  0.83432277626E+02  0.00000000000E+00 0.  1.
</event>
<event>
12    1  0.9017558E-003  0.3352081E+03  0.7818608E-02  0.1069495E+00
         21   -1    0    0  503  502  0.00000000000E+00  0.00000000000E+00  0.83533461638E+02  0.83533461638E+02  0.00000000000E+00 0. -1.
         21   -1    0    0  501  503 -0.00000000000E+00 -0.00000000000E+00 -0.14982527785E+04  0.14982527785E+04  0.00000000000E+00 0.  1.
          6    2    1    2  501    0 -0.33332122793E+02  0.28047427402E+03 -0.44143930853E+03  0.55428614189E+03  0.18052040100E+03 0.  0.
         24    2    3    3    0    0  0.19615977358E+02  0.11676340862E+03 -0.10879558809E+03  0.17974818186E+03  0.80339583838E+02 0.  0.
         -6    2    1    2    0  502  0.33332122793E+02 -0.28047427402E+03 -0.97328000829E+03  0.10275000982E+04  0.16942735456E+03 0.  0.
        -24    2    5    5    0    0  0.80945538461E+02 -0.16166950055E+03 -0.66589028687E+03  0.69449537994E+03  0.78897091238E+02 0.  0.
          5    1    3    3  501    0 -0.52948100151E+02  0.16371086540E+03 -0.33264372044E+03  0.37453796003E+03  0.47000000000E+01 0. -1.
        -13    1    4    4    0    0  0.39427251079E+02  0.19944953943E+02 -0.36308582399E+02  0.57189356276E+02  0.00000000000E+00 0.  1.
         14    1    4    4    0    0 -0.19811273722E+02  0.96818454681E+02 -0.72487005692E+02  0.12255882558E+03  0.00000000000E+00 0. -1.
         -5    1    5    5    0  502 -0.47613415668E+02 -0.11880477347E+03 -0.30738972142E+03  0.33300471826E+03  0.47000000000E+01 0.  1.
         13    1    6    6    0    0 -0.25924001408E+01 -0.70402709129E+02 -0.30337493723E+03  0.31144761121E+03  0.00000000000E+00 0. -1.
        -14    1    6    6    0    0  0.83537938602E+02 -0.91266791424E+02 -0.36251534964E+03  0.38304776873E+03  0.00000000000E+00 0.  1.
</event>
<event>
12    1  0.9017558E-003  0.2034826E+03  0.7818608E-02  0.1147787E+00
         21   -1    0    0  503  502  0.00000000000E+00  0.00000000000E+00  0.19841957292E+03  0.19841957292E+03  0.00000000000E+00 0. -1.
         21   -1    0    0  501  503 -0.00000000000E+00 -0.00000000000E+00 -0.23473084854E+03  0.23473084854E+03  0.00000000000E+00 0. -1.
          6    2    1    2  501    0 -0.26751196528E+02 -0.10377600094E+03 -0.96313493071E+02  0.22100553864E+03  0.16757706965E+03 0.  0.
         24    2    3    3    0    0 -0.44430559002E+02 -0.37185288332E+01 -0.70493521473E+02  0.11606356174E+03  0.80706330380E+02 0.  0.
         -6    2    1    2    0  502  0.26751196528E+02  0.10377600094E+03  0.60002217448E+02  0.21214488282E+03  0.17297427648E+03 0.  0.
        -24    2    5    5    0    0 -0.28835684890E+02  0.54697742110E+02  0.87795989742E+02  0.13281543902E+03  0.78156671584E+02 0.  0.
          5    1    3    3  501    0  0.17679362475E+02 -0.10005747211E+03 -0.25819971598E+02  0.10494197690E+03  0.47000000000E+01 0. -1.
        -13    1    4    4    0    0 -0.43956527489E+02 -0.79690796082E+01  0.76223673951E+00  0.44679565167E+02  0.00000000000E+00 0.  1.
         14    1    4    4    0    0 -0.47403151324E+00  0.42505507750E+01 -0.71255758213E+02  0.71383996569E+02  0.00000000000E+00 0. -1.
         -5    1    5    5    0  502  0.55586881417E+02  0.49078258830E+02 -0.27793772294E+02  0.79329443801E+02  0.47000000000E+01 0.  1.
         11    1    6    6    0    0 -0.63624813571E+01 -0.17337661538E+02  0.38444865709E+02  0.42650713664E+02  0.00000000000E+00 0. -1.
        -12    1    6    6    0    0 -0.22473203533E+02  0.72035403649E+02  0.49351124033E+02  0.90164725359E+02  0.00000000000E+00 0.  1.
</event>
<event>
12    1  0.9017558E-003  0.2087883E+03  0.7818608E-02  0.1142597E+00
         21   -1    0    0  501  502  0.00000000000E+00  0.00000000000E+00  0.39995437921E+02  0.39995437921E+02  0.00000000000E+00 0. -1.
         21   -1    0    0  502  503 -0.00000000000E+00 -0.00000000000E+00 -0.10910853185E+04  0.10910853185E+04  0.00000000000E+00 0. -1.
          6    2    1    2  501    0  0.10726709248E+03  0.47218187005E+02 -0.55528997621E+03  0.59324490667E+03  0.17279113198E+03 0.  0.
         24    2    3    3    0    0  0.56834197664E+02 -0.42603313722E+02 -0.29013137043E+03  0.30874085557E+03  0.78099522559E+02 0.  0.
         -6    2    1    2    0  503 -0.10726709248E+03 -0.47218187005E+02 -0.49579990440E+03  0.53783584978E+03  0.17237769519E+03 0.  0.
        -24    2    5    5    0    0 -0.11328487623E+03 -0.83480861343E+02 -0.45362774428E+03  0.48169516614E+03  0.80309310203E+02 0.  0.
          5    1    3    3  501    0  0.50432894818E+02  0.89821500727E+02 -0.26515860578E+03  0.28450405110E+03  0.47000000000E+01 0. -1.
        -13    1    4    4    0    0  0.12716965966E+02  0.76507473178E+01 -0.46802529607E+01  0.15561488543E+02  0.00000000000E+00 0.  1.
         14    1    4    4    0    0  0.44117231698E+02 -0.50254061040E+02 -0.28545111747E+03  0.29317936702E+03  0.00000000000E+00 0. -1.
         -5    1    5    5    0  503  0.60177837516E+01  0.36262674337E+02 -0.42172160115E+02  0.56140683645E+02  0.47000000000E+01 0.  1.
         11    1    6    6    0    0 -0.59544306279E+02 -0.55950236919E+02 -0.13825402819E+03  0.16059305630E+03  0.00000000000E+00 0. -1.
        -12    1    6    6    0    0 -0.53740569954E+02 -0.27530624424E+02 -0.31537371609E+03  0.32110210984E+03  0.00000000000E+00 0.  1.
</event>
<event>
12    1  0.9017558E-003  0.2137721E+03  0.7818608E-02  0.1138839E+00
         21   -1    0    0  503  502  0.00000000000E+00  0.00000000000E+00  0.91303887767E+03  0.91303887767E+03  0.00000000000E+00 0. -1.
         21   -1    0    0  501  503 -0.00000000000E+00 -0.00000000000E+00 -0.50921965411E+02  0.50921965411E+02  0.00000000000E+00 0. -1.
          6    2    1    2  501    0 -0.10259388646E+03 -0.71049987737E+02  0.36000991120E+03  0.41869518602E+03  0.17356530858E+03 0.  0.
         24    2    3    3    0    0 -0.34760369607E+02 -0.14449731679E+02  0.26421308575E+03  0.28829542851E+03  0.10903495484E+03 0.  0.
         -6    2    1    2    0  502  0.10259388646E+03  0.71049987737E+02  0.50210700106E+03  0.54526565705E+03  0.17213247792E+03 0.  0.
        -24    2    5    5    0    0  0.13674326257E+03  0.38746778876E+02  0.34557621957E+03  0.38176136737E+03  0.78222665201E+02 0.  0.
          5    1    3    3  501    0 -0.67833516851E+02 -0.56600256059E+02  0.95796825449E+02  0.13039975752E+03  0.47000000000E+01 0. -1.
        -11    1    4    4    0    0 -0.66205333054E+02  0.97406974129E+00  0.96936606851E+02  0.11739165509E+03  0.00000000000E+00 0.  1.
         12    1    4    4    0    0  0.31444963447E+02 -0.15423801420E+02  0.16727647890E+03  0.17090377342E+03  0.00000000000E+00 0. -1.
         -5    1    5    5    0  502 -0.34149376116E+02  0.32303208861E+02  0.15653078149E+03  0.16350428968E+03  0.47000000000E+01 0.  1.
         13    1    6    6    0    0  0.11885788699E+03  0.54617070043E+02  0.32455684298E+03  0.34992480044E+03  0.00000000000E+00 0. -1.
        -14    1    6    6    0    0  0.17885375581E+02 -0.15870291167E+02  0.21019376591E+02  0.31836566927E+02  0.00000000000E+00 0.  1.
</event>
<event>
12    1  0.9017558E-003  0.1725727E+03  0.7818608E-02  0.1175528E+00
         21   -1    0    0  503  502  0.00000000000E+00  0.00000000000E+00  0.55158819200E+03  0.55158819200E+03  0.00000000000E+00 0.  1.
         21   -1    0    0  501  503 -0.00000000000E+00 -0.00000000000E+00 -0.59188628878E+02  0.59188628878E+02  0.00000000000E+00 0.  1.
          6    2    1    2  501    0 -0.58185726908E+01  0.17146320209E+02  0.15306160081E+03  0.23067116079E+03  0.17162015818E+03 0.  0.
         24    2    3    3    0    0 -0.32752471423E+02  0.37687325905E+02  0.25834580220E+02  0.98928333343E+02  0.81402276901E+02 0.  0.
         -6    2    1    2    0  502  0.58185726908E+01 -0.17146320209E+02  0.33933796231E+03  0.38010566008E+03  0.17030034668E+03 0.  0.
        -24    2    5    5    0    0  0.47117259326E+02 -0.60194788409E+02  0.21225863656E+03  0.23964215178E+03  0.80815737560E+02 0.  0.
          5    1    3    3  501    0  0.26933898733E+02 -0.20541005696E+02  0.12722702059E+03  0.13174282745E+03  0.47000000000E+01 0. -1.
        -13    1    4    4    0    0 -0.12513059424E+02  0.53263325393E+02 -0.92940285873E+01  0.55497184212E+02  0.00000000000E+00 0.  1.
         14    1    4    4    0    0 -0.20239412000E+02 -0.15575999488E+02  0.35128608807E+02  0.43431149131E+02  0.00000000000E+00 0. -1.
         -5    1    5    5    0  502 -0.41298686636E+02  0.43048468200E+02  0.12707932575E+03  0.14046350830E+03  0.47000000000E+01 0.  1.
         13    1    6    6    0    0  0.52812531886E+02 -0.14998090121E+02  0.62893159127E+02  0.83484463803E+02  0.00000000000E+00 0. -1.
        -14    1    6    6    0    0 -0.56952725595E+01 -0.45196698289E+02  0.14936547743E+03  0.15615768797E+03  0.00000000000E+00 0.  1.
</event>
<event>
12    1  0.9017558E-003  0.1848625E+03  0.7818608E-02  0.1163486E+00
         21   -1    0    0  503  502  0.00000000000E+00  0.00000000000E+00  0.19363549148E+03  0.19363549148E+03  0.00000000000E+00 0. -1.
         21   -1    0    0  501  503 -0.00000000000E+00 -0.00000000000E+00 -0.31943699382E+03  0.31943699382E+03  0.00000000000E+00 0. -1.
          6    2    1    2  501    0 -0.24061494822E+02 -0.61848180583E+02 -0.23538451654E+03  0.29929917791E+03  0.17253977599E+03 0.  0.
         24    2    3    3    0    0 -0.82831517286E+02 -0.49101995910E+02 -0.17065767057E+03  0.21082299268E+03  0.77783208094E+02 0.  0.
         -6    2    1    2    0  502  0.24061494822E+02  0.61848180583E+02  0.10958301419E+03  0.21377330739E+03  0.17113280510E+03 0.  0.
        -24    2    5    5    0    0 -0.30387694320E+00  0.10299323105E+03  0.64309792091E+02  0.14775557373E+03  0.84191818046E+02 0.  0.
          5    1    3    3  501    0  0.58770022464E+02 -0.12746184673E+02 -0.64726845969E+02  0.88476185232E+02  0.47000000000E+01 0. -1.
        -13    1    4    4    0    0 -0.75023550629E+01  0.51552776034E+01  0.62462161381E+01  0.11039811353E+02  0.00000000000E+00 0.  1.
         14    1    4    4    0    0 -0.75329162223E+02 -0.54257273514E+02 -0.17690388671E+03  0.19978318133E+03  0.00000000000E+00 0. -1.
         -5    1    5    5    0  502  0.24365371765E+02 -0.41145050464E+02  0.45273222103E+02  0.66017733667E+02  0.47000000000E+01 0.  1.
         11    1    6    6    0    0 -0.22277353627E+01  0.18786105607E+02  0.60556761581E+02  0.63442903006E+02  0.00000000000E+00 0. -1.
        -12    1    6    6    0    0  0.19238584195E+01  0.84207125440E+02  0.37530305104E+01  0.84312670721E+02  0.00000000000E+00 0.  1.
</event>
<event>
12    1  0.9017558E-003  0.3081119E+03  0.7818608E-02  0.1081368E+00
         21   -1    0    0  501  502  0.00000000000E+00  0.00000000000E+00  0.82344207829E+03  0.82344207829E+03  0.00000000000E+00 0. -1.
         21   -1    0    0  502  503 -0.00000000000E+00 -0.00000000000E+00 -0.11543551900E+03  0.11543551900E+03  0.00000000000E+00 0.  1.
          6    2    1    2  501    0 -0.25364356223E+03  0.23947821856E+02  0.38536638560E+03  0.49339658609E+03  0.17327546042E+03 0.  0.
         24    2    3    3    0    0 -0.81373886038E+02 -0.45755526367E+02  0.86759623075E+02  0.14165309047E+03  0.61831127443E+02 0.  0.
         -6    2    1    2    0  503  0.25364356223E+03 -0.23947821856E+02  0.32264017368E+03  0.44548101119E+03  0.17160447205E+03 0.  0.
        -24    2    5    5    0    0  0.26910085748E+03 -0.39494955387E+02  0.30823189119E+03  0.41882899547E+03  0.80222850286E+02 0.  0.
          5    1    3    3  501    0 -0.17226967619E+03  0.69703348222E+02  0.29860676253E+03  0.35174349563E+03  0.47000000000E+01 0. -1.
        -11    1    4    4    0    0 -0.70329823021E+02 -0.28234875514E+02  0.93050415546E+02  0.12000779989E+03  0.00000000000E+00 0.  1.
         12    1    4    4    0    0 -0.11044063017E+02 -0.17520650853E+02 -0.62907924707E+01  0.21645290577E+02  0.00000000000E+00 0. -1.
         -5    1    5    5    0  503 -0.15457295248E+02  0.15547133531E+02  0.14408282498E+02  0.26652015721E+02  0.47000000000E+01 0.  1.
         11    1    6    6    0    0  0.95921206803E+02  0.15095320868E+02  0.14594490531E+03  0.17529592697E+03  0.00000000000E+00 0. -1.
        -12    1    6    6    0    0  0.17317965067E+03 -0.54590276255E+02  0.16228698588E+03  0.24353306850E+03  0.00000000000E+00 0.  1.
</event>
<event>
12    1  0.9017558E-003  0.3006829E+03  0.7818608E-02  0.1085343E+00
         21   -1    0    0  503  502  0.00000000000E+00  0.00000000000E+00  0.16010220850E+04  0.16010220850E+04  0.00000000000E+00 0. -1.
         21   -1    0    0  501  503 -0.00000000000E+00 -0.00000000000E+00 -0.62340559816E+02  0.62340559816E+02  0.00000000000E+00 0.  1.
          6    2    1    2  501    0  0.19062147187E+03 -0.15400366243E+03  0.10426374263E+04  0.10851281123E+04  0.17423129390E+03 0.  0.
         24    2    3    3    0    0  0.87931376293E+02 -0.33290034137E+01  0.41696369912E+03  0.43340899220E+03  0.79003917234E+02 0.  0.
         -6    2    1    2    0  502 -0.19062147187E+03  0.15400366243E+03  0.49604409894E+03  0.57823453258E+03  0.16805282801E+03 0.  0.
        -24    2    5    5    0    0 -0.52596234504E+02  0.11087062828E+03  0.30571485930E+03  0.33915560368E+03  0.80661565879E+02 0.  0.
          5    1    3    3  501    0  0.10269009558E+03 -0.15067465901E+03  0.62567372718E+03  0.65171912008E+03  0.47000000000E+01 0. -1.
        -11    1    4    4    0    0  0.48213863780E+00 -0.27483458993E+02  0.91982591171E+02  0.96001927348E+02  0.00000000000E+00 0.  1.
         12    1    4    4    0    0  0.87449237655E+02  0.24154455580E+02  0.32498110795E+03  0.33740706485E+03  0.00000000000E+00 0. -1.
         -5    1    5    5    0  502 -0.13802523737E+03  0.43133034144E+02  0.19032923964E+03  0.23907892891E+03  0.47000000000E+01 0.  1.
         13    1    6    6    0    0 -0.65857306174E+02  0.53245508329E+02  0.21265669466E+03  0.22889984429E+03  0.00000000000E+00 0. -1.
        -14    1    6    6    0    0  0.13261071670E+02  0.57625119953E+02  0.93058164638E+02  0.11025575938E+03  0.00000000000E+00 0.  1.
</event>
<event>
12    1  0.9017558E-003  0.2144146E+03  0.7818608E-02  0.1138232E+00
         21   -1    0    0  501  502  0.00000000000E+00  0.00000000000E+00  0.54132356142E+03  0.54132356142E+03  0.00000000000E+00 0. -1.
         21   -1    0    0  502  503 -0.00000000000E+00 -0.00000000000E+00 -0.10833516951E+03  0.10833516951E+03  0.00000000000E+00 0.  1.
          6    2    1    2  501    0  0.87844607635E+02 -0.92172584816E+02  0.36847896706E+03  0.42632190657E+03  0.17251422658E+03 0.  0.
         24    2    3    3    0    0  0.26614429041E+02 -0.19491371810E+02  0.64197073177E+02  0.10750965078E+03  0.79679479154E+02 0.  0.
         -6    2    1    2    0  503 -0.87844607635E+02  0.92172584816E+02  0.64509424853E+02  0.22333682436E+03  0.17177139091E+03 0.  0.
        -24    2    5    5    0    0 -0.12339299581E+03  0.50425206491E+02  0.64005706792E+02  0.16830160626E+03  0.80375165958E+02 0.  0.
          5    1    3    3  501    0  0.61230178594E+02 -0.72681213007E+02  0.30428189389E+03  0.31881225579E+03  0.47000000000E+01 0. -1.
        -11    1    4    4    0    0  0.13929127248E+02  0.17624580242E+02  0.64483799581E+02  0.68284748099E+02  0.00000000000E+00 0.  1.
         12    1    4    4    0    0  0.12685301793E+02 -0.37115952052E+02 -0.28672640401E+00  0.39224902681E+02  0.00000000000E+00 0. -1.
         -5    1    5    5    0  503  0.35548388177E+02  0.41747378325E+02  0.50371806091E+00  0.55035218097E+02  0.47000000000E+01 0.  1.
         13    1    6    6    0    0 -0.24379472657E+02 -0.18892892815E+02  0.29323197423E+02  0.42557607934E+02  0.00000000000E+00 0. -1.
        -14    1    6    6    0    0 -0.99013523156E+02  0.69318099306E+02  0.34682509369E+02  0.12574399833E+03  0.00000000000E+00 0.  1.
</event>
<event>
12    1  0.9017558E-003  0.2908520E+03  0.7818608E-02  0.1090194E+00
         21   -1    0    0  503  502  0.00000000000E+00  0.00000000000E+00  0.65870458994E+03  0.65870458994E+03  0.00000000000E+00 0.  1.
         21   -1    0    0  501  503 -0.00000000000E+00 -0.00000000000E+00 -0.17645840544E+03  0.17645840544E+03  0.00000000000E+00 0. -1.
          6    2    1    2  501    0  0.20637762244E+03  0.10343513928E+03  0.20396689747E+02  0.28936097146E+03  0.17327202825E+03 0.  0.
         24    2    3    3    0    0  0.20877427282E+03  0.67148530852E+02 -0.17781137040E+02  0.23642612148E+03  0.86518899081E+02 0.  0.
         -6    2    1    2    0  502 -0.20637762244E+03 -0.10343513928E+03  0.46184949475E+03  0.54580202392E+03  0.17693033216E+03 0.  0.
        -24    2    5    5    0    0 -0.84060565213E+02 -0.10479604063E+03  0.31473117843E+03  0.35441444978E+03  0.92225261074E+02 0.  0.
          5    1    3    3  501    0 -0.23966503835E+01  0.36286608427E+02  0.38177826787E+02  0.52934849980E+02  0.47000000000E+01 0. -1.
        -13    1    4    4    0    0  0.67289752850E+02  0.52415392447E+02  0.23194230153E+02  0.88392627047E+02  0.00000000000E+00 0.  1.
         14    1    4    4    0    0  0.14148451997E+03  0.14733138405E+02 -0.40975367193E+02  0.14803349444E+03  0.00000000000E+00 0. -1.
         -5    1    5    5    0  502 -0.12231705722E+03  0.13609013462E+01  0.14711831632E+03  0.19138757414E+03  0.47000000000E+01 0.  1.
         11    1    6    6    0    0 -0.25557600232E+02 -0.91112279743E+02  0.13465883283E+03  0.16458323034E+03  0.00000000000E+00 0. -1.
        -12    1    6    6    0    0 -0.58502964981E+02 -0.13683760883E+02  0.18007234560E+03  0.18983121944E+03  0.00000000000E+00 0.  1.
</event>
<event>
12    1  0.9017558E-003  0.1814469E+03  0.7818608E-02  0.1166710E+00
         21   -1    0    0  501  502  0.00000000000E+00  0.00000000000E+00  0.14924722312E+03  0.14924722312E+03  0.00000000000E+00 0.  1.
         21   -1    0    0  502  503 -0.00000000000E+00 -0.00000000000E+00 -0.21936715034E+03  0.21936715034E+03  0.00000000000E+00 0.  1.
          6    2    1    2  501    0 -0.38020652359E+02  0.43858956576E+02 -0.41835682752E+02  0.18620739812E+03  0.17191216561E+03 0.  0.
         24    2    3    3    0    0 -0.91715014152E+02  0.29693289083E+02 -0.34328862928E+02  0.12997401864E+03  0.80133884556E+02 0.  0.
         -6    2    1    2    0  503  0.38020652359E+02 -0.43858956576E+02 -0.28284244471E+02  0.18240697534E+03  0.17059638944E+03 0.  0.
        -24    2    5    5    0    0 -0.26805734992E+02  0.19973373177E+02 -0.30905819324E+01  0.87887996022E+02  0.81223550055E+02 0.  0.
          5    1    3    3  501    0  0.53694361793E+02  0.14165667493E+02 -0.75068198240E+01  0.56233379480E+02  0.47000000000E+01 0. -1.
        -11    1    4    4    0    0  0.92460202450E+01  0.19155446768E+02  0.36718265878E+01  0.21584771060E+02  0.00000000000E+00 0.  1.
         12    1    4    4    0    0 -0.10096103440E+03  0.10537842315E+02 -0.38000689516E+02  0.10838924758E+03  0.00000000000E+00 0. -1.
         -5    1    5    5    0  503  0.64826387351E+02 -0.63832329753E+02 -0.25193662539E+02  0.94518979315E+02  0.47000000000E+01 0.  1.
         13    1    6    6    0    0 -0.11183340341E+02  0.71838922377E+01  0.39001478322E+02  0.41204256093E+02  0.00000000000E+00 0. -1.
        -14    1    6    6    0    0 -0.15622394651E+02  0.12789480940E+02 -0.42092060254E+02  0.46683739929E+02  0.00000000000E+00 0.  1.
</event>
<event>
12    1  0.9017558E-003  0.2317539E+03  0.7818608E-02  0.1125497E+00
         21   -1    0    0  501  502  0.00000000000E+00  0.00000000000E+00  0.86439418960E+03  0.86439418960E+03  0.00000000000E+00 0. -1.
         21   -1    0    0  502  503 -0.00000000000E+00 -0.00000000000E+00 -0.15397496941E+03  0.15397496941E+03  0.00000000000E+00 0.  1.
          6    2    1    2  501    0 -0.77114768066E+02  0.13428347151E+03  0.74888638343E+03  0.78392644887E+03  0.17242715499E+03 0.  0.
         24    2    3    3    0    0 -0.95384581668E+02  0.45976435359E+02  0.32936840619E+03  0.35480019478E+03  0.78661173338E+02 0.  0.
         -6    2    1    2    0  503  0.77114768066E+02 -0.13428347151E+03 -0.38467163239E+02  0.23444271014E+03  0.17176997269E+03 0.  0.
        -24    2    5    5    0    0  0.11924006408E+03 -0.11335461550E+03 -0.21581187643E+02  0.18424526249E+03  0.80081879062E+02 0.  0.
          5    1    3    3  501    0  0.18269813602E+02  0.88307036153E+02  0.41951797724E+03  0.42912625409E+03  0.47000000000E+01 0. -1.
        -13    1    4    4    0    0 -0.20450218468E+02  0.41913890222E+02  0.65086781096E+02  0.80070435883E+02  0.00000000000E+00 0.  1.
         14    1    4    4    0    0 -0.74934363199E+02  0.40625451365E+01  0.26428162509E+03  0.27472975890E+03  0.00000000000E+00 0. -1.
         -5    1    5    5    0  503 -0.42125296019E+02 -0.20928856015E+02 -0.16885975596E+02  0.50197447650E+02  0.47000000000E+01 0.  1.
         13    1    6    6    0    0  0.58566186165E+02 -0.99590439880E+01  0.10069878222E+02  0.60254320729E+02  0.00000000000E+00 0. -1.
        -14    1    6    6    0    0  0.60673877919E+02 -0.10339557151E+03 -0.31651065865E+02  0.12399094176E+03  0.00000000000E+00 0.  1.
</event>
<event>
12    1  0.9017558E-003  0.2056470E+03  0.7818608E-02  0.1145184E+00
         21   -1    0    0  503  502  0.00000000000E+00  0.00000000000E+00  0.14584988358E+02  0.14584988358E+02  0.00000000000E+00 0. -1.
         21   -1    0    0  501  503 -0.00000000000E+00 -0.00000000000E+00 -0.29252887641E+04  0.29252887641E+04  0.00000000000E+00 0.  1.
          6    2    1    2  501    0  0.10329635450E+03 -0.44443319134E+02 -0.12941496630E+04  0.13102916355E+04  0.17145108466E+03 0.  0.
         24    2    3    3    0    0  0.53844302146E+02  0.41614362596E+02 -0.60330436543E+03  0.61233694843E+03  0.79683229244E+02 0.  0.
         -6    2    1    2    0  502 -0.10329635450E+03  0.44443319134E+02 -0.16165541128E+04  0.16295821170E+04  0.17217819524E+03 0.  0.
        -24    2    5    5    0    0  0.11956998536E+02  0.30224317394E+02 -0.70833209411E+03  0.71395400436E+03  0.83303575059E+02 0.  0.
          5    1    3    3  501    0  0.49452052353E+02 -0.86057681730E+02 -0.69084529755E+03  0.69795468708E+03  0.47000000000E+01 0. -1.
        -13    1    4    4    0    0  0.57540228177E+01 -0.17217182167E+02 -0.39947900425E+02  0.43879093982E+02  0.00000000000E+00 0.  1.
         14    1    4    4    0    0  0.48090279328E+02  0.58831544762E+02 -0.56335646500E+03  0.56845785445E+03  0.00000000000E+00 0. -1.
         -5    1    5    5    0  502 -0.11525335303E+03  0.14219001741E+02 -0.90822201868E+03  0.91562811262E+03  0.47000000000E+01 0.  1.
         13    1    6    6    0    0 -0.55668343995E+01  0.22456580167E+01 -0.12876871566E+01  0.61392803628E+01  0.00000000000E+00 0. -1.
        -14    1    6    6    0    0  0.17523832935E+02  0.27978659377E+02 -0.70704440696E+03  0.70781472400E+03  0.00000000000E+00 0.  1.
</event>
<event>
12    1  0.9017558E-003  0.2333814E+03  0.7818608E-02  0.1124819E+00
         21   -1    0    0  501  502  0.00000000000E+00  0.00000000000E+00  0.23646800502E+04  0.23646800502E+04  0.00000000000E+00 0. -1.
         21   -1    0    0  502  503 -0.00000000000E+00 -0.00000000000E+00 -0.24913662820E+02  0.24913662820E+02  0.00000000000E+00 0. -1.
          6    2    1    2  501    0  0.12640529122E+03  0.88694727949E+02  0.82326473193E+03  0.85570537042E+03  0.17499088465E+03 0.  0.
         24    2    3    3    0    0  0.20057645610E+02  0.93398590671E+02  0.43306107812E+03  0.45121441934E+03  0.83228294220E+02 0.  0.
         -6    2    1    2    0  503 -0.12640529122E+03 -0.88694727949E+02  0.15165016555E+04  0.15338883426E+04  0.17085410202E+03 0.  0.
        -24    2    5    5    0    0 -0.10757935765E+03 -0.47094626191E+02  0.14196474951E+04  0.14267071753E+04  0.79392265378E+02 0.  0.
          5    1    3    3  501    0  0.10634764561E+03 -0.47038627218E+01  0.39020365381E+03  0.40449095107E+03  0.47000000000E+01 0. -1.
        -11    1    4    4    0    0 -0.24952099088E+02  0.42948665749E+01  0.62273440512E+02  0.67223764555E+02  0.00000000000E+00 0.  1.
         12    1    4    4    0    0  0.45009744698E+02  0.89103724096E+02  0.37078763760E+03  0.38399065479E+03  0.00000000000E+00 0. -1.
         -5    1    5    5    0  503 -0.18825933563E+02 -0.41600101758E+02  0.96854160419E+02  0.10718116733E+03  0.47000000000E+01 0.  1.
         11    1    6    6    0    0 -0.10608922141E+02  0.81258572370E+01  0.33380599067E+02  0.35956128531E+02  0.00000000000E+00 0. -1.
        -12    1    6    6    0    0 -0.96970435514E+02 -0.55220483428E+02  0.13862668960E+04  0.13907510468E+04  0.00000000000E+00 0.  1.
</event>
<event>
12    1  0.9017558E-003  0.2000744E+03  0.7818608E-02  0.1152280E+00
         21   -1    0    0  503  502  0.00000000000E+00  0.00000000000E+00  0.13257338976E+03  0.13257338976E+03  0.00000000000E+00 0. -1.
         21   -1    0    0  501  503 -0.00000000000E+00 -0.00000000000E+00 -0.28767365547E+03  0.28767365547E+03  0.00000000000E+00 0. -1.
          6    2    1    2  501    0 -0.55744980661E+02 -0.77783052390E+02 -0.10306155381E+03  0.22505879366E+03  0.17570449801E+03 0.  0.
         24    2    3    3    0    0  0.78349584618E+01 -0.46770931450E+02  0.79368015093E+01  0.93351219129E+02  0.80015940236E+02 0.  0.
         -6    2    1    2    0  502  0.55744980661E+02  0.77783052390E+02 -0.52038711896E+02  0.19518825157E+03  0.16196518116E+03 0.  0.
        -24    2    5    5    0    0 -0.23545285666E+02  0.64891826592E+02 -0.16015413505E+02  0.10702421092E+03  0.80201986371E+02 0.  0.
          5    1    3    3  501    0 -0.63579939123E+02 -0.31012120940E+02 -0.11099835532E+03  0.13170757453E+03  0.47000000000E+01 0. -1.
        -11    1    4    4    0    0  0.31582195656E+02 -0.47737545372E+02 -0.16189638035E+02  0.59484558503E+02  0.00000000000E+00 0.  1.
         12    1    4    4    0    0 -0.23747237195E+02  0.96661392253E+00  0.24126439544E+02  0.33866660626E+02  0.00000000000E+00 0. -1.
         -5    1    5    5    0  502  0.79290266327E+02  0.12891225798E+02 -0.36023298390E+02  0.88164040650E+02  0.47000000000E+01 0.  1.
         13    1    6    6    0    0  0.70146988884E+01  0.45636934688E+02  0.24889735887E+02  0.52454120532E+02  0.00000000000E+00 0. -1.
        -14    1    6    6    0    0 -0.30559984554E+02  0.19254891903E+02 -0.40905149393E+02  0.54570090388E+02  0.00000000000E+00 0.  1.
</event>
<event>
12    1  0.9017558E-003  0.2208758E+03  0.7818608E-02  0.1133279E+00
         21   -1    0    0  503  502  0.00000000000E+00  0.00000000000E+00  0.16512956350E+04  0.16512956350E+04  0.00000000000E+00 0.  1.
         21   -1    0    0  501  503 -0.00000000000E+00 -0.00000000000E+00 -0.66885057725E+02  0.66885057725E+02  0.00000000000E+00 0. -1.
          6    2    1    2  501    0 -0.61148548227E+02  0.12302500079E+03  0.15021483575E+03  0.26711539034E+03  0.17295039493E+03 0.  0.
         24    2    3    3    0    0 -0.98898664236E+02  0.12983781198E+03  0.12303122102E+03  0.21986579177E+03  0.81027660943E+02 0.  0.
         -6    2    1    2    0  502  0.61148548227E+02 -0.12302500079E+03  0.14341957415E+04  0.14510653023E+04  0.17262326326E+03 0.  0.
        -24    2    5    5    0    0  0.88899133677E+01 -0.10748657833E+02  0.32074122536E+03  0.33073499767E+03  0.79474151982E+02 0.  0.
          5    1    3    3  501    0  0.37750116008E+02 -0.68128111888E+01  0.27183614735E+02  0.47249598570E+02  0.47000000000E+01 0.  1.
        -11    1    4    4    0    0 -0.89880578693E+02  0.99189668383E+02  0.13062382175E+03  0.18702858484E+03  0.00000000000E+00 0.  1.
         12    1    4    4    0    0 -0.90180855430E+01  0.30648143593E+02 -0.75926007342E+01  0.32837206922E+02  0.00000000000E+00 0. -1.
         -5    1    5    5    0  502  0.52258634859E+02 -0.11227634295E+03  0.11134545161E+04  0.11203303047E+04  0.47000000000E+01 0.  1.
         11    1    6    6    0    0  0.32323266066E+02 -0.31161373601E+02  0.13136468667E+03  0.13882545025E+03  0.00000000000E+00 0. -1.
        -12    1    6    6    0    0 -0.23433352699E+02  0.20412715768E+02  0.18937653869E+03  0.19190954742E+03  0.00000000000E+00 0.  1.
</event>
<event>
12    1  0.9017558E-003  0.2065386E+03  0.7818608E-02  0.1144796E+00
         21   -1    0    0  501  502  0.00000000000E+00  0.00000000000E+00  0.15649189591E+03  0.15649189591E+03  0.00000000000E+00 0. -1.
         21   -1    0    0  502  503 -0.00000000000E+00 -0.00000000000E+00 -0.28252048000E+03  0.28252048000E+03  0.00000000000E+00 0.  1.
          6    2    1    2  501    0 -0.10825063004E+03  0.20783388660E+02 -0.16434901660E+02  0.20719143543E+03  0.17466549967E+03 0.  0.
         24    2    3    3    0    0 -0.36678832847E+02 -0.34557014288E+02 -0.52685457267E+02  0.10961441388E+03  0.81853761718E+02 0.  0.
         -6    2    1    2    0  503  0.10825063004E+03 -0.20783388660E+02 -0.10959368243E+03  0.23182094049E+03  0.17198844458E+03 0.  0.
        -24    2    5    5    0    0  0.36312817666E+02  0.34771240812E+02 -0.10310687571E+03  0.14057657426E+03  0.81259371760E+02 0.  0.
          5    1    3    3  501    0 -0.71571797197E+02  0.55340402949E+02  0.36250555607E+02  0.97577021549E+02  0.47000000000E+01 0. -1.
        -11    1    4    4    0    0  0.35867196570E+01 -0.36070538413E+02  0.76637716812E+01  0.37049719239E+02  0.00000000000E+00 0.  1.
         12    1    4    4    0    0 -0.40265552504E+02  0.15135241246E+01 -0.60349228948E+02  0.72564694641E+02  0.00000000000E+00 0. -1.
         -5    1    5    5    0  503  0.71937812378E+02 -0.55554629472E+02 -0.64868067186E+01  0.91244366221E+02  0.47000000000E+01 0.  1.
         13    1    6    6    0    0  0.55556399013E+02  0.39521263542E+02 -0.51956427511E+02  0.85719974936E+02  0.00000000000E+00 0. -1.
        -14    1    6    6    0    0 -0.19243581347E+02 -0.47500227296E+01 -0.51150448199E+02  0.54856599329E+02  0.00000000000E+00 0.  1.
</event>
<event>
12    1  0.9017558E-003  0.1975344E+03  0.7818608E-02  0.1154200E+00
         21   -1    0    0  501  502  0.00000000000E+00  0.00000000000E+00  0.70547619064E+02  0.70547619064E+02  0.00000000000E+00 0. -1.
         21   -1    0    0  502  503 -0.00000000000E+00 -0.00000000000E+00 -0.62162246448E+03  0.62162246448E+03  0.00000000000E+00 0. -1.
          6    2    1    2  501    0 -0.77257804707E+02  0.51470105762E+02 -0.41943025594E+03  0.46361794258E+03  0.17436145477E+03 0.  0.
         24    2    3    3    0    0 -0.32426353776E+01  0.27176900380E+02 -0.34704639315E+03  0.35717585170E+03  0.79901761181E+02 0.  0.
         -6    2    1    2    0  503  0.77257804707E+02 -0.51470105762E+02 -0.13164458948E+03  0.22855214097E+03  0.16213526151E+03 0.  0.
        -24    2    5    5    0    0  0.75686877127E+02 -0.93029188977E+02 -0.11433551550E+03  0.18326064891E+03  0.78287431695E+02 0.  0.
          5    1    3    3  501    0 -0.74015169329E+02  0.24293205382E+02 -0.72383862782E+02  0.10644209088E+03  0.47000000000E+01 0. -1.
        -11    1    4    4    0    0  0.31171672217E+02  0.18011621095E+02 -0.79526389269E+02  0.87295694244E+02  0.00000000000E+00 0.  1.
         12    1    4    4    0    0 -0.34414307595E+02  0.91652792844E+01 -0.26752000388E+03  0.26988015746E+03  0.00000000000E+00 0. -1.
         -5    1    5    5    0  503  0.15709275801E+01  0.41559083216E+02 -0.17309073981E+02  0.45291492062E+02  0.47000000000E+01 0.  1.
         11    1    6    6    0    0  0.13931076096E+02 -0.34379222329E+02 -0.85739872959E+02  0.93420188526E+02  0.00000000000E+00 0. -1.
        -12    1    6    6    0    0  0.61755801031E+02 -0.58649966648E+02 -0.28595642542E+02  0.89840460380E+02  0.00000000000E+00 0.  1.
</event>
<event>
12    1  0.9017558E-003  0.2139312E+03  0.7818608E-02  0.1138532E+00
         21   -1    0    0  503  502  0.00000000000E+00  0.00000000000E+00  0.24345135146E+03  0.24345135146E+03  0.00000000000E+00 0. -1.
         21   -1    0    0  501  503 -0.00000000000E+00 -0.00000000000E+00 -0.21469304604E+03  0.21469304604E+03  0.00000000000E+00 0. -1.
          6    2    1    2  501    0  0.12297540543E+03  0.33107763354E+02  0.95445889011E+02  0.23406009054E+03  0.17162498046E+03 0.  0.
         24    2    3    3    0    0  0.79388742116E+02  0.81294325908E+02  0.47844893100E+02  0.15337746018E+03  0.91236898769E+02 0.  0.
         -6    2    1    2    0  502 -0.12297540543E+03 -0.33107763354E+02 -0.66687583589E+02  0.22408430697E+03  0.17189377095E+03 0.  0.
        -24    2    5    5    0    0 -0.69013075866E+02 -0.20433304742E+02 -0.10978003320E+03  0.15371652936E+03  0.79979942027E+02 0.  0.
          5    1    3    3  501    0  0.43586663310E+02 -0.48186562553E+02  0.47600995911E+02  0.80682630354E+02  0.47000000000E+01 0. -1.
        -13    1    4    4    0    0  0.41708978146E+02  0.41354703365E+02 -0.23575007176E+02  0.63290056973E+02  0.00000000000E+00 0.  1.
         14    1    4    4    0    0  0.37679763970E+02  0.39939622543E+02  0.71419900276E+02  0.90087403210E+02  0.00000000000E+00 0. -1.
         -5    1    5    5    0  502 -0.53962329559E+02 -0.12674458612E+02  0.43092449608E+02  0.70367777610E+02  0.47000000000E+01 0.  1.
         13    1    6    6    0    0 -0.43852389485E+02  0.28299586589E+02 -0.45705970250E+02  0.69375315359E+02  0.00000000000E+00 0. -1.
        -14    1    6    6    0    0 -0.25160686380E+02 -0.48732891331E+02 -0.64074062947E+02  0.84341214001E+02  0.00000000000E+00 0.  1.
</event>
<event>
12    1  0.9017558E-003  0.2190117E+03  0.7818608E-02  0.1135208E+00
         21   -1    0    0  503  502  0.00000000000E+00  0.00000000000E+00  0.33850256808E+03  0.33850256808E+03  0.00000000000E+00 0.  1.
         21   -1    0    0  501  503 -0.00000000000E+00 -0.00000000000E+00 -0.14309903972E+03  0.14309903972E+03  0.00000000000E+00 0. -1.
          6    2    1    2  501    0  0.60831363583E+02 -0.11563925633E+03  0.61283453643E+02  0.22742421171E+03  0.17576466647E+03 0.  0.
         24    2    3    3    0    0  0.80235549322E+02 -0.11784741336E+03  0.94836632846E+02  0.18831789232E+03  0.78382940914E+02 0.  0.
         -6    2    1    2    0  502 -0.60831363583E+02  0.11563925633E+03  0.13412007471E+03  0.25417739609E+03  0.17188677042E+03 0.  0.
        -24    2    5    5    0    0  0.14529221491E+02  0.75088800504E+01  0.65885477461E+02  0.10568683640E+03  0.81002035100E+02 0.  0.
          5    1    3    3  501    0 -0.19404185739E+02  0.22081570283E+01 -0.33553179202E+02  0.39106319390E+02  0.47000000000E+01 0. -1.
        -13    1    4    4    0    0 -0.57339987999E+01 -0.60955652113E+01 -0.96904854794E+01  0.12803912149E+02  0.00000000000E+00 0.  1.
         14    1    4    4    0    0  0.85969548122E+02 -0.11175184815E+03  0.10452711833E+03  0.17551398017E+03  0.00000000000E+00 0. -1.
         -5    1    5    5    0  502 -0.75360585074E+02  0.10813037628E+03  0.68234597248E+02  0.14849055970E+03  0.47000000000E+01 0.  1.
         11    1    6    6    0    0  0.12884861606E+02 -0.96350776827E+01 -0.15594642837E+02  0.22406411265E+02  0.00000000000E+00 0. -1.
        -12    1    6    6    0    0  0.16443598858E+01  0.17143957733E+02  0.81480120298E+02  0.83280425131E+02  0.00000000000E+00 0.  1.
</event>
<event>
12    1  0.9017558E-003  0.1824305E+03  0.7818608E-02  0.1166338E+00
         21   -1    0    0  501  502  0.00000000000E+00  0.00000000000E+00  0.28280092600E+03  0.28280092600E+03  0.00000000000E+00 0. -1.
         21   -1    0    0  502  503 -0.00000000000E+00 -0.00000000000E+00 -0.15150586139E+03  0.15150586139E+03  0.00000000000E+00 0. -1.
          6    2    1    2  501    0 -0.38286419515E+02  0.26910000738E+02  0.17120086374E+03  0.24756263974E+03  0.17259063356E+03 0.  0.
         24    2    3    3    0    0 -0.14534351195E+02 -0.29726366060E+02  0.16437279399E+03  0.18559045784E+03  0.79564429441E+02 0.  0.
         -6    2    1    2    0  503  0.38286419515E+02 -0.26910000738E+02 -0.39905799124E+02  0.18674414764E+03  0.17632613481E+03 0.  0.
        -24    2    5    5    0    0  0.15787935872E+02  0.54200916989E+02 -0.27380068094E+02  0.10151418414E+03  0.79802651158E+02 0.  0.
          5    1    3    3  501    0 -0.23752068321E+02  0.56636366798E+02  0.68280697439E+01  0.61972181905E+02  0.47000000000E+01 0. -1.
        -13    1    4    4    0    0 -0.26920251083E+02 -0.18270518959E+02  0.15990370586E+02  0.36251947988E+02  0.00000000000E+00 0.  1.
         14    1    4    4    0    0  0.12385899888E+02 -0.11455847102E+02  0.14838242341E+03  0.14933850985E+03  0.00000000000E+00 0. -1.
         -5    1    5    5    0  503  0.22498483643E+02 -0.81110917727E+02 -0.12525731030E+02  0.85229963502E+02  0.47000000000E+01 0.  1.
         13    1    6    6    0    0 -0.14433335691E+02 -0.11228123906E+02  0.94431198801E+01  0.20580681686E+02  0.00000000000E+00 0. -1.
        -14    1    6    6    0    0  0.30221271563E+02  0.65429040895E+02 -0.36823187974E+02  0.80933502456E+02  0.00000000000E+00 0.  1.
</event>
<event>
12    1  0.9017558E-003  0.1944001E+03  0.7818608E-02  0.1154647E+00
         21   -1    0    0  503  502  0.00000000000E+00  0.00000000000E+00  0.18364968321E+03  0.18364968321E+03  0.00000000000E+00 0. -1.
         21   -1    0    0  501  503 -0.00000000000E+00 -0.00000000000E+00 -0.24799135175E+03  0.24799135175E+03  0.00000000000E+00 0. -1.
          6    2    1    2  501    0 -0.58898299488E+02  0.69745416641E+02 -0.12172716757E+03  0.22936628102E+03  0.17163319819E+03 0.  0.
         24    2    3    3    0    0 -0.77863790614E+02  0.71953882622E+02 -0.31636469221E+02  0.13715461633E+03  0.81057951387E+02 0.  0.
         -6    2    1    2    0  502  0.58898299488E+02 -0.69745416641E+02  0.57385499038E+02  0.20227475393E+03  0.17113897205E+03 0.  0.
        -24    2    5    5    0    0  0.53244990920E+02 -0.23743840683E+02 -0.27794104175E+02  0.10518840220E+03  0.83025831540E+02 0.  0.
          5    1    3    3  501    0  0.18965491126E+02 -0.22084659806E+01 -0.90090698352E+02  0.92211664692E+02  0.47000000000E+01 0. -1.
        -11    1    4    4    0    0 -0.34221200371E+02  0.28136825575E+02  0.27041361217E+02  0.51903821870E+02  0.00000000000E+00 0.  1.
         12    1    4    4    0    0 -0.43642590243E+02  0.43817057046E+02 -0.58677830438E+02  0.85250794461E+02  0.00000000000E+00 0. -1.
         -5    1    5    5    0  502  0.56533085673E+01 -0.46001575958E+02  0.85179603212E+02  0.97086351728E+02  0.47000000000E+01 0.  1.
         13    1    6    6    0    0  0.62345204345E+02 -0.24330474550E+02  0.87768723653E+01  0.67497629478E+02  0.00000000000E+00 0. -1.
        -14    1    6    6    0    0 -0.91002134243E+01  0.58663386654E+00 -0.36570976540E+02  0.37690772727E+02  0.00000000000E+00 0.  1.
</event>
<event>
12    1  0.9017558E-003  0.2464804E+03  0.7818608E-02  0.1115591E+00
         21   -1    0    0  501  502  0.00000000000E+00  0.00000000000E+00  0.33356391035E+03  0.33356391035E+03  0.00000000000E+00 0.  1.
         21   -1    0    0  502  503 -0.00000000000E+00 -0.00000000000E+00 -0.20499240910E+03  0.20499240910E+03  0.00000000000E+00 0. -1.
          6    2    1    2  501    0  0.18409500715E+02 -0.17465537546E+03  0.15455552803E+03  0.29071011409E+03  0.17257331571E+03 0.  0.
         24    2    3    3    0    0  0.68860141786E+02 -0.15237568401E+03  0.14399892541E+03  0.23436134574E+03  0.78927065408E+02 0.  0.
         -6    2    1    2    0  503 -0.18409500715E+02  0.17465537546E+03 -0.25984026786E+02  0.24784620536E+03  0.17294265515E+03 0.  0.
        -24    2    5    5    0    0  0.56572511878E+02  0.88980585000E+02 -0.28685706042E+02  0.13386436030E+03  0.77322723825E+02 0.  0.
          5    1    3    3  501    0 -0.50450641071E+02 -0.22279691452E+02  0.10556602628E+02  0.56348768351E+02  0.47000000000E+01 0. -1.
        -13    1    4    4    0    0 -0.15993916752E+02 -0.46223563542E+02  0.34866548917E+02  0.60067457354E+02  0.00000000000E+00 0.  1.
         14    1    4    4    0    0  0.84854058538E+02 -0.10615212047E+03  0.10913237649E+03  0.17429388839E+03  0.00000000000E+00 0. -1.
         -5    1    5    5    0  503 -0.74982012593E+02  0.85674790464E+02  0.27016792557E+01  0.11398184506E+03  0.47000000000E+01 0.  1.
         11    1    6    6    0    0  0.41885304085E+02  0.59627241294E+02 -0.55406249211E+02  0.91540368441E+02  0.00000000000E+00 0. -1.
        -12    1    6    6    0    0  0.14687207792E+02  0.29353343706E+02  0.26720543169E+02  0.42323991857E+02  0.00000000000E+00 0.  1.
</event>
<event>
12    1  0.9017558E-003  0.1822373E+03  0.7818608E-02  0.1169163E+00
         21   -1    0    0  503  502  0.00000000000E+00  0.00000000000E+00  0.21768322420E+03  0.21768322420E+03  0.00000000000E+00 0.  1.
         21   -1    0    0  501  503 -0.00000000000E+00 -0.00000000000E+00 -0.15523745559E+03  0.15523745559E+03  0.00000000000E+00 0.  1.
          6    2    1    2  501    0  0.34040121624E+01  0.59279568672E+02 -0.24104986436E+02  0.18382457690E+03  0.17229268743E+03 0.  0.
         24    2    3    3    0    0 -0.39817954347E+02  0.78938997042E+02  0.61892146808E+01  0.12730502158E+03  0.91386144450E+02 0.  0.
         -6    2    1    2    0  502 -0.34040121624E+01 -0.59279568672E+02  0.86550755049E+02  0.18909610288E+03  0.15729160297E+03 0.  0.
        -24    2    5    5    0    0 -0.52876606954E+02 -0.12121113950E+02  0.74936040005E+02  0.11960906026E+03  0.75815962951E+02 0.  0.
          5    1    3    3  501    0  0.43221966510E+02 -0.19659428370E+02 -0.30294201117E+02  0.56519555325E+02  0.47000000000E+01 0. -1.
        -13    1    4    4    0    0 -0.16491916090E+02  0.45911381717E+02  0.48493162069E+02  0.68785354800E+02  0.00000000000E+00 0.  1.
         14    1    4    4    0    0 -0.23326038258E+02  0.33027615325E+02 -0.42303947388E+02  0.58519666775E+02  0.00000000000E+00 0. -1.
         -5    1    5    5    0  502  0.49472594792E+02 -0.47158454722E+02  0.11614715044E+02  0.69487042625E+02  0.47000000000E+01 0.  1.
         13    1    6    6    0    0 -0.16572704470E+02  0.30870326714E+02  0.40862495756E+02  0.53827271567E+02  0.00000000000E+00 0. -1.
        -14    1    6    6    0    0 -0.36303902484E+02 -0.42991440664E+02  0.34073544249E+02  0.65781788693E+02  0.00000000000E+00 0.  1.
</event>
<event>
12    1  0.9017558E-003  0.1805504E+03  0.7818608E-02  0.1167584E+00
         21   -1    0    0  503  502  0.00000000000E+00  0.00000000000E+00  0.15982627824E+04  0.15982627824E+04  0.00000000000E+00 0. -1.
         21   -1    0    0  501  503 -0.00000000000E+00 -0.00000000000E+00 -0.21130173690E+02  0.21130173690E+02  0.00000000000E+00 0. -1.
          6    2    1    2  501    0  0.14421889844E+02  0.49182127547E+02  0.62064684125E+03  0.64601560544E+03  0.17177540087E+03 0.  0.
         24    2    3    3    0    0  0.10989946931E+02 -0.35669203753E+02  0.28146977832E+03  0.29633761546E+03  0.84839113634E+02 0.  0.
         -6    2    1    2    0  502 -0.14421889844E+02 -0.49182127547E+02  0.95648576746E+03  0.97337735065E+03  0.17312299335E+03 0.  0.
        -24    2    5    5    0    0  0.23563314791E+02 -0.30782676041E+02  0.89097981564E+03  0.89530984582E+03  0.78942290244E+02 0.  0.
          5    1    3    3  501    0  0.34319429137E+01  0.84851331300E+02  0.33917706293E+03  0.34967798998E+03  0.47000000000E+01 0. -1.
        -11    1    4    4    0    0  0.18917033523E+02  0.13862581863E+02  0.19473389097E+03  0.19614105543E+03  0.00000000000E+00 0.  1.
         12    1    4    4    0    0 -0.79270865927E+01 -0.49531785617E+02  0.86735887346E+02  0.10019656003E+03  0.00000000000E+00 0. -1.
         -5    1    5    5    0  502 -0.37985204636E+02 -0.18399451505E+02  0.65505951814E+02  0.78067504827E+02  0.47000000000E+01 0.  1.
         13    1    6    6    0    0 -0.42075879477E+01 -0.18244410446E+02  0.77995618346E+03  0.78018088314E+03  0.00000000000E+00 0. -1.
        -14    1    6    6    0    0  0.27770902739E+02 -0.12538265596E+02  0.11102363219E+03  0.11512896268E+03  0.00000000000E+00 0.  1.
</event>
<event>
12    1  0.9017558E-003  0.3462438E+03  0.7818608E-02  0.1064463E+00
         21   -1    0    0  503  502  0.00000000000E+00  0.00000000000E+00  0.57344067313E+02  0.57344067313E+02  0.00000000000E+00 0.  1.
         21   -1    0    0  501  503 -0.00000000000E+00 -0.00000000000E+00 -0.26366839877E+04  0.26366839877E+04  0.00000000000E+00 0.  1.
          6    2    1    2  501    0 -0.29830118873E+03 -0.26819913345E+02 -0.19079992890E+04  0.19386586231E+04  0.16802697182E+03 0.  0.
         24    2    3    3    0    0 -0.10623771378E+03  0.40966676346E+02 -0.77040080246E+03  0.78296151457E+03  0.80911164049E+02 0.  0.
         -6    2    1    2    0  502  0.29830118873E+03  0.26819913345E+02 -0.67134063144E+03  0.75536943193E+03  0.17372918099E+03 0.  0.
        -24    2    5    5    0    0  0.17775437769E+03 -0.22149666430E+02 -0.51987070650E+03  0.55563265125E+03  0.79842752640E+02 0.  0.
          5    1    3    3  501    0 -0.19206347495E+03 -0.67786589691E+02 -0.11375984865E+04  0.11556971085E+04  0.47000000000E+01 0. -1.
        -13    1    4    4    0    0 -0.98360975108E+02  0.10288266716E+02 -0.68040231648E+03  0.68755221048E+03  0.00000000000E+00 0.  1.
         14    1    4    4    0    0 -0.78767386755E+01  0.30678409630E+02 -0.89998485975E+02  0.95409304092E+02  0.00000000000E+00 0. -1.
         -5    1    5    5    0  502  0.12054681105E+03  0.48969579775E+02 -0.15146992494E+03  0.19973678069E+03  0.47000000000E+01 0.  1.
         11    1    6    6    0    0  0.17165444992E+03  0.15325600061E+01 -0.45444116080E+03  0.48578222234E+03  0.00000000000E+00 0. -1.
        -12    1    6    6    0    0  0.60999277668E+01 -0.23682226436E+02 -0.65429545698E+02  0.69850428904E+02  0.00000000000E+00 0.  1.
</event>
<event>
12    1  0.9017558E-003  0.1810358E+03  0.7818608E-02  0.1167692E+00
         21   -1    0    0  503  502  0.00000000000E+00  0.00000000000E+00  0.69050117258E+02  0.69050117258E+02  0.00000000000E+00 0. -1.
         21   -1    0    0  501  503 -0.00000000000E+00 -0.00000000000E+00 -0.46601426917E+03  0.46601426917E+03  0.00000000000E+00 0. -1.
          6    2    1    2  501    0  0.38193744827E+02 -0.16303771502E+02 -0.18462118698E+03  0.25602406385E+03  0.17244930699E+03 0.  0.
         24    2    3    3    0    0 -0.31385449259E+02 -0.23868758166E+02 -0.15632443880E+03  0.18038485953E+03  0.80911082928E+02 0.  0.
         -6    2    1    2    0  502 -0.38193744827E+02  0.16303771502E+02 -0.21234296493E+03  0.27904032258E+03  0.17620837596E+03 0.  0.
        -24    2    5    5    0    0 -0.48197855506E+02 -0.42952346833E+02 -0.18681605398E+03  0.21357977741E+03  0.80920614932E+02 0.  0.
          5    1    3    3  501    0  0.69579194086E+02  0.75649866633E+01 -0.28296748186E+02  0.75639204324E+02  0.47000000000E+01 0. -1.
        -11    1    4    4    0    0  0.54273973258E+01  0.26415190479E+02 -0.37227117377E+02  0.45968219434E+02  0.00000000000E+00 0.  1.
         12    1    4    4    0    0 -0.36812846585E+02 -0.50283948645E+02 -0.11909732142E+03  0.13441664009E+03  0.00000000000E+00 0. -1.
         -5    1    5    5    0  502  0.10004110680E+02  0.59256118335E+02 -0.25526910955E+02  0.65460545167E+02  0.47000000000E+01 0.  1.
         11    1    6    6    0    0 -0.14675561768E+02  0.21397729522E+02 -0.82701127155E+02  0.86675898464E+02  0.00000000000E+00 0. -1.
        -12    1    6    6    0    0 -0.33522293739E+02 -0.64350076355E+02 -0.10411492682E+03  0.12690387895E+03  0.00000000000E+00 0.  1.
</event>
<event>
12    1  0.9017558E-003  0.2111932E+03  0.7818608E-02  0.1141178E+00
         21   -1    0    0  503  502  0.00000000000E+00  0.00000000000E+00  0.45478922404E+03  0.45478922404E+03  0.00000000000E+00 0.  1.
         21   -1    0    0  501  503 -0.00000000000E+00 -0.00000000000E+00 -0.10671823763E+03  0.10671823763E+03  0.00000000000E+00 0.  1.
          6    2    1    2  501    0  0.26790360759E+02  0.10894339376E+03  0.89411542878E+02  0.22934030404E+03  0.17893061388E+03 0.  0.
         24    2    3    3    0    0 -0.18025622928E+02  0.13540138112E+03  0.74914609995E+02  0.17511163495E+03  0.79958919529E+02 0.  0.
         -6    2    1    2    0  502 -0.26790360759E+02 -0.10894339376E+03  0.25865944353E+03  0.33216715763E+03  0.17562439013E+03 0.  0.
        -24    2    5    5    0    0  0.83340118430E+01 -0.11011137358E+03  0.97411869141E+02  0.16706732125E+03  0.78920512122E+02 0.  0.
          5    1    3    3  501    0  0.44815983687E+02 -0.26457987355E+02  0.14496932883E+02  0.54228669094E+02  0.47000000000E+01 0. -1.
        -11    1    4    4    0    0  0.61792333848E+01  0.13383688334E+03  0.64888797577E+02  0.14886588030E+03  0.00000000000E+00 0.  1.
         12    1    4    4    0    0 -0.24204856313E+02  0.15644977842E+01  0.10025812419E+02  0.26245754649E+02  0.00000000000E+00 0. -1.
         -5    1    5    5    0  502 -0.35124372602E+02  0.11679798207E+01  0.16124757439E+03  0.16509983638E+03  0.47000000000E+01 0.  1.
         11    1    6    6    0    0 -0.16917459664E+02 -0.10875129514E+03  0.83930336724E+02  0.13841006487E+03  0.00000000000E+00 0. -1.
        -12    1    6    6    0    0  0.25251471507E+02 -0.13600784470E+01  0.13481532417E+02  0.28657256376E+02  0.00000000000E+00 0.  1.
</event>
<event>
12    1  0.9017558E-003  0.2172676E+03  0.7818608E-02  0.1136059E+00
         21   -1    0    0  501  502  0.00000000000E+00  0.00000000000E+00  0.43960336661E+02  0.43960336661E+02  0.00000000000E+00 0. -1.
         21   -1    0    0  502  503 -0.00000000000E+00 -0.00000000000E+00 -0.12181677962E+04  0.12181677962E+04  0.00000000000E+00 0. -1.
          6    2    1    2  501    0 -0.13086534014E+03  0.13286633700E+02 -0.80596236241E+03  0.83456568343E+03  0.17211123863E+03 0.  0.
         24    2    3    3    0    0 -0.54295875073E+02 -0.43746567239E+02 -0.33725822802E+03  0.35621296359E+03  0.91009663596E+02 0.  0.
         -6    2    1    2    0  503  0.13086534014E+03 -0.13286633700E+02 -0.36824509708E+03  0.42756244938E+03  0.17292462146E+03 0.  0.
        -24    2    5    5    0    0  0.15158394905E+03  0.21357621086E+02 -0.32529339314E+03  0.36843188184E+03  0.80575544389E+02 0.  0.
          5    1    3    3  501    0 -0.76569465063E+02  0.57033200939E+02 -0.46870413439E+03  0.47835271985E+03  0.47000000000E+01 0. -1.
        -11    1    4    4    0    0 -0.34326497191E+02  0.46458368153E+00 -0.31376337227E+02  0.46508050756E+02  0.00000000000E+00 0.  1.
         12    1    4    4    0    0 -0.19969377882E+02 -0.44211150921E+02 -0.30588189079E+03  0.30970491283E+03  0.00000000000E+00 0. -1.
         -5    1    5    5    0  503 -0.20718608912E+02 -0.34644254785E+02 -0.42951703947E+02  0.59130567533E+02  0.47000000000E+01 0.  1.
         11    1    6    6    0    0  0.33545451568E+01  0.20694437779E+02 -0.19619634172E+02  0.28713111521E+02  0.00000000000E+00 0. -1.
        -12    1    6    6    0    0  0.14822940389E+03  0.66318330685E+00 -0.30567375896E+03  0.33971877032E+03  0.00000000000E+00 0.  1.
</event>
<event>
12    1  0.9017558E-003  0.1738721E+03  0.7818608E-02  0.1174157E+00
         21   -1    0    0  501  502  0.00000000000E+00  0.00000000000E+00  0.18464854945E+02  0.18464854945E+02  0.00000000000E+00 0. -1.
         21   -1    0    0  502  503 -0.00000000000E+00 -0.00000000000E+00 -0.21477706493E+04  0.21477706493E+04  0.00000000000E+00 0. -1.
          6    2    1    2  501    0  0.47778771870E+01 -0.20587102408E+02 -0.53373541968E+03  0.56134214736E+03  0.17258288239E+03 0.  0.
         24    2    3    3    0    0 -0.47581007057E+02  0.31127495138E+02 -0.33343092676E+03  0.34789465443E+03  0.81373426081E+02 0.  0.
         -6    2    1    2    0  503 -0.47778771870E+01  0.20587102408E+02 -0.15955703747E+04  0.16048933569E+04  0.17143864650E+03 0.  0.
        -24    2    5    5    0    0  0.60344385959E+02  0.28656524482E+02 -0.10882850921E+04  0.10933599047E+04  0.81294515886E+02 0.  0.
          5    1    3    3  501    0  0.52358884244E+02 -0.51714597547E+02 -0.20030449291E+03  0.21344749294E+03  0.47000000000E+01 0. -1.
        -13    1    4    4    0    0  0.57433284494E+01  0.40518671078E+02 -0.19507377358E+03  0.19932015870E+03  0.00000000000E+00 0.  1.
         14    1    4    4    0    0 -0.53324335507E+02 -0.93911759393E+01 -0.13835715319E+03  0.14857449573E+03  0.00000000000E+00 0. -1.
         -5    1    5    5    0  503 -0.65122263146E+02 -0.80694220735E+01 -0.50728528262E+03  0.51153345218E+03  0.47000000000E+01 0.  1.
         11    1    6    6    0    0 -0.29510815454E+01  0.24816222010E+02 -0.65321940699E+03  0.65369729037E+03  0.00000000000E+00 0. -1.
        -12    1    6    6    0    0  0.63295467505E+02  0.38403024723E+01 -0.43506568506E+03  0.43966261434E+03  0.00000000000E+00 0.  1.
</event>
<event>
12    1  0.9017558E-003  0.1845250E+03  0.7818608E-02  0.1164685E+00
         21   -1    0    0  503  502  0.00000000000E+00  0.00000000000E+00  0.20458909150E+03  0.20458909150E+03  0.00000000000E+00 0.  1.
         21   -1    0    0  501  503 -0.00000000000E+00 -0.00000000000E+00 -0.16608528401E+03  0.16608528401E+03  0.00000000000E+00 0.  1.
          6    2    1    2  501    0 -0.19945755463E+01 -0.66487835066E+02 -0.97663284135E+01  0.18478329783E+03  0.17211878295E+03 0.  0.
         24    2    3    3    0    0  0.68547936857E+01  0.30786725686E+02  0.58496740674E+01  0.85755013800E+02  0.79529196087E+02 0.  0.
         -6    2    1    2    0  502  0.19945755463E+01  0.66487835066E+02  0.48270135902E+02  0.18589107767E+03  0.16673594752E+03 0.  0.
        -24    2    5    5    0    0  0.50154453251E+02  0.66383810801E+02 -0.32306340320E+01  0.11522422586E+03  0.79648639100E+02 0.  0.
          5    1    3    3  501    0 -0.88493692319E+01 -0.97274560752E+02 -0.15616002481E+02  0.99028284035E+02  0.47000000000E+01 0. -1.
        -11    1    4    4    0    0  0.11750253153E+02 -0.17551398186E+02  0.25704534314E+02  0.33269251746E+02  0.00000000000E+00 0.  1.
         12    1    4    4    0    0 -0.48954594671E+01  0.48338123873E+02 -0.19854860247E+02  0.52485762054E+02  0.00000000000E+00 0. -1.
         -5    1    5    5    0  502 -0.48159877705E+02  0.10402426496E+00  0.51500769934E+02  0.70666851815E+02  0.47000000000E+01 0.  1.
         13    1    6    6    0    0  0.49145617977E+02  0.60286343460E+02  0.28545406540E+02  0.82852732053E+02  0.00000000000E+00 0. -1.
        -14    1    6    6    0    0  0.10088352745E+01  0.60974673406E+01 -0.31776040572E+02  0.32371493803E+02  0.00000000000E+00 0.  1.
</event>
<event>
12    1  0.9017558E-003  0.2779769E+03  0.7818608E-02  0.1097075E+00
         21   -1    0    0  503  502  0.00000000000E+00  0.00000000000E+00  0.31008427565E+03  0.31008427565E+03  0.00000000000E+00 0.  1.
         21   -1    0    0  501  503 -0.00000000000E+00 -0.00000000000E+00 -0.32237582941E+03  0.32237582941E+03  0.00000000000E+00 0.  1.
          6    2    1    2  501    0  0.21414799960E+03  0.25747314209E+02 -0.15865613261E+03  0.32006710164E+03  0.17535361764E+03 0.  0.
         24    2    3    3    0    0  0.12390766511E+03 -0.14543212914E+02 -0.18064147916E+02  0.14815188793E+03  0.77833501418E+02 0.  0.
         -6    2    1    2    0  502 -0.21414799960E+03 -0.25747314209E+02  0.14636457886E+03  0.31239300342E+03  0.17217580760E+03 0.  0.
        -24    2    5    5    0    0 -0.16550932139E+03  0.15952579951E+01  0.33557227019E+02  0.18645283548E+03  0.79010708508E+02 0.  0.
          5    1    3    3  501    0  0.90240334485E+02  0.40290527122E+02 -0.14059198470E+03  0.17191521371E+03  0.47000000000E+01 0. -1.
        -13    1    4    4    0    0  0.85139762989E+02 -0.10599180065E+02 -0.48635306015E+02  0.98623094917E+02  0.00000000000E+00 0.  1.
         14    1    4    4    0    0  0.38767902123E+02 -0.39440328485E+01  0.30571158099E+02  0.49528793016E+02  0.00000000000E+00 0. -1.
         -5    1    5    5    0  502 -0.48638678209E+02 -0.27342572204E+02  0.11280735184E+03  0.12594016794E+03  0.47000000000E+01 0.  1.
         11    1    6    6    0    0  0.46077632823E+01 -0.63616926497E+01 -0.79378114803E+01  0.11167428842E+02  0.00000000000E+00 0. -1.
        -12    1    6    6    0    0 -0.17011708467E+03  0.79569506448E+01  0.41495038499E+02  0.17528540664E+03  0.00000000000E+00 0.  1.
</event>
<event>
12    1  0.9017558E-003  0.3292578E+03  0.7818608E-02  0.1071479E+00
         21   -1    0    0  501  502  0.00000000000E+00  0.00000000000E+00  0.43432447499E+03  0.43432447499E+03  0.00000000000E+00 0. -1.
         21   -1    0    0  502  503 -0.00000000000E+00 -0.00000000000E+00 -0.29754285793E+03  0.29754285793E+03  0.00000000000E+00 0. -1.
          6    2    1    2  501    0 -0.17523683738E+03 -0.21873139276E+03 -0.78638572394E+02  0.33839995685E+03  0.17256631877E+03 0.  0.
         24    2    3    3    0    0 -0.25819031173E+02 -0.58818158881E+02  0.56252255855E+01  0.10383567817E+03  0.81388001039E+02 0.  0.
         -6    2    1    2    0  503  0.17523683738E+03  0.21873139276E+03  0.21542018946E+03  0.39346737607E+03  0.17279857248E+03 0.  0.
        -24    2    5    5    0    0  0.14178778415E+03  0.20141376223E+03  0.23592869510E+03  0.35032310307E+03  0.79954036959E+02 0.  0.
          5    1    3    3  501    0 -0.14941780621E+03 -0.15991323388E+03 -0.84263797980E+02  0.23456427868E+03  0.47000000000E+01 0. -1.
        -11    1    4    4    0    0 -0.26105532005E+02 -0.79092318005E+02  0.25552616343E+01  0.83328404105E+02  0.00000000000E+00 0.  1.
         12    1    4    4    0    0  0.28650083185E+00  0.20274159124E+02  0.30699639512E+01  0.20507274065E+02  0.00000000000E+00 0. -1.
         -5    1    5    5    0  503  0.33449053230E+02  0.17317630531E+02 -0.20508505636E+02  0.43144272999E+02  0.47000000000E+01 0.  1.
         11    1    6    6    0    0  0.12702042849E+03  0.17034571193E+03  0.15692065907E+03  0.26415136583E+03  0.00000000000E+00 0. -1.
        -12    1    6    6    0    0  0.14767355660E+02  0.31068050297E+02  0.79008036023E+02  0.86171737238E+02  0.00000000000E+00 0.  1.
</event>
<event>
12    1  0.9017558E-003  0.1971371E+03  0.7818608E-02  0.1152382E+00
         21   -1    0    0  503  502  0.00000000000E+00  0.00000000000E+00  0.11165129521E+03  0.11165129521E+03  0.00000000000E+00 0. -1.
         21   -1    0    0  501  503 -0.00000000000E+00 -0.00000000000E+00 -0.40652986767E+03  0.40652986767E+03  0.00000000000E+00 0. -1.
          6    2    1    2  501    0  0.52927567135E+02 -0.79325926598E+02 -0.24739058784E+03  0.31633076359E+03  0.17253729756E+03 0.  0.
         24    2    3    3    0    0  0.41749544080E+02 -0.32702280158E+02 -0.39033353399E+02  0.10247674855E+03  0.78520174206E+02 0.  0.
         -6    2    1    2    0  502 -0.52927567135E+02  0.79325926598E+02 -0.47487984619E+02  0.20185039928E+03  0.17144837419E+03 0.  0.
        -24    2    5    5    0    0 -0.69004615909E+02  0.29449571346E+02  0.23102009931E+02  0.11380972890E+03  0.82401682384E+02 0.  0.
          5    1    3    3  501    0  0.11178023055E+02 -0.46623646440E+02 -0.20835723444E+03  0.21385401504E+03  0.47000000000E+01 0. -1.
        -13    1    4    4    0    0  0.64173135579E+01 -0.35001851820E+02  0.14390542556E+02  0.38384883212E+02  0.00000000000E+00 0.  1.
         14    1    4    4    0    0  0.35332230522E+02  0.22995716620E+01 -0.53423895955E+02  0.64091865338E+02  0.00000000000E+00 0. -1.
         -5    1    5    5    0  502  0.16077048774E+02  0.49876355252E+02 -0.70589994550E+02  0.88040670380E+02  0.47000000000E+01 0.  1.
         13    1    6    6    0    0 -0.74429949960E+02  0.40230766887E+02 -0.34143586164E+01  0.84675792882E+02  0.00000000000E+00 0. -1.
        -14    1    6    6    0    0  0.54253340514E+01 -0.10781195541E+02  0.26516368547E+02  0.29133936016E+02  0.00000000000E+00 0.  1.
</event>
<event>
12    1  0.9017558E-003  0.1902947E+03  0.7818608E-02  0.1158905E+00
         21   -1    0    0  501  502  0.00000000000E+00  0.00000000000E+00  0.90487422071E+03  0.90487422071E+03  0.00000000000E+00 0.  1.
         21   -1    0    0  502  503 -0.00000000000E+00 -0.00000000000E+00 -0.47214300322E+02  0.47214300322E+02  0.00000000000E+00 0. -1.
          6    2    1    2  501    0 -0.11479427901E+02 -0.69600181196E+02  0.23177063942E+03  0.29791006081E+03  0.17336900689E+03 0.  0.
         24    2    3    3    0    0 -0.20553658820E+02  0.46876606929E+01  0.38355550563E+02  0.90467269382E+02  0.79175447689E+02 0.  0.
         -6    2    1    2    0  503  0.11479427901E+02  0.69600181196E+02  0.62588928097E+03  0.65417846022E+03  0.17673738511E+03 0.  0.
        -24    2    5    5    0    0  0.38835890219E+02  0.81896424014E+02  0.60679986369E+03  0.61831664947E+03  0.76773392536E+02 0.  0.
          5    1    3    3  501    0  0.90742309192E+01 -0.74287841889E+02  0.19341508886E+03  0.20744279143E+03  0.47000000000E+01 0. -1.
        -13    1    4    4    0    0  0.13205917024E+02  0.15840744734E+02  0.49157493375E+02  0.53308391395E+02  0.00000000000E+00 0.  1.
         14    1    4    4    0    0 -0.33759575844E+02 -0.11153084041E+02 -0.10801942812E+02  0.37158877988E+02  0.00000000000E+00 0. -1.
         -5    1    5    5    0  503 -0.27356462318E+02 -0.12296242819E+02  0.19089417271E+02  0.35861810743E+02  0.47000000000E+01 0.  1.
         11    1    6    6    0    0  0.26175051290E+02  0.46376015601E+02  0.53091212516E+03  0.53357619210E+03  0.00000000000E+00 0. -1.
        -12    1    6    6    0    0  0.12660838928E+02  0.35520408413E+02  0.75887738535E+02  0.84740457375E+02  0.00000000000E+00 0.  1.
</event>
<event>
12    1  0.9017558E-003  0.1923879E+03  0.7818608E-02  0.1157180E+00
         21   -1    0    0  503  502  0.00000000000E+00  0.00000000000E+00  0.10990004995E+03  0.10990004995E+03  0.00000000000E+00 0. -1.
         21   -1    0    0  501  503 -0.00000000000E+00 -0.00000000000E+00 -0.38069882129E+03  0.38069882129E+03  0.00000000000E+00 0.  1.
          6    2    1    2  501    0  0.29593753328E+02  0.71150588016E+02 -0.22360476119E+03  0.29250698713E+03  0.17211348547E+03 0.  0.
         24    2    3    3    0    0  0.60474910186E+02  0.51838909556E+02 -0.22907164909E+03  0.25537797371E+03  0.79997510806E+02 0.  0.
         -6    2    1    2    0  502 -0.29593753328E+02 -0.71150588016E+02 -0.47194010154E+02  0.19809188412E+03  0.17628080879E+03 0.  0.
        -24    2    5    5    0    0 -0.80036406448E+02 -0.71023818531E+02 -0.58310659136E+02  0.14622525507E+03  0.80817591495E+02 0.  0.
          5    1    3    3  501    0 -0.30881156857E+02  0.19311678460E+02  0.54668878996E+01  0.37129013414E+02  0.47000000000E+01 0. -1.
        -13    1    4    4    0    0  0.79132358518E+02  0.51080145823E+02 -0.19332805095E+03  0.21505080039E+03  0.00000000000E+00 0.  1.
         14    1    4    4    0    0 -0.18657448333E+02  0.75876373276E+00 -0.35743598138E+02  0.40327173327E+02  0.00000000000E+00 0. -1.
         -5    1    5    5    0  502  0.50442653120E+02 -0.12676948490E+00  0.11116648982E+02  0.51866629048E+02  0.47000000000E+01 0.  1.
         13    1    6    6    0    0 -0.17288731593E+01 -0.39552291212E+02  0.61024006874E+01  0.40057608973E+02  0.00000000000E+00 0. -1.
        -14    1    6    6    0    0 -0.78307533289E+02 -0.31471527319E+02 -0.64413059823E+02  0.10616764609E+03  0.00000000000E+00 0.  1.
</event>
<event>
12    1  0.9017558E-003  0.1985387E+03  0.7818608E-02  0.1151535E+00
         21   -1    0    0  503  502  0.00000000000E+00  0.00000000000E+00  0.77036569153E+02  0.77036569153E+02  0.00000000000E+00 0.  1.
         21   -1    0    0  501  503 -0.00000000000E+00 -0.00000000000E+00 -0.54384561965E+03  0.54384561965E+03  0.00000000000E+00 0.  1.
          6    2    1    2  501    0  0.94995727666E+02  0.40102565619E+01 -0.31779569523E+03  0.37471554363E+03  0.17429103332E+03 0.  0.
         24    2    3    3    0    0  0.12629350005E+03 -0.14775624356E+02 -0.19160968122E+03  0.24327179136E+03  0.79363261667E+02 0.  0.
         -6    2    1    2    0  502 -0.94995727666E+02 -0.40102565619E+01 -0.14901335526E+03  0.24616664518E+03  0.17132649158E+03 0.  0.
        -24    2    5    5    0    0 -0.81941744605E+02  0.53697758065E+02 -0.13431396840E+03  0.18502105335E+03  0.81207446357E+02 0.  0.
          5    1    3    3  501    0 -0.31297772386E+02  0.18785880918E+02 -0.12618601401E+03  0.13144375227E+03  0.47000000000E+01 0. -1.
        -11    1    4    4    0    0  0.11435185961E+03  0.28364648601E+01 -0.10913950808E+03  0.15810068170E+03  0.00000000000E+00 0.  1.
         12    1    4    4    0    0  0.11941640442E+02 -0.17612089216E+02 -0.82470173139E+02  0.85171109659E+02  0.00000000000E+00 0. -1.
         -5    1    5    5    0  502 -0.13053983061E+02 -0.57708014627E+02 -0.14699386864E+02  0.61145591829E+02  0.47000000000E+01 0.  1.
         11    1    6    6    0    0 -0.58542994434E+02  0.34858048469E+02 -0.26511195890E+02  0.73110937949E+02  0.00000000000E+00 0. -1.
        -12    1    6    6    0    0 -0.23398750171E+02  0.18839709597E+02 -0.10780277251E+03  0.11191011540E+03  0.00000000000E+00 0.  1.
</event>
<event>
12    1  0.9017558E-003  0.2992187E+03  0.7818608E-02  0.1085688E+00
         21   -1    0    0  501  502  0.00000000000E+00  0.00000000000E+00  0.16899399113E+04  0.16899399113E+04  0.00000000000E+00 0. -1.
         21   -1    0    0  502  503 -0.00000000000E+00 -0.00000000000E+00 -0.57055880849E+02  0.57055880849E+02  0.00000000000E+00 0. -1.
          6    2    1    2  501    0  0.24472217491E+03 -0.23512057443E+01  0.58015317618E+03  0.65256713329E+03  0.17138169262E+03 0.  0.
         24    2    3    3    0    0  0.18308177855E+03 -0.15991221121E+02  0.27129780806E+03  0.33729056123E+03  0.79923496175E+02 0.  0.
         -6    2    1    2    0  503 -0.24472217491E+03  0.23512057443E+01  0.10527308543E+04  0.10944286589E+04  0.17215506594E+03 0.  0.
        -24    2    5    5    0    0 -0.15128107467E+03 -0.58822705927E+02  0.53589564273E+03  0.56564305715E+03  0.80136470587E+02 0.  0.
          5    1    3    3  501    0  0.61640396354E+02  0.13640015376E+02  0.30885536811E+03  0.31527657207E+03  0.47000000000E+01 0.  1.
        -13    1    4    4    0    0  0.10890181691E+02  0.22295294686E+01 -0.42116020876E+01  0.11887154876E+02  0.00000000000E+00 0.  1.
         14    1    4    4    0    0  0.17219159686E+03 -0.18220750589E+02  0.27550941015E+03  0.32540340635E+03  0.00000000000E+00 0. -1.
         -5    1    5    5    0  503 -0.93441100242E+02  0.61173911671E+02  0.51683521159E+03  0.52878560176E+03  0.47000000000E+01 0.  1.
         11    1    6    6    0    0 -0.61775562947E+02  0.16599369678E+02  0.19166434962E+03  0.20205687854E+03  0.00000000000E+00 0. -1.
        -12    1    6    6    0    0 -0.89505511718E+02 -0.75422075606E+02  0.34423129311E+03  0.36358617860E+03  0.00000000000E+00 0.  1.
</event>
<event>
12    1  0.9017558E-003  0.2902246E+03  0.7818608E-02  0.1090233E+00
         21   -1    0    0  503  502  0.00000000000E+00  0.00000000000E+00  0.10030647162E+04  0.10030647162E+04  0.00000000000E+00 0.  1.
         21   -1    0    0  501  503 -0.00000000000E+00 -0.00000000000E+00 -0.11435936907E+03  0.11435936907E+03  0.00000000000E+00 0.  1.
          6    2    1    2  501    0 -0.21224455557E+03 -0.97335367568E+02  0.15634823194E+03  0.32965901691E+03  0.17236116922E+03 0.  0.
         24    2    3    3    0    0 -0.68959163176E+02 -0.25006366781E+02  0.53465750159E+00  0.10591329515E+03  0.76398008257E+02 0.  0.
         -6    2    1    2    0  502  0.21224455557E+03  0.97335367568E+02  0.73235711517E+03  0.78776506834E+03  0.17235119264E+03 0.  0.
        -24    2    5    5    0    0  0.18091222924E+03  0.46450199529E+02  0.38642381644E+03  0.43667682847E+03  0.80476275322E+02 0.  0.
          5    1    3    3  501    0 -0.14328539239E+03 -0.72329000787E+02  0.15581357444E+03  0.22374572176E+03  0.47000000000E+01 0. -1.
        -11    1    4    4    0    0 -0.28110432488E+02 -0.48705979362E+01  0.37597277713E+02  0.47196127281E+02  0.00000000000E+00 0.  1.
         12    1    4    4    0    0 -0.40848730687E+02 -0.20135768845E+02 -0.37062620211E+02  0.58717167870E+02  0.00000000000E+00 0. -1.
         -5    1    5    5    0  502  0.31332326330E+02  0.50885168039E+02  0.34593329873E+03  0.35108823987E+03  0.47000000000E+01 0.  1.
         13    1    6    6    0    0  0.52168981707E+02  0.51961702374E+02  0.16057450969E+03  0.17665161853E+03  0.00000000000E+00 0. -1.
        -14    1    6    6    0    0  0.12874324753E+03 -0.55115028444E+01  0.22584930674E+03  0.26002520994E+03  0.00000000000E+00 0.  1.
</event>
<event>
12    1  0.9017558E-003  0.2091594E+03  0.7818608E-02  0.1142757E+00
         21   -1    0    0  503  502  0.00000000000E+00  0.00000000000E+00  0.91912620806E+02  0.91912620806E+02  0.00000000000E+00 0. -1.
         21   -1    0    0  501  503 -0.00000000000E+00 -0.00000000000E+00 -0.53284348063E+03  0.53284348063E+03  0.00000000000E+00 0. -1.
          6    2    1    2  501    0  0.49182210935E+02  0.99827602668E+02 -0.32892323886E+03  0.38979242974E+03  0.17709658689E+03 0.  0.
         24    2    3    3    0    0  0.20583700773E+02  0.55194825626E+02 -0.32028580986E+03  0.33587902927E+03  0.82228734596E+02 0.  0.
         -6    2    1    2    0  502 -0.49182210935E+02 -0.99827602668E+02 -0.11200762096E+03  0.23496367170E+03  0.17400511412E+03 0.  0.
        -24    2    5    5    0    0  0.20169957200E+02 -0.10139835602E+03 -0.46844948787E+02  0.13967225374E+03  0.81396777964E+02 0.  0.
          5    1    3    3  501    0  0.28598510163E+02  0.44632777042E+02 -0.86374290038E+01  0.53913400466E+02  0.47000000000E+01 0. -1.
        -11    1    4    4    0    0  0.47306584981E+02  0.35235908999E+02 -0.13087517224E+03  0.14355414649E+03  0.00000000000E+00 0.  1.
         12    1    4    4    0    0 -0.26722884208E+02  0.19958916627E+02 -0.18941063762E+03  0.19232488278E+03  0.00000000000E+00 0. -1.
         -5    1    5    5    0  502 -0.69352168135E+02  0.15707533479E+01 -0.65162672176E+02  0.95291417957E+02  0.47000000000E+01 0.  1.
         13    1    6    6    0    0  0.17281617519E+02 -0.11020407425E+03 -0.57543263945E+02  0.12551820390E+03  0.00000000000E+00 0. -1.
        -14    1    6    6    0    0  0.28883396812E+01  0.88057182329E+01  0.10698315159E+02  0.14154049843E+02  0.00000000000E+00 0.  1.
</event>
<event>
12    1  0.9017558E-003  0.1742360E+03  0.7818608E-02  0.1173597E+00
         21   -1    0    0  503  502  0.00000000000E+00  0.00000000000E+00  0.57184155906E+03  0.57184155906E+03  0.00000000000E+00 0. -1.
         21   -1    0    0  501  503 -0.00000000000E+00 -0.00000000000E+00 -0.86733596256E+02  0.86733596256E+02  0.00000000000E+00 0. -1.
          6    2    1    2  501    0  0.15244193608E+02  0.25590200569E+02  0.36952302532E+02  0.17774078881E+03  0.17128651886E+03 0.  0.
         24    2    3    3    0    0  0.67632264226E+02  0.12387159241E+02  0.55893007788E+02  0.12029802984E+03  0.81363522443E+02 0.  0.
         -6    2    1    2    0  502 -0.15244193608E+02 -0.25590200569E+02  0.44815566027E+03  0.48083436650E+03  0.17167104698E+03 0.  0.
        -24    2    5    5    0    0  0.25263168116E+02 -0.76974407472E+02  0.25800224706E+03  0.27968369256E+03  0.71375915580E+02 0.  0.
          5    1    3    3  501    0 -0.52388070619E+02  0.13203041328E+02 -0.18940705256E+02  0.57442758978E+02  0.47000000000E+01 0. -1.
        -13    1    4    4    0    0  0.45757283979E+01 -0.27856325178E+02  0.29864010297E+02  0.41094662109E+02  0.00000000000E+00 0.  1.
         14    1    4    4    0    0  0.63056535828E+02  0.40243484419E+02  0.26028997491E+02  0.79203367727E+02  0.00000000000E+00 0. -1.
         -5    1    5    5    0  502 -0.40507361723E+02  0.51384206903E+02  0.19015341321E+03  0.20115067394E+03  0.47000000000E+01 0.  1.
         13    1    6    6    0    0 -0.18051795889E+02  0.85452477705E-01  0.63874995772E+02  0.66376876409E+02  0.00000000000E+00 0. -1.
        -14    1    6    6    0    0  0.43314964005E+02 -0.77059859950E+02  0.19412725129E+03  0.21330681615E+03  0.00000000000E+00 0.  1.
</event>
<event>
12    1  0.9017558E-003  0.1821142E+03  0.7818608E-02  0.1165977E+00
         21   -1    0    0  503  502  0.00000000000E+00  0.00000000000E+00  0.61125012211E+02  0.61125012211E+02  0.00000000000E+00 0. -1.
         21   -1    0    0  501  503 -0.00000000000E+00 -0.00000000000E+00 -0.58265281155E+03  0.58265281155E+03  0.00000000000E+00 0.  1.
          6    2    1    2  501    0  0.72759825144E+01  0.56799815738E+02 -0.34725023403E+03  0.39170990010E+03  0.17197314271E+03 0.  0.
         24    2    3    3    0    0 -0.86844952269E+01  0.95159235741E+02 -0.31507029913E+03  0.33894798047E+03  0.80534088864E+02 0.  0.
         -6    2    1    2    0  502 -0.72759825144E+01 -0.56799815738E+02 -0.17427756531E+03  0.25206792366E+03  0.17287686190E+03 0.  0.
        -24    2    5    5    0    0  0.36035594443E+01 -0.58550710617E+02 -0.22849915396E+02  0.10016712306E+03  0.77911247924E+02 0.  0.
          5    1    3    3  501    0  0.15960477741E+02 -0.38359420004E+02 -0.32179934904E+02  0.52761919631E+02  0.47000000000E+01 0. -1.
        -11    1    4    4    0    0 -0.15652391377E+02 -0.31537160647E+01 -0.11226263963E+02  0.19518511301E+02  0.00000000000E+00 0.  1.
         12    1    4    4    0    0  0.69678961500E+01  0.98312951806E+02 -0.30384403516E+03  0.31942946917E+03  0.00000000000E+00 0. -1.
         -5    1    5    5    0  502 -0.10879541959E+02  0.17508948797E+01 -0.15142764992E+03  0.15190080061E+03  0.47000000000E+01 0.  1.
         13    1    6    6    0    0  0.24261831033E+02 -0.56931875103E+02 -0.39643577898E+02  0.73494816936E+02  0.00000000000E+00 0. -1.
        -14    1    6    6    0    0 -0.20658271589E+02 -0.16188355141E+01  0.16793662503E+02  0.26672306119E+02  0.00000000000E+00 0.  1.
</event>
<event>
12    1  0.9017558E-003  0.2231360E+03  0.7818608E-02  0.1131713E+00
         21   -1    0    0  501  502  0.00000000000E+00  0.00000000000E+00  0.11223566873E+04  0.11223566873E+04  0.00000000000E+00 0. -1.
         21   -1    0    0  502  503 -0.00000000000E+00 -0.00000000000E+00 -0.53651446050E+02  0.53651446050E+02  0.00000000000E+00 0. -1.
          6    2    1    2  501    0  0.11243611819E+03 -0.86292034397E+02  0.78031952031E+03  0.81137681214E+03  0.17130552129E+03 0.  0.
         24    2    3    3    0    0  0.24373835219E+02 -0.37624267404E+02  0.16522718355E+03  0.18809181315E+03  0.77902751225E+02 0.  0.
         -6    2    1    2    0  503 -0.11243611819E+03  0.86292034397E+02  0.28838572096E+03  0.36463132123E+03  0.17234117469E+03 0.  0.
        -24    2    5    5    0    0 -0.66400082783E+02  0.11231304101E+03  0.26508218044E+03  0.30665240832E+03  0.82121537778E+02 0.  0.
          5    1    3    3  501    0  0.88062282975E+02 -0.48667766992E+02  0.61509233676E+03  0.62328499899E+03  0.47000000000E+01 0. -1.
        -13    1    4    4    0    0 -0.12531816919E+02 -0.43436653130E+01  0.12051514312E+03  0.12124278776E+03  0.00000000000E+00 0.  1.
         14    1    4    4    0    0  0.36905652138E+02 -0.33280602091E+02  0.44712040429E+02  0.66849025383E+02  0.00000000000E+00 0. -1.
         -5    1    5    5    0  503 -0.46036035411E+02 -0.26021006617E+02  0.23303540524E+02  0.57978912914E+02  0.47000000000E+01 0.  1.
         11    1    6    6    0    0 -0.81609086066E+02  0.74462233763E+02  0.16492359149E+03  0.19850556218E+03  0.00000000000E+00 0. -1.
        -12    1    6    6    0    0  0.15209003283E+02  0.37850807251E+02  0.10015858895E+03  0.10814684614E+03  0.00000000000E+00 0.  1.
</event>
<event>
12    1  0.9017558E-003  0.2712117E+03  0.7818608E-02  0.1100596E+00
         21   -1    0    0  501  502  0.00000000000E+00  0.00000000000E+00  0.10287562092E+03  0.10287562092E+03  0.00000000000E+00 0.  1.
         21   -1    0    0  502  503 -0.00000000000E+00 -0.00000000000E+00 -0.75690510241E+03  0.75690510241E+03  0.00000000000E+00 0.  1.
          6    2    1    2  501    0  0.19474659135E+03 -0.80990577741E+02 -0.22566090960E+03  0.35277441386E+03  0.17041488323E+03 0.  0.
         24    2    3    3    0    0  0.17553210594E+03 -0.10048164282E+03 -0.23821495697E+03  0.32229832204E+03  0.78878145901E+02 0.  0.
         -6    2    1    2    0  503 -0.19474659135E+03  0.80990577741E+02 -0.42836857189E+03  0.50700630947E+03  0.17049943088E+03 0.  0.
        -24    2    5    5    0    0 -0.18726289003E+03  0.10173064611E+03 -0.29281360664E+03  0.36958944433E+03  0.73756591449E+02 0.  0.
          5    1    3    3  501    0  0.19214485408E+02  0.19491065081E+02  0.12554047370E+02  0.30476091824E+02  0.47000000000E+01 0. -1.
        -11    1    4    4    0    0  0.64428692062E+02 -0.31172839704E+02 -0.32887506099E+02  0.78767952578E+02  0.00000000000E+00 0.  1.
         12    1    4    4    0    0  0.11110341388E+03 -0.69308803118E+02 -0.20532745088E+03  0.24353036946E+03  0.00000000000E+00 0. -1.
         -5    1    5    5    0  503 -0.74837013167E+01 -0.20740068365E+02 -0.13555496525E+03  0.13741686514E+03  0.47000000000E+01 0.  1.
         11    1    6    6    0    0 -0.31293772584E-01  0.13730200433E+02 -0.39557533831E+01  0.14288714710E+02  0.00000000000E+00 0. -1.
        -12    1    6    6    0    0 -0.18723159626E+03  0.88000445673E+02 -0.28885785326E+03  0.35530072962E+03  0.00000000000E+00 0.  1.
</event>
<event>
12    1  0.9017558E-003  0.2241910E+03  0.7818608E-02  0.1131429E+00
         21   -1    0    0  501  502  0.00000000000E+00  0.00000000000E+00  0.11126694903E+03  0.11126694903E+03  0.00000000000E+00 0. -1.
         21   -1    0    0  502  503 -0.00000000000E+00 -0.00000000000E+00 -0.48729101483E+03  0.48729101483E+03  0.00000000000E+00 0.  1.
          6    2    1    2  501    0 -0.79402149053E+02 -0.98802001564E+02 -0.98308990703E+02  0.24164445340E+03  0.18072312364E+03 0.  0.
         24    2    3    3    0    0 -0.94827707562E+02 -0.76578588405E+02 -0.13309159146E+03  0.19733026534E+03  0.79807816522E+02 0.  0.
         -6    2    1    2    0  503  0.79402149053E+02  0.98802001564E+02 -0.27771507511E+03  0.35691351046E+03  0.18491904774E+03 0.  0.
        -24    2    5    5    0    0  0.56379404120E+02  0.91061931203E+02 -0.76618227074E+02  0.15430060919E+03  0.80420226011E+02 0.  0.
          5    1    3    3  501    0  0.15425558509E+02 -0.22223413158E+02  0.34782600761E+02  0.44314188060E+02  0.47000000000E+01 0. -1.
        -13    1    4    4    0    0 -0.19627683184E+02 -0.15888925956E+01 -0.72359342220E+02  0.74990965678E+02  0.00000000000E+00 0.  1.
         14    1    4    4    0    0 -0.75200024377E+02 -0.74989695810E+02 -0.60732249244E+02  0.12233929966E+03  0.00000000000E+00 0. -1.
         -5    1    5    5    0  503  0.23022744933E+02  0.77400703611E+01 -0.20109684803E+03  0.20261290127E+03  0.47000000000E+01 0.  1.
         13    1    6    6    0    0  0.13131067799E+02 -0.13842597819E+02 -0.37404121674E+01  0.19443074322E+02  0.00000000000E+00 0. -1.
        -14    1    6    6    0    0  0.43248336321E+02  0.10490452902E+03 -0.72877814907E+02  0.13485753486E+03  0.00000000000E+00 0.  1.
</event>
<event>
12    1  0.9017558E-003  0.1806060E+03  0.7818608E-02  0.1167338E+00
         21   -1    0    0  501  502  0.00000000000E+00  0.00000000000E+00  0.33966670186E+02  0.33966670186E+02  0.00000000000E+00 0. -1.
         21   -1    0    0  502  503 -0.00000000000E+00 -0.00000000000E+00 -0.10558331074E+04  0.10558331074E+04  0.00000000000E+00 0. -1.
          6    2    1    2  501    0 -0.32687498746E+02 -0.49882805609E+02 -0.34414970758E+03  0.38843076558E+03  0.16994902633E+03 0.  0.
         24    2    3    3    0    0 -0.27317199524E+02  0.18427798637E+02 -0.89101274749E+02  0.12429638339E+03  0.80154479655E+02 0.  0.
         -6    2    1    2    0  503  0.32687498746E+02  0.49882805609E+02 -0.67771672959E+03  0.70136901196E+03  0.17047509644E+03 0.  0.
        -24    2    5    5    0    0  0.82623178669E+02  0.49871243722E+02 -0.55169260830E+03  0.56573073783E+03  0.79829838209E+02 0.  0.
          5    1    3    3  501    0 -0.53702992222E+01 -0.68310604246E+02 -0.25504843283E+03  0.26413438219E+03  0.47000000000E+01 0. -1.
        -11    1    4    4    0    0  0.11497957761E+02 -0.47116787704E+01 -0.76333464341E+02  0.77338222942E+02  0.00000000000E+00 0.  1.
         12    1    4    4    0    0 -0.38815157285E+02  0.23139477407E+02 -0.12767810407E+02  0.46958160444E+02  0.00000000000E+00 0. -1.
         -5    1    5    5    0  503 -0.49935679923E+02  0.11561887734E-01 -0.12602412129E+03  0.13563827413E+03  0.47000000000E+01 0.  1.
         13    1    6    6    0    0  0.41775668953E+02 -0.12499242667E+02 -0.30241217944E+03  0.30553979096E+03  0.00000000000E+00 0. -1.
        -14    1    6    6    0    0  0.40847509716E+02  0.62370486388E+02 -0.24928042886E+03  0.26019094687E+03  0.00000000000E+00 0.  1.
</event>
<event>
12    1  0.9017558E-003  0.2837642E+03  0.7818608E-02  0.1093707E+00
         21   -1    0    0  501  502  0.00000000000E+00  0.00000000000E+00  0.18216833655E+03  0.18216833655E+03  0.00000000000E+00 0.  1.
         21   -1    0    0  502  503 -0.00000000000E+00 -0.00000000000E+00 -0.48219942616E+03  0.48219942616E+03  0.00000000000E+00 0. -1.
          6    2    1    2  501    0 -0.34101733110E+02 -0.22267246602E+03 -0.53450326332E+02  0.28875431989E+03  0.17255771366E+03 0.  0.
         24    2    3    3    0    0 -0.65242673847E+02 -0.63541335129E+02 -0.10238005977E+02  0.12087975469E+03  0.78822525765E+02 0.  0.
         -6    2    1    2    0  503  0.34101733110E+02  0.22267246602E+03 -0.24658076328E+03  0.37561344282E+03  0.17186456959E+03 0.  0.
        -24    2    5    5    0    0  0.54210809646E+02  0.62566772261E+02 -0.62555802924E+02  0.13081662060E+03  0.79663962188E+02 0.  0.
          5    1    3    3  501    0  0.31140940737E+02 -0.15913113089E+03 -0.43212320355E+02  0.16787456520E+03  0.47000000000E+01 0. -1.
        -13    1    4    4    0    0  0.16940469745E+02 -0.14489025258E+01  0.21383386034E+01  0.17136257634E+02  0.00000000000E+00 0.  1.
         14    1    4    4    0    0 -0.82183143592E+02 -0.62092432603E+02 -0.12376344580E+02  0.10374349706E+03  0.00000000000E+00 0. -1.
         -5    1    5    5    0  503 -0.20109076536E+02  0.16010569376E+03 -0.18402496036E+03  0.24479682222E+03  0.47000000000E+01 0.  1.
         13    1    6    6    0    0  0.24417819054E+02  0.39689393257E+02 -0.77466593625E+02  0.90402162321E+02  0.00000000000E+00 0. -1.
        -14    1    6    6    0    0  0.29792990592E+02  0.22877379004E+02  0.14910790701E+02  0.40414458277E+02  0.00000000000E+00 0.  1.
</event>
<event>
12    1  0.9017558E-003  0.1976427E+03  0.7818608E-02  0.1152332E+00
         21   -1    0    0  503  502  0.00000000000E+00  0.00000000000E+00  0.10690726874E+03  0.10690726874E+03  0.00000000000E+00 0. -1.
         21   -1    0    0  501  503 -0.00000000000E+00 -0.00000000000E+00 -0.39483188690E+03  0.39483188690E+03  0.00000000000E+00 0. -1.
          6    2    1    2  501    0  0.75812606138E+02  0.59949002723E+02 -0.21900106596E+03  0.29499851374E+03  0.17239843978E+03 0.  0.
         24    2    3    3    0    0  0.24062935730E+02  0.47863617750E+02 -0.34146041121E+02  0.10259904616E+03  0.80564640928E+02 0.  0.
         -6    2    1    2    0  502 -0.75812606138E+02 -0.59949002723E+02 -0.68923552203E+02  0.20674064190E+03  0.16926252624E+03 0.  0.
        -24    2    5    5    0    0 -0.56157905364E+02 -0.72860802077E+02 -0.10688827587E+03  0.16183594206E+03  0.79393713919E+02 0.  0.
          5    1    3    3  501    0  0.51749670409E+02  0.12085384973E+02 -0.18485502484E+03  0.19239946758E+03  0.47000000000E+01 0. -1.
        -13    1    4    4    0    0  0.53296587286E+02  0.21834789515E+02 -0.21130608256E+02  0.61349709492E+02  0.00000000000E+00 0.  1.
         14    1    4    4    0    0 -0.29233651556E+02  0.26028828235E+02 -0.13015432865E+02  0.41249336664E+02  0.00000000000E+00 0. -1.
         -5    1    5    5    0  502 -0.19654700774E+02  0.12911799354E+02  0.37964723663E+02  0.44904699842E+02  0.47000000000E+01 0.  1.
         11    1    6    6    0    0  0.11274358815E+02 -0.95281663472E+01  0.59565648753E+01  0.15917844884E+02  0.00000000000E+00 0. -1.
        -12    1    6    6    0    0 -0.67432264179E+02 -0.63332635730E+02 -0.11284484074E+03  0.14591809717E+03  0.00000000000E+00 0.  1.
</event>
<event>
12    1  0.9017558E-003  0.2030677E+03  0.7818608E-02  0.1147623E+00
         21   -1    0    0  503  502  0.00000000000E+00  0.00000000000E+00  0.36726148231E+03  0.36726148231E+03  0.00000000000E+00 0.  1.
         21   -1    0    0  501  503 -0.00000000000E+00 -0.00000000000E+00 -0.12275277204E+03  0.12275277204E+03  0.00000000000E+00 0.  1.
          6    2    1    2  501    0  0.71125861929E+01  0.10132636566E+03  0.47341973075E+02  0.20851315141E+03  0.17583756890E+03 0.  0.
         24    2    3    3    0    0 -0.16118688209E+02  0.10848117034E+03  0.86764105447E+02  0.16196126787E+03  0.81703524216E+02 0.  0.
         -6    2    1    2    0  502 -0.71125861929E+01 -0.10132636566E+03  0.19716673720E+03  0.28150110294E+03  0.17335087954E+03 0.  0.
        -24    2    5    5    0    0  0.40576212459E+02 -0.11897674440E+03  0.15738442029E+03  0.21676718505E+03  0.80101573269E+02 0.  0.
          5    1    3    3  501    0  0.23231274402E+02 -0.71548046768E+01 -0.39422132373E+02  0.46551883540E+02  0.47000000000E+01 0. -1.
        -13    1    4    4    0    0 -0.35618202406E+01  0.10307223528E+02 -0.15950139160E+02  0.19321810461E+02  0.00000000000E+00 0.  1.
         14    1    4    4    0    0 -0.12556867968E+02  0.98173946811E+02  0.10271424461E+03  0.14263945741E+03  0.00000000000E+00 0. -1.
         -5    1    5    5    0  502 -0.47688798652E+02  0.17650378738E+02  0.39782316909E+02  0.64733917887E+02  0.47000000000E+01 0.  1.
         13    1    6    6    0    0  0.11778674589E+02 -0.77592333348E+02  0.38048995449E+02  0.87218308996E+02  0.00000000000E+00 0. -1.
        -14    1    6    6    0    0  0.28797537870E+02 -0.41384411052E+02  0.11933542484E+03  0.12954887606E+03  0.00000000000E+00 0.  1.
</event>
<event>
12    1  0.9017558E-003  0.1803692E+03  0.7818608E-02  0.1167518E+00
         21   -1    0    0  501  502  0.00000000000E+00  0.00000000000E+00  0.49674662171E+02  0.49674662171E+02  0.00000000000E+00 0.  1.
         21   -1    0    0  502  503 -0.00000000000E+00 -0.00000000000E+00 -0.75782723341E+03  0.75782723341E+03  0.00000000000E+00 0.  1.
          6    2    1    2  501    0 -0.57986126566E+01 -0.53745891164E+02 -0.20476937298E+03  0.27288009777E+03  0.17207790945E+03 0.  0.
         24    2    3    3    0    0 -0.55121005811E+02 -0.72796731233E+02 -0.13961219066E+03  0.18883736232E+03  0.88488961274E+02 0.  0.
         -6    2    1    2    0  503  0.57986126566E+01  0.53745891164E+02 -0.50338319826E+03  0.53462179781E+03  0.17176605509E+03 0.  0.
        -24    2    5    5    0    0  0.55363134167E+02  0.77091311575E+02 -0.37223801028E+03  0.39241490355E+03  0.80125983823E+02 0.  0.
          5    1    3    3  501    0  0.49322393154E+02  0.19050840070E+02 -0.65157182326E+02  0.84042735453E+02  0.47000000000E+01 0. -1.
        -13    1    4    4    0    0 -0.63361423127E+02 -0.61611035547E+02 -0.14816616357E+03  0.17252188751E+03  0.00000000000E+00 0.  1.
         14    1    4    4    0    0  0.82404173168E+01 -0.11185695686E+02  0.85539729167E+01  0.16315474808E+02  0.00000000000E+00 0. -1.
         -5    1    5    5    0  503 -0.49564521511E+02 -0.23345420411E+02 -0.13114518798E+03  0.14220689426E+03  0.47000000000E+01 0.  1.
         13    1    6    6    0    0  0.41083677653E+02  0.83692772983E+01 -0.65660676293E+02  0.77905312934E+02  0.00000000000E+00 0. -1.
        -14    1    6    6    0    0  0.14279456514E+02  0.68722034277E+02 -0.30657733399E+03  0.31450959062E+03  0.00000000000E+00 0.  1.
</event>
<event>
12    1  0.9017558E-003  0.1840145E+03  0.7818608E-02  0.1164101E+00
         21   -1    0    0  503  502  0.00000000000E+00  0.00000000000E+00  0.10761741597E+03  0.10761741597E+03  0.00000000000E+00 0.  1.
         21   -1    0    0  501  503 -0.00000000000E+00 -0.00000000000E+00 -0.55366131987E+03  0.55366131987E+03  0.00000000000E+00 0.  1.
          6    2    1    2  501    0  0.60275425695E+02  0.17486844604E+02 -0.44087003607E+03  0.47773185814E+03  0.17298098998E+03 0.  0.
         24    2    3    3    0    0  0.17990416178E+02  0.61995571789E+02 -0.16153007562E+03  0.19168649052E+03  0.80527258270E+02 0.  0.
         -6    2    1    2    0  502 -0.60275425695E+02 -0.17486844604E+02 -0.51738678260E+01  0.18354687771E+03  0.17240583149E+03 0.  0.
        -24    2    5    5    0    0 -0.27252196634E+02 -0.43816079344E+02 -0.54898641207E+02  0.11813735740E+03  0.90994743670E+02 0.  0.
          5    1    3    3  501    0  0.42285009518E+02 -0.44508727185E+02 -0.27933996045E+03  0.28604536761E+03  0.47000000000E+01 0. -1.
        -11    1    4    4    0    0 -0.25572199942E+00  0.29067896077E+02 -0.14930148270E+03  0.15210503185E+03  0.00000000000E+00 0.  1.
         12    1    4    4    0    0  0.18246138177E+02  0.32927675713E+02 -0.12228592914E+02  0.39581458675E+02  0.00000000000E+00 0. -1.
         -5    1    5    5    0  502 -0.33023229062E+02  0.26329234740E+02  0.49724773381E+02  0.65409520312E+02  0.47000000000E+01 0.  1.
         11    1    6    6    0    0 -0.19342635213E+02 -0.71243831101E+02 -0.50032789904E+02  0.89180160756E+02  0.00000000000E+00 0. -1.
        -12    1    6    6    0    0 -0.79095614208E+01  0.27427751757E+02 -0.48658513030E+01  0.28957196639E+02  0.00000000000E+00 0.  1.
</event>
<event>
12    1  0.9017558E-003  0.1889057E+03  0.7818608E-02  0.1160373E+00
         21   -1    0    0  501  502  0.00000000000E+00  0.00000000000E+00  0.12724870340E+04  0.12724870340E+04  0.00000000000E+00 0. -1.
         21   -1    0    0  502  503 -0.00000000000E+00 -0.00000000000E+00 -0.28268894971E+02  0.28268894971E+02  0.00000000000E+00 0. -1.
          6    2    1    2  501    0  0.66957052415E+02  0.44548466813E+00  0.73913821952E+03  0.76289623953E+03  0.17664065049E+03 0.  0.
         24    2    3    3    0    0  0.10780713485E+03  0.31224020164E+02  0.54802246135E+03  0.56499886586E+03  0.79358569300E+02 0.  0.
         -6    2    1    2    0  503 -0.66957052415E+02 -0.44548466813E+00  0.50507991947E+03  0.53785968940E+03  0.17234812186E+03 0.  0.
        -24    2    5    5    0    0 -0.10238950016E+03 -0.30939538660E+02  0.31718860511E+03  0.34418320220E+03  0.80078715482E+02 0.  0.
          5    1    3    3  501    0 -0.40850082439E+02 -0.30778535496E+02  0.19111575818E+03  0.19789737367E+03  0.47000000000E+01 0. -1.
        -13    1    4    4    0    0  0.99503945310E+02  0.18400290960E+02  0.53624497093E+03  0.54570896519E+03  0.00000000000E+00 0.  1.
         14    1    4    4    0    0  0.83031895449E+01  0.12823729204E+02  0.11777490413E+02  0.19289900667E+02  0.00000000000E+00 0. -1.
         -5    1    5    5    0  503  0.35432447742E+02  0.30494053992E+02  0.18789131436E+03  0.19367648720E+03  0.47000000000E+01 0.  1.
         13    1    6    6    0    0 -0.58402286827E+02 -0.26982695114E+01  0.68487425114E+02  0.90047960353E+02  0.00000000000E+00 0. -1.
        -14    1    6    6    0    0 -0.43987213330E+02 -0.28241269149E+02  0.24870117999E+03  0.25413524185E+03  0.00000000000E+00 0.  1.
</event>
<event>
12    1  0.9017558E-003  0.1809605E+03  0.7818608E-02  0.1167081E+00
         21   -1    0    0  501  502  0.00000000000E+00  0.00000000000E+00  0.67858841537E+02  0.67858841537E+02  0.00000000000E+00 0.  1.
         21   -1    0    0  502  503 -0.00000000000E+00 -0.00000000000E+00 -0.77319998984E+03  0.77319998984E+03  0.00000000000E+00 0.  1.
          6    2    1    2  501    0 -0.52131594398E+02 -0.19556225267E+02 -0.93334473331E+02  0.20285911258E+03  0.17129024072E+03 0.  0.
         24    2    3    3    0    0  0.58625483094E+01  0.29820619035E+02 -0.93205806011E+02  0.12654725311E+03  0.80020286190E+02 0.  0.
         -6    2    1    2    0  503  0.52131594398E+02  0.19556225267E+02 -0.61200667498E+03  0.63819971880E+03  0.17218176959E+03 0.  0.
        -24    2    5    5    0    0  0.83562488461E+02  0.16403215175E+01 -0.26477002546E+03  0.28905181107E+03  0.80389072423E+02 0.  0.
          5    1    3    3  501    0 -0.57994142707E+02 -0.49376844302E+02 -0.12866731995E+00  0.76311859477E+02  0.47000000000E+01 0. -1.
        -13    1    4    4    0    0  0.20943276276E+02 -0.12256198352E+01  0.57433787114E+01  0.21751077310E+02  0.00000000000E+00 0.  1.
         14    1    4    4    0    0 -0.15080727966E+02  0.31046238870E+02 -0.98949184722E+02  0.10479617579E+03  0.00000000000E+00 0. -1.
         -5    1    5    5    0  503 -0.31430894063E+02  0.17915903749E+02 -0.34723664951E+03  0.34914790773E+03  0.47000000000E+01 0.  1.
         11    1    6    6    0    0  0.79856059924E+02  0.27305260761E+02 -0.15743769606E+03  0.17863145219E+03  0.00000000000E+00 0. -1.
        -12    1    6    6    0    0  0.37064285375E+01 -0.25664939243E+02 -0.10733232941E+03  0.11042035888E+03  0.00000000000E+00 0.  1.
</event>
<event>
12    1  0.9017558E-003  0.2166678E+03  0.7818608E-02  0.1136729E+00
         21   -1    0    0  501  502  0.00000000000E+00  0.00000000000E+00  0.11635409594E+03  0.11635409594E+03  0.00000000000E+00 0.  1.
         21   -1    0    0  502  503 -0.00000000000E+00 -0.00000000000E+00 -0.40576176966E+03  0.40576176966E+03  0.00000000000E+00 0. -1.
          6    2    1    2  501    0 -0.57515445986E+02 -0.11640941932E+03 -0.17471201177E+03  0.27696279902E+03  0.17124522053E+03 0.  0.
         24    2    3    3    0    0 -0.73954354382E+02 -0.45690970603E+02 -0.41049544310E+02  0.12478171641E+03  0.79551871981E+02 0.  0.
         -6    2    1    2    0  503  0.57515445986E+02  0.11640941932E+03 -0.11469566196E+03  0.24515306658E+03  0.17345244809E+03 0.  0.
        -24    2    5    5    0    0 -0.27970008535E+02  0.23918236883E+02 -0.32644309573E+02  0.94763917398E+02  0.80994726125E+02 0.  0.
          5    1    3    3  501    0  0.16438908396E+02 -0.70718448717E+02 -0.13366246746E+03  0.15218108261E+03  0.47000000000E+01 0. -1.
        -13    1    4    4    0    0  0.14017209455E+02  0.36019400309E+01  0.29332184306E+01  0.14766851501E+02  0.00000000000E+00 0.  1.
         14    1    4    4    0    0 -0.87971563838E+02 -0.49292910634E+02 -0.43982762741E+02  0.11001486491E+03  0.00000000000E+00 0. -1.
         -5    1    5    5    0  503  0.85485454521E+02  0.92491182437E+02 -0.82051352383E+02  0.15038914918E+03  0.47000000000E+01 0.  1.
         11    1    6    6    0    0 -0.11960175693E+02 -0.23212121749E+02  0.11218272477E+02  0.28420028784E+02  0.00000000000E+00 0. -1.
        -12    1    6    6    0    0 -0.16009832842E+02  0.47130358632E+02 -0.43862582049E+02  0.66343888614E+02  0.00000000000E+00 0.  1.
</event>
<event>
12    1  0.9017558E-003  0.2056432E+03  0.7818608E-02  0.1145252E+00
         21   -1    0    0  503  502  0.00000000000E+00  0.00000000000E+00  0.22821328081E+03  0.22821328081E+03  0.00000000000E+00 0. -1.
         21   -1    0    0  501  503 -0.00000000000E+00 -0.00000000000E+00 -0.19172339961E+03  0.19172339961E+03  0.00000000000E+00 0. -1.
          6    2    1    2  501    0 -0.11256484161E+03 -0.83662091004E+01 -0.22632882855E+02  0.20596329925E+03  0.17078581976E+03 0.  0.
         24    2    3    3    0    0 -0.96136461902E+02 -0.66293142801E+02 -0.39760235175E+01  0.14275262208E+03  0.82009159604E+02 0.  0.
         -6    2    1    2    0  502  0.11256484161E+03  0.83662091004E+01  0.59122764054E+02  0.21397338117E+03  0.17189610118E+03 0.  0.
        -24    2    5    5    0    0  0.11012811435E+02 -0.25735130711E+02  0.44945617265E+02  0.10581240068E+03  0.91611007298E+02 0.  0.
          5    1    3    3  501    0 -0.16428379708E+02  0.57926933701E+02 -0.18656859338E+02  0.63210677169E+02  0.47000000000E+01 0. -1.
        -11    1    4    4    0    0  0.64728691629E+01 -0.24556564849E+02 -0.17954608899E+02  0.31101300505E+02  0.00000000000E+00 0.  1.
         12    1    4    4    0    0 -0.10260933106E+03 -0.41736577952E+02  0.13978585382E+02  0.11165132158E+03  0.00000000000E+00 0. -1.
         -5    1    5    5    0  502  0.10155203017E+03  0.34101339812E+02  0.14177146789E+02  0.10816098049E+03  0.47000000000E+01 0.  1.
         11    1    6    6    0    0  0.28953038550E+02 -0.32656841840E+02 -0.12365512408E+02  0.45361367454E+02  0.00000000000E+00 0. -1.
        -12    1    6    6    0    0 -0.17940227115E+02  0.69217111280E+01  0.57311129673E+02  0.60451033227E+02  0.00000000000E+00 0.  1.
</event>
<event>
12    1  0.9017558E-003  0.1911987E+03  0.7818608E-02  0.1157406E+00
         21   -1    0    0  503  502  0.00000000000E+00  0.00000000000E+00  0.16607118453E+03  0.16607118453E+03  0.00000000000E+00 0.  1.
         21   -1    0    0  501  503 -0.00000000000E+00 -0.00000000000E+00 -0.22481377842E+03  0.22481377842E+03  0.00000000000E+00 0.  1.
          6    2    1    2  501    0 -0.82452426513E+02  0.17012631111E+02 -0.57927081564E+02  0.19978110982E+03  0.17166570073E+03 0.  0.
         24    2    3    3    0    0 -0.31931681106E+02 -0.55605614507E+02 -0.21149326101E+02  0.10386214084E+03  0.78920426273E+02 0.  0.
         -6    2    1    2    0  502  0.82452426513E+02 -0.17012631111E+02 -0.81551232046E+00  0.19110385312E+03  0.17155811075E+03 0.  0.
        -24    2    5    5    0    0  0.35940553999E+02 -0.69475190768E+02 -0.33079911269E+02  0.11378143794E+03  0.75719281138E+02 0.  0.
          5    1    3    3  501    0 -0.50520745407E+02  0.72618245618E+02 -0.36777755463E+02  0.95918968979E+02  0.47000000000E+01 0. -1.
        -13    1    4    4    0    0 -0.42820493043E+02 -0.16564018907E+02 -0.38359347406E+02  0.59828094406E+02  0.00000000000E+00 0.  1.
         14    1    4    4    0    0  0.10888811937E+02 -0.39041595600E+02  0.17210021305E+02  0.44034046438E+02  0.00000000000E+00 0. -1.
         -5    1    5    5    0  502  0.46511872514E+02  0.52462559657E+02  0.32264398949E+02  0.77322415185E+02  0.47000000000E+01 0.  1.
         11    1    6    6    0    0 -0.21640947560E+01 -0.16860740963E+02 -0.44667371485E+02  0.47792697845E+02  0.00000000000E+00 0. -1.
        -12    1    6    6    0    0  0.38104648755E+02 -0.52614449805E+02  0.11587460216E+02  0.65988740094E+02  0.00000000000E+00 0.  1.
</event>
<event>
12    1  0.9017558E-003  0.1996696E+03  0.7818608E-02  0.1150076E+00
         21   -1    0    0  503  502  0.00000000000E+00  0.00000000000E+00  0.11083601652E+03  0.11083601652E+03  0.00000000000E+00 0.  1.
         21   -1    0    0  501  503 -0.00000000000E+00 -0.00000000000E+00 -0.46781969745E+03  0.46781969745E+03  0.00000000000E+00 0. -1.
          6    2    1    2  501    0  0.20126805658E+02  0.98827447237E+02 -0.39176704493E+02  0.20347666450E+03  0.17232523375E+03 0.  0.
         24    2    3    3    0    0  0.48305164719E+02  0.61858371040E+02  0.35987680032E+02  0.11497521132E+03  0.75923244780E+02 0.  0.
         -6    2    1    2    0  502 -0.20126805658E+02 -0.98827447237E+02 -0.31780697644E+03  0.37517904947E+03  0.17200608202E+03 0.  0.
        -24    2    5    5    0    0 -0.22955093808E+02  0.84682337264E+00 -0.80212014373E+02  0.11746522478E+03  0.82682878164E+02 0.  0.
          5    1    3    3  501    0 -0.28178359061E+02  0.36969076197E+02 -0.75164384524E+02  0.88501453181E+02  0.47000000000E+01 0. -1.
        -11    1    4    4    0    0  0.27352411502E+02  0.59970094287E+02 -0.78222897848E+01  0.66375860381E+02  0.00000000000E+00 0.  1.
         12    1    4    4    0    0  0.20952753218E+02  0.18882767523E+01  0.43809969816E+02  0.48599350940E+02  0.00000000000E+00 0. -1.
         -5    1    5    5    0  502  0.28282881495E+01 -0.99674270610E+02 -0.23759496207E+03  0.25771382469E+03  0.47000000000E+01 0.  1.
         13    1    6    6    0    0 -0.66862494890E+01  0.23208484868E+02 -0.85901611294E+02  0.89232429783E+02  0.00000000000E+00 0. -1.
        -14    1    6    6    0    0 -0.16268844319E+02 -0.22361661495E+02  0.56895969207E+01  0.28232794998E+02  0.00000000000E+00 0.  1.
</event>
<event>
12    1  0.9017558E-003  0.5030612E+03  0.7818608E-02  0.1013017E+00
         21   -1    0    0  501  502  0.00000000000E+00  0.00000000000E+00  0.57223338247E+03  0.57223338247E+03  0.00000000000E+00 0.  1.
         21   -1    0    0  502  503 -0.00000000000E+00 -0.00000000000E+00 -0.48704173210E+03  0.48704173210E+03  0.00000000000E+00 0.  1.
          6    2    1    2  501    0  0.17438292605E+03  0.43933183697E+03 -0.11883193069E+03  0.51690578964E+03  0.17218797793E+03 0.  0.
         24    2    3    3    0    0  0.19141384476E+03  0.32644203399E+03 -0.11155487208E+03  0.40241035135E+03  0.79283919342E+02 0.  0.
         -6    2    1    2    0  503 -0.17438292605E+03 -0.43933183697E+03  0.20402358106E+03  0.54236932493E+03  0.17063702741E+03 0.  0.
        -24    2    5    5    0    0 -0.12494723988E+03 -0.38487431543E+03  0.21842752084E+03  0.46727556886E+03  0.83041098001E+02 0.  0.
          5    1    3    3  501    0 -0.17030918711E+02  0.11288980298E+03 -0.72770586176E+01  0.11449543830E+03  0.47000000000E+01 0. -1.
        -11    1    4    4    0    0  0.35598844448E+02  0.98552532913E+02 -0.34053416467E+00  0.10478547339E+03  0.00000000000E+00 0.  1.
         12    1    4    4    0    0  0.15581500031E+03  0.22788950108E+03 -0.11121433791E+03  0.29762487796E+03  0.00000000000E+00 0. -1.
         -5    1    5    5    0  503 -0.49435686171E+02 -0.54457521538E+02 -0.14403939786E+02  0.75093756070E+02  0.47000000000E+01 0.  1.
         13    1    6    6    0    0 -0.48321090315E+02 -0.19801864342E+03  0.15341388029E+03  0.25511199419E+03  0.00000000000E+00 0. -1.
        -14    1    6    6    0    0 -0.76626149562E+02 -0.18685567201E+03  0.65013640551E+02  0.21216357467E+03  0.00000000000E+00 0.  1.
</event>
<event>
12    1  0.9017558E-003  0.1971392E+03  0.7818608E-02  0.1152475E+00
         21   -1    0    0  503  502  0.00000000000E+00  0.00000000000E+00  0.87217457291E+03  0.87217457291E+03  0.00000000000E+00 0.  1.
         21   -1    0    0  501  503 -0.00000000000E+00 -0.00000000000E+00 -0.52369853210E+02  0.52369853210E+02  0.00000000000E+00 0.  1.
          6    2    1    2  501    0  0.63032986287E+02 -0.72878298545E+02  0.59318650741E+03  0.62508725678E+03  0.17198675024E+03 0.  0.
         24    2    3    3    0    0 -0.14539303358E+02  0.11403229337E+02  0.25502963879E+03  0.26802564605E+03  0.80350515230E+02 0.  0.
         -6    2    1    2    0  502 -0.63032986287E+02  0.72878298545E+02  0.22661821229E+03  0.29945716934E+03  0.17039477212E+03 0.  0.
        -24    2    5    5    0    0  0.31313465594E+02  0.42948253849E+02  0.12628227381E+03  0.15843784049E+03  0.79562874410E+02 0.  0.
          5    1    3    3  501    0  0.77572289646E+02 -0.84281527883E+02  0.33815686862E+03  0.35706161073E+03  0.47000000000E+01 0. -1.
        -13    1    4    4    0    0  0.46090376317E+01  0.42935198099E+02  0.16880651109E+03  0.17424210929E+03  0.00000000000E+00 0.  1.
         14    1    4    4    0    0 -0.19148340990E+02 -0.31531968762E+02  0.86223127703E+02  0.93783536762E+02  0.00000000000E+00 0. -1.
         -5    1    5    5    0  502 -0.94346451882E+02  0.29930044696E+02  0.10033593848E+03  0.14101932885E+03  0.47000000000E+01 0.  1.
         11    1    6    6    0    0  0.21699643801E+02  0.66620150959E+02  0.95153819553E+02  0.11816669764E+03  0.00000000000E+00 0. -1.
        -12    1    6    6    0    0  0.96138217930E+01 -0.23671897110E+02  0.31128454255E+02  0.40271142851E+02  0.00000000000E+00 0.  1.
</event>
<event>
12    1  0.9017558E-003  0.1827629E+03  0.7818608E-02  0.1165241E+00
         21   -1    0    0  501  502  0.00000000000E+00  0.00000000000E+00  0.14740182455E+03  0.14740182455E+03  0.00000000000E+00 0. -1.
         21   -1    0    0  502  503 -0.00000000000E+00 -0.00000000000E+00 -0.34748669600E+03  0.34748669600E+03  0.00000000000E+00 0. -1.
          6    2    1    2  501    0  0.20884830789E+02 -0.56250861653E+02  0.46104800208E+02  0.18848851220E+03  0.17263235802E+03 0.  0.
         24    2    3    3    0    0 -0.32845627732E+02  0.19882077480E+02  0.30639833464E+02  0.93913453171E+02  0.80042520111E+02 0.  0.
         -6    2    1    2    0  503 -0.20884830789E+02  0.56250861653E+02 -0.24618967166E+03  0.30640000835E+03  0.17225351983E+03 0.  0.
        -24    2    5    5    0    0  0.32624207076E+02  0.62541562471E+02 -0.22506248992E+03  0.24833764655E+03  0.77734653799E+02 0.  0.
          5    1    3    3  501    0  0.53730458521E+02 -0.76132939133E+02  0.15464966744E+02  0.94575059029E+02  0.47000000000E+01 0. -1.
        -13    1    4    4    0    0  0.23118884434E+02  0.22444597037E+02  0.63024890478E+01  0.32832363939E+02  0.00000000000E+00 0.  1.
         14    1    4    4    0    0 -0.55964512166E+02 -0.25625195570E+01  0.24337344416E+02  0.61081089231E+02  0.00000000000E+00 0. -1.
         -5    1    5    5    0  503 -0.53509037866E+02 -0.62907008180E+01 -0.21127181746E+02  0.58062361807E+02  0.47000000000E+01 0.  1.
         11    1    6    6    0    0 -0.14443581255E+02 -0.50550082090E-01 -0.98150011609E+02  0.99207078244E+02  0.00000000000E+00 0. -1.
        -12    1    6    6    0    0  0.47067788331E+02  0.62592112554E+02 -0.12691247831E+03  0.14913056830E+03  0.00000000000E+00 0.  1.
</event>
<event>
12    1  0.9017558E-003  0.2042360E+03  0.7818608E-02  0.1146481E+00
         21   -1    0    0  501  502  0.00000000000E+00  0.00000000000E+00  0.85575016884E+02  0.85575016884E+02  0.00000000000E+00 0. -1.
         21   -1    0    0  502  503 -0.00000000000E+00 -0.00000000000E+00 -0.58067101020E+03  0.58067101020E+03  0.00000000000E+00 0. -1.
          6    2    1    2  501    0 -0.10608617122E+03 -0.26382117776E+02 -0.11120936654E+03  0.23141126753E+03  0.17097765840E+03 0.  0.
         24    2    3    3    0    0 -0.15353745905E+00 -0.50250833965E+02 -0.55275218923E+02  0.10917315000E+03  0.79613170805E+02 0.  0.
         -6    2    1    2    0  503  0.10608617122E+03  0.26382117776E+02 -0.38388662678E+03  0.43483475956E+03  0.17251676451E+03 0.  0.
        -24    2    5    5    0    0  0.36258238028E+02  0.63318834053E+02 -0.30366440945E+03  0.32214955460E+03  0.79021056637E+02 0.  0.
          5    1    3    3  501    0 -0.10593263376E+03  0.23868716190E+02 -0.55934147617E+02  0.12223811753E+03  0.47000000000E+01 0. -1.
        -13    1    4    4    0    0 -0.76421063270E+01 -0.21404363386E+02 -0.71649998603E+02  0.75168283610E+02  0.00000000000E+00 0.  1.
         14    1    4    4    0    0  0.74885688679E+01 -0.28846470579E+02  0.16374779680E+02  0.34004866389E+02  0.00000000000E+00 0. -1.
         -5    1    5    5    0  503  0.69827933191E+02 -0.36936716277E+02 -0.80222217329E+02  0.11268520496E+03  0.47000000000E+01 0.  1.
         11    1    6    6    0    0  0.61310546011E+02  0.45619945577E+02 -0.22962216893E+03  0.24200517133E+03  0.00000000000E+00 0. -1.
        -12    1    6    6    0    0 -0.25052307983E+02  0.17698888476E+02 -0.74042240518E+02  0.80144383269E+02  0.00000000000E+00 0.  1.
</event>
<event>
12    1  0.9017558E-003  0.1863640E+03  0.7818608E-02  0.1163019E+00
         21   -1    0    0  503  502  0.00000000000E+00  0.00000000000E+00  0.32177924423E+03  0.32177924423E+03  0.00000000000E+00 0.  1.
         21   -1    0    0  501  503 -0.00000000000E+00 -0.00000000000E+00 -0.10886943711E+03  0.10886943711E+03  0.00000000000E+00 0.  1.
          6    2    1    2  501    0  0.49265350276E+02  0.50067425880E+02  0.66851065888E+02  0.19799142870E+03  0.17262015802E+03 0.  0.
         24    2    3    3    0    0 -0.23508466671E+02  0.25927151711E+02  0.68473539877E+02  0.12115716751E+03  0.93624614155E+02 0.  0.
         -6    2    1    2    0  502 -0.49265350276E+02 -0.50067425880E+02  0.14605874124E+03  0.23265725264E+03  0.16692039852E+03 0.  0.
        -24    2    5    5    0    0 -0.22770444422E+02 -0.67746154157E+02  0.32157123478E+02  0.11429262111E+03  0.83190673199E+02 0.  0.
          5    1    3    3  501    0  0.72773816947E+02  0.24140274168E+02 -0.16224739886E+01  0.76834261184E+02  0.47000000000E+01 0. -1.
        -13    1    4    4    0    0  0.71881044630E+01  0.60134229740E+00  0.79528356917E+02  0.79854805818E+02  0.00000000000E+00 0.  1.
         14    1    4    4    0    0 -0.30696571134E+02  0.25325809414E+02 -0.11054817041E+02  0.41302361696E+02  0.00000000000E+00 0. -1.
         -5    1    5    5    0  502 -0.26494905854E+02  0.17678728277E+02  0.11390161776E+03  0.11836463154E+03  0.47000000000E+01 0.  1.
         11    1    6    6    0    0 -0.16447292977E+02 -0.13992938404E+02  0.52268053648E+02  0.56553206838E+02  0.00000000000E+00 0. -1.
        -12    1    6    6    0    0 -0.63231514452E+01 -0.53753215753E+02 -0.20110930171E+02  0.57739414271E+02  0.00000000000E+00 0.  1.
</event>
<event>
12    1  0.9017558E-003  0.1871781E+03  0.7818608E-02  0.1161369E+00
         21   -1    0    0  501  502  0.00000000000E+00  0.00000000000E+00  0.20958489332E+03  0.20958489332E+03  0.00000000000E+00 0. -1.
         21   -1    0    0  502  503 -0.00000000000E+00 -0.00000000000E+00 -0.27706363065E+03  0.27706363065E+03  0.00000000000E+00 0. -1.
          6    2    1    2  501    0  0.23955967980E+02 -0.63050786558E+02  0.12033218575E+03  0.22252071884E+03  0.17460339429E+03 0.  0.
         24    2    3    3    0    0  0.14713723206E+02  0.15769677840E+02  0.48858362921E+01  0.82349272747E+02  0.79324365335E+02 0.  0.
         -6    2    1    2    0  503 -0.23955967980E+02  0.63050786558E+02 -0.18781092308E+03  0.26412780514E+03  0.17303544298E+03 0.  0.
        -24    2    5    5    0    0 -0.48306836164E+02  0.36127660963E+02 -0.20130558063E+03  0.22511479121E+03  0.80709194768E+02 0.  0.
          5    1    3    3  501    0  0.92422447743E+01 -0.78820464398E+02  0.11544634945E+03  0.14017144609E+03  0.47000000000E+01 0. -1.
        -11    1    4    4    0    0 -0.17430521420E+02 -0.22828777236E+02 -0.92371453685E+01  0.30171194899E+02  0.00000000000E+00 0.  1.
         12    1    4    4    0    0  0.32144244626E+02  0.38598455076E+02  0.14122981661E+02  0.52178077848E+02  0.00000000000E+00 0. -1.
         -5    1    5    5    0  503  0.24350868184E+02  0.26923125595E+02  0.13494657550E+02  0.39013013925E+02  0.47000000000E+01 0.  1.
         11    1    6    6    0    0 -0.16073158167E+02  0.36719906822E+02 -0.18441126509E+03  0.18871728237E+03  0.00000000000E+00 0. -1.
        -12    1    6    6    0    0 -0.32233677998E+02 -0.59224585933E+00 -0.16894315541E+02  0.36397508844E+02  0.00000000000E+00 0.  1.
</event>
<event>
12    1  0.9017558E-003  0.2178967E+03  0.7818608E-02  0.1135739E+00
         21   -1    0    0  501  502  0.00000000000E+00  0.00000000000E+00  0.25883014539E+03  0.25883014539E+03  0.00000000000E+00 0.  1.
         21   -1    0    0  502  503 -0.00000000000E+00 -0.00000000000E+00 -0.20049921687E+03  0.20049921687E+03  0.00000000000E+00 0. -1.
          6    2    1    2  501    0 -0.13184598219E+03  0.96276412563E+01  0.98634236310E+02  0.23918132278E+03  0.17321356211E+03 0.  0.
         24    2    3    3    0    0 -0.18547976265E+02  0.50170015415E+02  0.53394753392E+02  0.11053909385E+03  0.80664947213E+02 0.  0.
         -6    2    1    2    0  503  0.13184598219E+03 -0.96276412563E+01 -0.40303307796E+02  0.22014803948E+03  0.17136145474E+03 0.  0.
        -24    2    5    5    0    0  0.11324549060E+03  0.46798073522E+02 -0.58354975031E+02  0.15787611751E+03  0.80653360388E+02 0.  0.
          5    1    3    3  501    0 -0.11329800593E+03 -0.40542374159E+02  0.45239482917E+02  0.12864222893E+03  0.47000000000E+01 0. -1.
        -11    1    4    4    0    0 -0.44129963420E+02  0.35394755382E+02  0.91020879512E+01  0.57298258133E+02  0.00000000000E+00 0.  1.
         12    1    4    4    0    0  0.25581987155E+02  0.14775260033E+02  0.44292665441E+02  0.53240835716E+02  0.00000000000E+00 0. -1.
         -5    1    5    5    0  503  0.18600491590E+02 -0.56425714778E+02  0.18051667235E+02  0.62271921968E+02  0.47000000000E+01 0.  1.
         13    1    6    6    0    0  0.19322702537E+02 -0.21650878049E+02 -0.20932046506E+02  0.35780971543E+02  0.00000000000E+00 0. -1.
        -14    1    6    6    0    0  0.93922788066E+02  0.68448951571E+02 -0.37422928525E+02  0.12209514597E+03  0.00000000000E+00 0.  1.
</event>
<event>
12    1  0.9017558E-003  0.2112523E+03  0.7818608E-02  0.1140699E+00
         21   -1    0    0  503  502  0.00000000000E+00  0.00000000000E+00  0.86341375018E+02  0.86341375018E+02  0.00000000000E+00 0. -1.
         21   -1    0    0  501  503 -0.00000000000E+00 -0.00000000000E+00 -0.53277822582E+03  0.53277822582E+03  0.00000000000E+00 0.  1.
          6    2    1    2  501    0 -0.12004433959E+03  0.23739034205E+02 -0.27947837152E+03  0.35033656946E+03  0.17220152885E+03 0.  0.
         24    2    3    3    0    0 -0.59523701236E+02 -0.44186925247E+02 -0.20683520176E+03  0.23382131833E+03  0.79975326465E+02 0.  0.
         -6    2    1    2    0  502  0.12004433959E+03 -0.23739034205E+02 -0.16695847928E+03  0.26878303138E+03  0.17144969800E+03 0.  0.
        -24    2    5    5    0    0  0.20901847948E+02 -0.42238666205E+02 -0.13268099543E+03  0.16215983535E+03  0.80439874951E+02 0.  0.
          5    1    3    3  501    0 -0.60520638351E+02  0.67925959452E+02 -0.72643169761E+02  0.11651525113E+03  0.47000000000E+01 0. -1.
        -13    1    4    4    0    0 -0.78106361843E+02 -0.37431103691E+02 -0.14496491585E+03  0.16886834550E+03  0.00000000000E+00 0.  1.
         14    1    4    4    0    0  0.18582660607E+02 -0.67558215563E+01 -0.61870285911E+02  0.64952972825E+02  0.00000000000E+00 0. -1.
         -5    1    5    5    0  502  0.99142491639E+02  0.18499632000E+02 -0.34277483848E+02  0.10662319603E+03  0.47000000000E+01 0.  1.
         11    1    6    6    0    0  0.29377757915E+02  0.90573975693E+01 -0.16532523640E+02  0.34905779589E+02  0.00000000000E+00 0. -1.
        -12    1    6    6    0    0 -0.84759099669E+01 -0.51296063774E+02 -0.11614847179E+03  0.12725405576E+03  0.00000000000E+00 0.  1.
</event>
<event>
12    1  0.9017558E-003  0.1891509E+03  0.7818608E-02  0.1159271E+00
         21   -1    0    0  501  502  0.00000000000E+00  0.00000000000E+00  0.13895751844E+04  0.13895751844E+04  0.00000000000E+00 0. -1.
         21   -1    0    0  502  503 -0.00000000000E+00 -0.00000000000E+00 -0.25722922797E+02  0.25722922797E+02  0.00000000000E+00 0. -1.
          6    2    1    2  501    0  0.15998295168E+02  0.74514857872E+02  0.68089000435E+03  0.70667479564E+03  0.17311747249E+03 0.  0.
         24    2    3    3    0    0  0.51705830220E+02  0.10437865485E+03  0.47449402815E+03  0.49504241764E+03  0.79712082165E+02 0.  0.
         -6    2    1    2    0  503 -0.15998295168E+02 -0.74514857872E+02  0.68296225730E+03  0.70862331160E+03  0.17291947072E+03 0.  0.
        -24    2    5    5    0    0 -0.34611398238E+02 -0.75953392245E+01  0.56411966691E+03  0.57089052366E+03  0.80183248561E+02 0.  0.
          5    1    3    3  501    0 -0.35707535052E+02 -0.29863796977E+02  0.20639597620E+03  0.21163237800E+03  0.47000000000E+01 0. -1.
        -13    1    4    4    0    0  0.17942788442E+01 -0.13189549529E+02  0.50851561990E+02  0.52564864788E+02  0.00000000000E+00 0.  1.
         14    1    4    4    0    0  0.49911551375E+02  0.11756820438E+03  0.42364246616E+03  0.44247755285E+03  0.00000000000E+00 0. -1.
         -5    1    5    5    0  503  0.18613103070E+02 -0.66919518648E+02  0.11884259039E+03  0.13773278794E+03  0.47000000000E+01 0.  1.
         11    1    6    6    0    0 -0.54362804994E+02 -0.22489615797E+02  0.46606796881E+03  0.46976637697E+03  0.00000000000E+00 0. -1.
        -12    1    6    6    0    0  0.19751406756E+02  0.14894276573E+02  0.98051698100E+02  0.10112414669E+03  0.00000000000E+00 0.  1.
</event>
<event>
12    1  0.9017558E-003  0.2423696E+03  0.7818608E-02  0.1118396E+00
         21   -1    0    0  501  502  0.00000000000E+00  0.00000000000E+00  0.11878644442E+04  0.11878644442E+04  0.00000000000E+00 0.  1.
         21   -1    0    0  502  503 -0.00000000000E+00 -0.00000000000E+00 -0.49706055074E+02  0.49706055074E+02  0.00000000000E+00 0. -1.
          6    2    1    2  501    0 -0.11539418596E+03 -0.12470947308E+03  0.51040936806E+03  0.56503162433E+03  0.17284311574E+03 0.  0.
         24    2    3    3    0    0  0.15489198514E+01 -0.42456656063E+02  0.10898982196E+03  0.13888498537E+03  0.74868491862E+02 0.  0.
         -6    2    1    2    0  503  0.11539418596E+03  0.12470947308E+03  0.62774902105E+03  0.67253887493E+03  0.17138096170E+03 0.  0.
        -24    2    5    5    0    0  0.14874310179E+03  0.86109361646E+02  0.51789305723E+03  0.55132608032E+03  0.78790200047E+02 0.  0.
          5    1    3    3  501    0 -0.11694310581E+03 -0.82252817016E+02  0.40141954610E+03  0.42614663896E+03  0.47000000000E+01 0. -1.
        -13    1    4    4    0    0 -0.36443875593E+02 -0.22010008952E+02  0.47765229105E+02  0.63985261379E+02  0.00000000000E+00 0.  1.
         14    1    4    4    0    0  0.37992795444E+02 -0.20446647111E+02  0.61224592852E+02  0.74899723989E+02  0.00000000000E+00 0. -1.
         -5    1    5    5    0  503 -0.33348915830E+02  0.38600111432E+02  0.10985596382E+03  0.12121279461E+03  0.47000000000E+01 0.  1.
         11    1    6    6    0    0  0.81921826732E+02  0.84093811246E+02  0.38599094429E+03  0.40345007604E+03  0.00000000000E+00 0. -1.
        -12    1    6    6    0    0  0.66821275058E+02  0.20155504009E+01  0.13190211294E+03  0.14787600428E+03  0.00000000000E+00 0.  1.
</event>
<event>
12    1  0.9017558E-003  0.1891252E+03  0.7818608E-02  0.1159470E+00
         21   -1    0    0  503  502  0.00000000000E+00  0.00000000000E+00  0.18169646838E+03  0.18169646838E+03  0.00000000000E+00 0. -1.
         21   -1    0    0  501  503 -0.00000000000E+00 -0.00000000000E+00 -0.28575384927E+03  0.28575384927E+03  0.00000000000E+00 0. -1.
          6    2    1    2  501    0 -0.27468309509E+02  0.73813306569E+02 -0.18320825166E+03  0.26331275276E+03  0.17194600908E+03 0.  0.
         24    2    3    3    0    0  0.33865029991E+02 -0.15142440942E+01 -0.54713755945E+02  0.10216392760E+03  0.79339396399E+02 0.  0.
         -6    2    1    2    0  502  0.27468309509E+02 -0.73813306569E+02  0.79150870763E+02  0.20413756490E+03  0.17089286938E+03 0.  0.
        -24    2    5    5    0    0  0.22241631910E+02 -0.74232920663E+02  0.11911847196E+03  0.16355439868E+03  0.80966747882E+02 0.  0.
          5    1    3    3  501    0 -0.61333339500E+02  0.75327550663E+02 -0.12849449571E+03  0.16114882516E+03  0.47000000000E+01 0. -1.
        -11    1    4    4    0    0 -0.10784657864E+02 -0.98970824954E+01 -0.54813209614E+02  0.56734020088E+02  0.00000000000E+00 0.  1.
         12    1    4    4    0    0  0.44649687855E+02  0.83828384012E+01  0.99453669693E-01  0.45429907509E+02  0.00000000000E+00 0. -1.
         -5    1    5    5    0  502  0.52266775990E+01  0.41961409436E+00 -0.39967601202E+02  0.40583166221E+02  0.47000000000E+01 0.  1.
         11    1    6    6    0    0 -0.84190949272E+01  0.24797266452E+01 -0.80488875227E+01  0.11908601680E+02  0.00000000000E+00 0. -1.
        -12    1    6    6    0    0  0.30660726837E+02 -0.76712647308E+02  0.12716735949E+03  0.15164579700E+03  0.00000000000E+00 0.  1.
</event>
<event>
12    1  0.9017558E-003  0.1960639E+03  0.7818608E-02  0.1153237E+00
         21   -1    0    0  503  502  0.00000000000E+00  0.00000000000E+00  0.16505798004E+03  0.16505798004E+03  0.00000000000E+00 0. -1.
         21   -1    0    0  501  503 -0.00000000000E+00 -0.00000000000E+00 -0.36062145086E+03  0.36062145086E+03  0.00000000000E+00 0. -1.
          6    2    1    2  501    0 -0.93552890196E+02  0.25879849720E+00 -0.25475557742E+03  0.32146765540E+03  0.17230449502E+03 0.  0.
         24    2    3    3    0    0 -0.77572364710E+02  0.64635620411E+02 -0.16322622649E+03  0.20833293714E+03  0.81022074102E+02 0.  0.
         -6    2    1    2    0  502  0.93552890196E+02 -0.25879849720E+00  0.59192106597E+02  0.20421177549E+03  0.17159992286E+03 0.  0.
        -24    2    5    5    0    0  0.42093890301E+02 -0.54738562697E+02  0.69561788532E+02  0.12841142140E+03  0.82960501900E+02 0.  0.
          5    1    3    3  501    0 -0.15980525486E+02 -0.64376821914E+02 -0.91529350933E+02  0.11313471826E+03  0.47000000000E+01 0. -1.
        -13    1    4    4    0    0 -0.62330834981E+02  0.13045650840E+02 -0.43626049945E+02  0.77191672019E+02  0.00000000000E+00 0.  1.
         14    1    4    4    0    0 -0.15241529729E+02  0.51589969571E+02 -0.11960017654E+03  0.13114126512E+03  0.00000000000E+00 0. -1.
         -5    1    5    5    0  502  0.51458999895E+02  0.54479764199E+02 -0.10369681935E+02  0.75800354094E+02  0.47000000000E+01 0.  1.
         13    1    6    6    0    0  0.13839539404E+02 -0.74008121277E+01  0.71545966874E+02  0.73247049408E+02  0.00000000000E+00 0. -1.
        -14    1    6    6    0    0  0.28254350898E+02 -0.47337750569E+02 -0.19841783419E+01  0.55164371992E+02  0.00000000000E+00 0.  1.
</event>
<event>
12    1  0.9017558E-003  0.2603370E+03  0.7818608E-02  0.1107022E+00
         21   -1    0    0  501  502  0.00000000000E+00  0.00000000000E+00  0.19904795831E+03  0.19904795831E+03  0.00000000000E+00 0. -1.
         21   -1    0    0  502  503 -0.00000000000E+00 -0.00000000000E+00 -0.33979986377E+03  0.33979986377E+03  0.00000000000E+00 0.  1.
          6    2    1    2  501    0 -0.19128826430E+03  0.35862996102E+02 -0.68976321447E+02  0.26879766787E+03  0.17209619050E+03 0.  0.
         24    2    3    3    0    0 -0.18610233211E+03 -0.15868216769E+02 -0.74639755394E+02  0.21628884231E+03  0.79522901751E+02 0.  0.
         -6    2    1    2    0  503  0.19128826430E+03 -0.35862996102E+02 -0.71775584012E+02  0.27005015420E+03  0.17291037209E+03 0.  0.
        -24    2    5    5    0    0  0.15297276799E+03  0.37540980640E+02 -0.40475917423E+02  0.18140490511E+03  0.80370683283E+02 0.  0.
          5    1    3    3  501    0 -0.51859321904E+01  0.51731212871E+02  0.56634339465E+01  0.52508825562E+02  0.47000000000E+01 0. -1.
        -13    1    4    4    0    0 -0.65694963876E+02  0.18396999291E+02 -0.58871319608E+02  0.90111653708E+02  0.00000000000E+00 0.  1.
         14    1    4    4    0    0 -0.12040736824E+03 -0.34265216060E+02 -0.15768435786E+02  0.12617718860E+03  0.00000000000E+00 0. -1.
         -5    1    5    5    0  503  0.38315496311E+02 -0.73403976742E+02 -0.31299666589E+02  0.88645249099E+02  0.47000000000E+01 0.  1.
         11    1    6    6    0    0  0.11623061037E+03  0.36852927162E+02  0.60899034775E+01  0.12208513403E+03  0.00000000000E+00 0. -1.
        -12    1    6    6    0    0  0.36742157622E+02  0.68805347869E+00 -0.46565820900E+02  0.59319771075E+02  0.00000000000E+00 0.  1.
</event>
<event>
12    1  0.9017558E-003  0.3074709E+03  0.7818608E-02  0.1081581E+00
         21   -1    0    0  501  502  0.00000000000E+00  0.00000000000E+00  0.58780011809E+03  0.58780011809E+03  0.00000000000E+00 0.  1.
         21   -1    0    0  502  503 -0.00000000000E+00 -0.00000000000E+00 -0.16563607608E+03  0.16563607608E+03  0.00000000000E+00 0.  1.
          6    2    1    2  501    0 -0.14673311321E+03  0.20810262939E+03  0.27574247095E+03  0.41300396694E+03  0.17233994183E+03 0.  0.
         24    2    3    3    0    0 -0.14216158332E+03  0.22383044348E+03  0.28153362092E+03  0.39500701054E+03  0.80370239935E+02 0.  0.
         -6    2    1    2    0  503  0.14673311321E+03 -0.20810262939E+03  0.14642157106E+03  0.34043222722E+03  0.17209739682E+03 0.  0.
        -24    2    5    5    0    0  0.46268658240E+02 -0.90366113878E+02  0.39571064380E+01  0.13002023261E+03  0.81134326428E+02 0.  0.
          5    1    3    3  501    0 -0.45715298890E+01 -0.15727814091E+02 -0.57911499681E+01  0.17996956398E+02  0.47000000000E+01 0. -1.
        -13    1    4    4    0    0 -0.84160866216E+02  0.10069138429E+03  0.19023449988E+03  0.23110813750E+03  0.00000000000E+00 0.  1.
         14    1    4    4    0    0 -0.58000717105E+02  0.12313905918E+03  0.91299121036E+02  0.16389887304E+03  0.00000000000E+00 0. -1.
         -5    1    5    5    0  503  0.10046445497E+03 -0.11773651551E+03  0.14246446462E+03  0.21041199461E+03  0.47000000000E+01 0.  1.
         13    1    6    6    0    0  0.14829018064E+02 -0.90386116454E+02  0.21406749017E+02  0.94062738254E+02  0.00000000000E+00 0. -1.
        -14    1    6    6    0    0  0.31439640176E+02  0.20002576546E-01 -0.17449642579E+02  0.35957494360E+02  0.00000000000E+00 0.  1.
</event>
<event>
12    1  0.9017558E-003  0.2149312E+03  0.7818608E-02  0.1139244E+00
         21   -1    0    0  503  502  0.00000000000E+00  0.00000000000E+00  0.25256676209E+03  0.25256676209E+03  0.00000000000E+00 0.  1.
         21   -1    0    0  501  503 -0.00000000000E+00 -0.00000000000E+00 -0.18363373679E+03  0.18363373679E+03  0.00000000000E+00 0. -1.
          6    2    1    2  501    0  0.99553142516E+02  0.63063322070E+02  0.77310761803E+02  0.22110608394E+03  0.17036177884E+03 0.  0.
         24    2    3    3    0    0 -0.52556519435E+00  0.30642591299E+02 -0.53663826044E+01  0.87223853128E+02  0.81485936651E+02 0.  0.
         -6    2    1    2    0  502 -0.99553142516E+02 -0.63063322070E+02 -0.83777364982E+01  0.21509441493E+03  0.17974317815E+03 0.  0.
        -24    2    5    5    0    0 -0.61039712416E+02 -0.45205701565E+02 -0.76885671120E+02  0.13436272342E+03  0.79828147143E+02 0.  0.
          5    1    3    3  501    0  0.10007870771E+03  0.32420730771E+02  0.82677144407E+02  0.13388223081E+03  0.47000000000E+01 0. -1.
        -13    1    4    4    0    0  0.24441463203E+02  0.43052624762E+02 -0.22626739054E+02  0.54432370357E+02  0.00000000000E+00 0.  1.
         14    1    4    4    0    0 -0.24967028398E+02 -0.12410033463E+02  0.17260356449E+02  0.32791482771E+02  0.00000000000E+00 0. -1.
         -5    1    5    5    0  502 -0.38513430099E+02 -0.17857620504E+02  0.68507934622E+02  0.80731691511E+02  0.47000000000E+01 0.  1.
         13    1    6    6    0    0 -0.11138589128E+02  0.52388903404E+01 -0.60234018414E+02  0.61478867215E+02  0.00000000000E+00 0. -1.
        -14    1    6    6    0    0 -0.49901123288E+02 -0.50444591906E+02 -0.16651652706E+02  0.72883856208E+02  0.00000000000E+00 0.  1.
</event>
<event>
12    1  0.9017558E-003  0.2033018E+03  0.7818608E-02  0.1147096E+00
         21   -1    0    0  501  502  0.00000000000E+00  0.00000000000E+00  0.20941160341E+03  0.20941160341E+03  0.00000000000E+00 0.  1.
         21   -1    0    0  502  503 -0.00000000000E+00 -0.00000000000E+00 -0.20732799258E+03  0.20732799258E+03  0.00000000000E+00 0.  1.
          6    2    1    2  501    0  0.41200227860E+02  0.99262363399E+02  0.47907907293E+02  0.20887031735E+03  0.17257220612E+03 0.  0.
         24    2    3    3    0    0  0.41900967811E+02  0.12618808315E+02  0.79217988702E+02  0.11662061344E+03  0.73552378057E+02 0.  0.
         -6    2    1    2    0  503 -0.41200227860E+02 -0.99262363399E+02 -0.45824296460E+02  0.20786927864E+03  0.17192816899E+03 0.  0.
        -24    2    5    5    0    0 -0.56660602775E+02  0.53769033938E+01 -0.17963746980E+02  0.98385491874E+02  0.78215559890E+02 0.  0.
          5    1    3    3  501    0 -0.70073995072E+00  0.86643555084E+02 -0.31310081409E+02  0.92249703913E+02  0.47000000000E+01 0. -1.
        -11    1    4    4    0    0  0.38554972941E+02  0.33699033365E+02  0.22336102544E+02  0.55866020666E+02  0.00000000000E+00 0.  1.
         12    1    4    4    0    0  0.33459948697E+01 -0.21080225051E+02  0.56881886159E+02  0.60754592771E+02  0.00000000000E+00 0. -1.
         -5    1    5    5    0  503  0.15460374915E+02 -0.10463926679E+03 -0.27860549481E+02  0.10948378677E+03  0.47000000000E+01 0.  1.
         11    1    6    6    0    0 -0.13826463193E+02 -0.17278152889E+02  0.25168288071E+02  0.33513405917E+02  0.00000000000E+00 0. -1.
        -12    1    6    6    0    0 -0.42834139581E+02  0.22655056283E+02 -0.43132035051E+02  0.64872085957E+02  0.00000000000E+00 0.  1.
</event>
<event>
12    1  0.9017558E-003  0.1902133E+03  0.7818608E-02  0.1158492E+00
         21   -1    0    0  501  502  0.00000000000E+00  0.00000000000E+00  0.25039953538E+03  0.25039953538E+03  0.00000000000E+00 0.  1.
         21   -1    0    0  502  503 -0.00000000000E+00 -0.00000000000E+00 -0.17429293272E+03  0.17429293272E+03  0.00000000000E+00 0. -1.
          6    2    1    2  501    0 -0.50698050059E+01 -0.80398827621E+02  0.12686918654E+03  0.22782214599E+03  0.17122343679E+03 0.  0.
         24    2    3    3    0    0 -0.61728171418E+02 -0.79377106616E+02  0.10329646953E+03  0.16626747610E+03  0.82846972121E+02 0.  0.
         -6    2    1    2    0  503  0.50698050059E+01  0.80398827621E+02 -0.50762583876E+02  0.19687032211E+03  0.17231195374E+03 0.  0.
        -24    2    5    5    0    0  0.68708629534E+02  0.42931670691E+02 -0.47729436611E+02  0.12280968602E+03  0.78994403220E+02 0.  0.
          5    1    3    3  501    0  0.56658366413E+02 -0.10217210048E+01  0.23572717013E+02  0.61554669894E+02  0.47000000000E+01 0. -1.
        -13    1    4    4    0    0 -0.22200435253E+02 -0.67698554446E+02  0.10276597834E+03  0.12504719070E+03  0.00000000000E+00 0.  1.
         14    1    4    4    0    0 -0.39527736165E+02 -0.11678552170E+02  0.53049119319E+00  0.41220285395E+02  0.00000000000E+00 0. -1.
         -5    1    5    5    0  503 -0.63638824529E+02  0.37467156930E+02 -0.30331472649E+01  0.74060636090E+02  0.47000000000E+01 0.  1.
         13    1    6    6    0    0  0.41504045045E-01  0.44469272554E+02 -0.18432823203E+02  0.48138206191E+02  0.00000000000E+00 0. -1.
        -14    1    6    6    0    0  0.68667125489E+02 -0.15376018632E+01 -0.29296613408E+02  0.74671479827E+02  0.00000000000E+00 0.  1.
</event>
<event>
12    1  0.9017558E-003  0.1846542E+03  0.7818608E-02  0.1163434E+00
         21   -1    0    0  503  502  0.00000000000E+00  0.00000000000E+00  0.19374794633E+02  0.19374794633E+02  0.00000000000E+00 0.  1.
         21   -1    0    0  501  503 -0.00000000000E+00 -0.00000000000E+00 -0.26398408910E+04  0.26398408910E+04  0.00000000000E+00 0.  1.
          6    2    1    2  501    0 -0.66860750886E+02  0.60847385300E+01 -0.20795848892E+04  0.20877668653E+04  0.17201682582E+03 0.  0.
         24    2    3    3    0    0 -0.10114670899E+03 -0.30509283137E+02 -0.14537366346E+04  0.14598952405E+04  0.82355555755E+02 0.  0.
         -6    2    1    2    0  502  0.66860750886E+02 -0.60847385300E+01 -0.54088120722E+03  0.57144882039E+03  0.17173785242E+03 0.  0.
        -24    2    5    5    0    0 -0.94742616087E+01  0.25596330748E+02 -0.39012991202E+03  0.39946403244E+03  0.81395523091E+02 0.  0.
          5    1    3    3  501    0  0.34285958099E+02  0.36594021667E+02 -0.62584825463E+03  0.62787162475E+03  0.47000000000E+01 0. -1.
        -13    1    4    4    0    0  0.59475872713E+01  0.72602859382E+01 -0.39025017317E+03  0.39036301464E+03  0.00000000000E+00 0.  1.
         14    1    4    4    0    0 -0.10709429626E+03 -0.37769569075E+02 -0.10634864614E+04  0.10695322259E+04  0.00000000000E+00 0. -1.
         -5    1    5    5    0  502  0.76335012494E+02 -0.31681069278E+02 -0.15075129519E+03  0.17198478795E+03  0.47000000000E+01 0.  1.
         11    1    6    6    0    0 -0.13536203859E+01 -0.21316561622E+02 -0.26038249104E+03  0.26125709507E+03  0.00000000000E+00 0. -1.
        -12    1    6    6    0    0 -0.81206412228E+01  0.46912892370E+02 -0.12974742099E+03  0.13820693737E+03  0.00000000000E+00 0.  1.
</event>
<event>
12    1  0.9017558E-003  0.1959646E+03  0.7818608E-02  0.1153273E+00
         21   -1    0    0  503  502  0.00000000000E+00  0.00000000000E+00  0.90459881553E+03  0.90459881553E+03  0.00000000000E+00 0. -1.
         21   -1    0    0  501  503 -0.00000000000E+00 -0.00000000000E+00 -0.57927435777E+02  0.57927435777E+02  0.00000000000E+00 0. -1.
          6    2    1    2  501    0 -0.20171893146E+02  0.90286163048E+02  0.17360340283E+03  0.26151083800E+03  0.17231157944E+03 0.  0.
         24    2    3    3    0    0 -0.16105205860E+02  0.25531321382E+01  0.14848105504E+03  0.17004037820E+03  0.81247833042E+02 0.  0.
         -6    2    1    2    0  502  0.20171893146E+02 -0.90286163048E+02  0.67306797693E+03  0.70101541331E+03  0.17275303649E+03 0.  0.
        -24    2    5    5    0    0  0.51761842542E+02 -0.11847112722E+03  0.54778430587E+03  0.56868852511E+03  0.81389781295E+02 0.  0.
          5    1    3    3  501    0 -0.40666872861E+01  0.87733030909E+02  0.25122347792E+02  0.91470459803E+02  0.47000000000E+01 0. -1.
        -11    1    4    4    0    0 -0.31023753479E+02  0.35107291893E+02  0.90066641539E+02  0.10152337239E+03  0.00000000000E+00 0.  1.
         12    1    4    4    0    0  0.14918547619E+02 -0.32554159755E+02  0.58414413498E+02  0.68517005807E+02  0.00000000000E+00 0. -1.
         -5    1    5    5    0  502 -0.31589949396E+02  0.28184964168E+02  0.12528367105E+03  0.13232688820E+03  0.47000000000E+01 0.  1.
         13    1    6    6    0    0  0.50965429983E+02 -0.46572276098E+02  0.15946967129E+03  0.17377292083E+03  0.00000000000E+00 0. -1.
        -14    1    6    6    0    0  0.79641255964E+00 -0.71898851118E+02  0.38831463459E+03  0.39491560427E+03  0.00000000000E+00 0.  1.
</event>
<event>
12    1  0.9017558E-003  0.1792993E+03  0.7818608E-02  0.1168503E+00
         21   -1    0    0  503  502  0.00000000000E+00  0.00000000000E+00  0.58228680898E+03  0.58228680898E+03  0.00000000000E+00 0. -1.
         21   -1    0    0  501  503 -0.00000000000E+00 -0.00000000000E+00 -0.58117853951E+02  0.58117853951E+02  0.00000000000E+00 0. -1.
          6    2    1    2  501    0  0.38176070981E+02  0.19975893537E+02  0.19008924458E+03  0.26125100498E+03  0.17395895488E+03 0.  0.
         24    2    3    3    0    0  0.76370227663E+02  0.76095307351E+01  0.19076056398E+03  0.22082500836E+03  0.80521890898E+02 0.  0.
         -6    2    1    2    0  502 -0.38176070981E+02 -0.19975893537E+02  0.33407971044E+03  0.37915365794E+03  0.17404538110E+03 0.  0.
        -24    2    5    5    0    0 -0.91382937925E+02 -0.24490615018E+02  0.21471420799E+03  0.24830425375E+03  0.81253798386E+02 0.  0.
          5    1    3    3  501    0 -0.38194156681E+02  0.12366362802E+02 -0.67131940230E+00  0.40425996627E+02  0.47000000000E+01 0. -1.
        -11    1    4    4    0    0  0.77894648562E+02  0.33865694508E+02  0.14536912310E+03  0.16836461472E+03  0.00000000000E+00 0.  1.
         12    1    4    4    0    0 -0.15244208996E+01 -0.26256163773E+02  0.45391440886E+02  0.52460393639E+02  0.00000000000E+00 0. -1.
         -5    1    5    5    0  502  0.53206866943E+02  0.45147214818E+01  0.11936550246E+03  0.13084940419E+03  0.47000000000E+01 0.  1.
         11    1    6    6    0    0 -0.24658168509E+02 -0.23234282309E+02  0.15529796508E+03  0.15895066879E+03  0.00000000000E+00 0. -1.
        -12    1    6    6    0    0 -0.66724769416E+02 -0.12563327097E+01  0.59416242903E+02  0.89353584966E+02  0.00000000000E+00 0.  1.
</event>
<event>
12    1  0.9017558E-003  0.2560275E+03  0.7818608E-02  0.1109592E+00
         21   -1    0    0  501  502  0.00000000000E+00  0.00000000000E+00  0.13894508268E+04  0.13894508268E+04  0.00000000000E+00 0.  1.
         21   -1    0    0  502  503 -0.00000000000E+00 -0.00000000000E+00 -0.83491089132E+02  0.83491089132E+02  0.00000000000E+00 0.  1.
          6    2    1    2  501    0  0.10124823054E+03  0.16106527618E+03  0.16679217035E+03  0.30535772670E+03  0.17096925391E+03 0.  0.
         24    2    3    3    0    0  0.48772864376E+02  0.15526101793E+03  0.17504341172E+03  0.25171514611E+03  0.78965453255E+02 0.  0.
         -6    2    1    2    0  503 -0.10124823054E+03 -0.16106527618E+03  0.11391675673E+04  0.11675841892E+04  0.17133845204E+03 0.  0.
        -24    2    5    5    0    0 -0.15783017535E+02 -0.11091090804E+03  0.46878708327E+03  0.48990296132E+03  0.87711167506E+02 0.  0.
          5    1    3    3  501    0  0.52475366166E+02  0.58042582498E+01 -0.82512413624E+01  0.53642580588E+02  0.47000000000E+01 0. -1.
        -11    1    4    4    0    0  0.37731005209E+02  0.13167851047E+03  0.92812999244E+02  0.16546030249E+03  0.00000000000E+00 0.  1.
         12    1    4    4    0    0  0.11041859167E+02  0.23582507467E+02  0.82230412471E+02  0.86254843617E+02  0.00000000000E+00 0. -1.
         -5    1    5    5    0  503 -0.85465213007E+02 -0.50154368141E+02  0.67038048405E+03  0.67768122791E+03  0.47000000000E+01 0.  1.
         11    1    6    6    0    0 -0.72858609286E+01 -0.67733687568E+02  0.11710838602E+03  0.13548177101E+03  0.00000000000E+00 0. -1.
        -12    1    6    6    0    0 -0.84971566069E+01 -0.43177220472E+02  0.35167869726E+03  0.35442119031E+03  0.00000000000E+00 0.  1.
</event>
<event>
12    1  0.9017558E-003  0.1963109E+03  0.7818608E-02  0.1152939E+00
         21   -1    0    0  501  502  0.00000000000E+00  0.00000000000E+00  0.67058745862E+02  0.67058745862E+02  0.00000000000E+00 0. -1.
         21   -1    0    0  502  503 -0.00000000000E+00 -0.00000000000E+00 -0.62697686253E+03  0.62697686253E+03  0.00000000000E+00 0.  1.
          6    2    1    2  501    0  0.87553420043E+02  0.39239950871E+02 -0.17925575447E+03  0.26583938967E+03  0.17126756985E+03 0.  0.
         24    2    3    3    0    0  0.36373080618E+01 -0.31889190397E+02 -0.88341702780E+02  0.12305030261E+03  0.79416434377E+02 0.  0.
         -6    2    1    2    0  503 -0.87553420043E+02 -0.39239950871E+02 -0.38066236220E+03  0.42819621872E+03  0.17100524152E+03 0.  0.
        -24    2    5    5    0    0 -0.23240708046E+02 -0.35178705416E+02 -0.33935595734E+03  0.35150901169E+03  0.81353842554E+02 0.  0.
          5    1    3    3  501    0  0.83916111981E+02  0.71129141268E+02 -0.90914051685E+02  0.14278908705E+03  0.47000000000E+01 0. -1.
        -11    1    4    4    0    0  0.40943234916E+02 -0.21244378154E+02 -0.55934430268E+02  0.72500569501E+02  0.00000000000E+00 0.  1.
         12    1    4    4    0    0 -0.37305926854E+02 -0.10644812243E+02 -0.32407272511E+02  0.50549733112E+02  0.00000000000E+00 0. -1.
         -5    1    5    5    0  503 -0.64312711996E+02 -0.40612454551E+01 -0.41306404867E+02  0.76687207030E+02  0.47000000000E+01 0.  1.
         13    1    6    6    0    0 -0.45116737891E+02 -0.46613451647E+02 -0.27582923295E+03  0.28335507700E+03  0.00000000000E+00 0. -1.
        -14    1    6    6    0    0  0.21876029844E+02  0.11434746231E+02 -0.63526724382E+02  0.68153934691E+02  0.00000000000E+00 0.  1.
</event>
<event>
12    1  0.9017558E-003  0.1781781E+03  0.7818608E-02  0.1169909E+00
         21   -1    0    0  503  502  0.00000000000E+00  0.00000000000E+00  0.24112093498E+03  0.24112093498E+03  0.00000000000E+00 0. -1.
         21   -1    0    0  501  503 -0.00000000000E+00 -0.00000000000E+00 -0.14997691934E+03  0.14997691934E+03  0.00000000000E+00 0. -1.
          6    2    1    2  501    0  0.28135648418E+02  0.31678065304E+02  0.11557442551E+03  0.21125265019E+03  0.17168319617E+03 0.  0.
         24    2    3    3    0    0 -0.43965268152E+02  0.40810502945E+02  0.61452883741E+02  0.12051580613E+03  0.84552709311E+02 0.  0.
         -6    2    1    2    0  502 -0.28135648418E+02 -0.31678065304E+02 -0.24430409877E+02  0.17984520413E+03  0.17306743769E+03 0.  0.
        -24    2    5    5    0    0  0.22426766355E+02 -0.73521317142E+02 -0.24081034471E+02  0.11404529854E+03  0.80734688796E+02 0.  0.
          5    1    3    3  501    0  0.72100916570E+02 -0.91324376414E+01  0.54121541769E+02  0.90736844065E+02  0.47000000000E+01 0. -1.
        -13    1    4    4    0    0 -0.31453934427E+02  0.11360726120E+01 -0.13927468637E+02  0.34418236947E+02  0.00000000000E+00 0.  1.
         14    1    4    4    0    0 -0.12511333725E+02  0.39674430333E+02  0.75380352378E+02  0.86097569179E+02  0.00000000000E+00 0. -1.
         -5    1    5    5    0  502 -0.50562414773E+02  0.41843251838E+02 -0.34937540568E+00  0.65799905587E+02  0.47000000000E+01 0.  1.
         13    1    6    6    0    0  0.50916512370E+02 -0.34689400228E+02 -0.36186865176E+01  0.61716615366E+02  0.00000000000E+00 0. -1.
        -14    1    6    6    0    0 -0.28489746015E+02 -0.38831916914E+02 -0.20462347953E+02  0.52328683176E+02  0.00000000000E+00 0.  1.
</event>
<event>
12    1  0.9017558E-003  0.2699474E+03  0.7818608E-02  0.1101351E+00
         21   -1    0    0  501  502  0.00000000000E+00  0.00000000000E+00  0.19486800283E+02  0.19486800283E+02  0.00000000000E+00 0.  1.
         21   -1    0    0  502  503 -0.00000000000E+00 -0.00000000000E+00 -0.37357810736E+04  0.37357810736E+04  0.00000000000E+00 0.  1.
          6    2    1    2  501    0 -0.20153366423E+03 -0.52699456023E+02 -0.18722173239E+04  0.18915373658E+04  0.17123915332E+03 0.  0.
         24    2    3    3    0    0 -0.22663502025E+03 -0.65277679896E+02 -0.16648785353E+04  0.16822534604E+04  0.50314607703E+02 0.  0.
         -6    2    1    2    0  503  0.20153366423E+03  0.52699456023E+02 -0.18440769494E+04  0.18637305081E+04  0.17169321797E+03 0.  0.
        -24    2    5    5    0    0  0.11040538542E+03  0.83711948403E+02 -0.85281216553E+03  0.86779170496E+03  0.81097559131E+02 0.  0.
          5    1    3    3  501    0  0.25101356021E+02  0.12578223873E+02 -0.20733878865E+03  0.20928390542E+03  0.47000000000E+01 0. -1.
        -11    1    4    4    0    0 -0.81079655354E+02 -0.30725520845E+02 -0.78172929134E+03  0.78652314211E+03  0.00000000000E+00 0.  1.
         12    1    4    4    0    0 -0.14555536489E+03 -0.34552159051E+02 -0.88314924395E+03  0.89573031825E+03  0.00000000000E+00 0. -1.
         -5    1    5    5    0  503  0.91128278804E+02 -0.31012492380E+02 -0.99126478384E+03  0.99593880313E+03  0.47000000000E+01 0.  1.
         11    1    6    6    0    0  0.11744529658E+03  0.60722694198E+02 -0.77962520555E+03  0.79075666574E+03  0.00000000000E+00 0. -1.
        -12    1    6    6    0    0 -0.70399111541E+01  0.22989254205E+02 -0.73186959975E+02  0.77035039225E+02  0.00000000000E+00 0.  1.
</event>
<event>
12    1  0.9017558E-003  0.1940245E+03  0.7818608E-02  0.1154979E+00
         21   -1    0    0  503  502  0.00000000000E+00  0.00000000000E+00  0.21455565126E+03  0.21455565126E+03  0.00000000000E+00 0. -1.
         21   -1    0    0  501  503 -0.00000000000E+00 -0.00000000000E+00 -0.22039768715E+03  0.22039768715E+03  0.00000000000E+00 0.  1.
          6    2    1    2  501    0 -0.47367272268E+02  0.74688986106E+02 -0.10155968771E+03  0.21860317982E+03  0.17219429994E+03 0.  0.
         24    2    3    3    0    0 -0.31017317395E+01  0.52078352401E+02 -0.12928667826E+03  0.16149315584E+03  0.81505942600E+02 0.  0.
         -6    2    1    2    0  502  0.47367272268E+02 -0.74688986106E+02  0.95717651816E+02  0.21635015859E+03  0.17269458337E+03 0.  0.
        -24    2    5    5    0    0  0.70815634528E+02 -0.44173746894E+02  0.12284536322E+03  0.16903199884E+03  0.80713439766E+02 0.  0.
          5    1    3    3  501    0 -0.44265540529E+02  0.22610633705E+02  0.27726990545E+02  0.57110023985E+02  0.47000000000E+01 0. -1.
        -11    1    4    4    0    0 -0.24658258487E+02  0.66268827781E+02 -0.89345365491E+02  0.11393937678E+03  0.00000000000E+00 0.  1.
         12    1    4    4    0    0  0.21556526747E+02 -0.14190475380E+02 -0.39941312765E+02  0.47553779054E+02  0.00000000000E+00 0. -1.
         -5    1    5    5    0  502 -0.23448362260E+02 -0.30515239212E+02 -0.27127711399E+02  0.47318159755E+02  0.47000000000E+01 0.  1.
         13    1    6    6    0    0  0.32107357962E+02 -0.62261001253E+02  0.55935428356E+02  0.89644223783E+02  0.00000000000E+00 0. -1.
        -14    1    6    6    0    0  0.38708276566E+02  0.18087254359E+02  0.66909934860E+02  0.79387775053E+02  0.00000000000E+00 0.  1.
</event>
<event>
12    1  0.9017558E-003  0.2325785E+03  0.7818608E-02  0.1125270E+00
         21   -1    0    0  501  502  0.00000000000E+00  0.00000000000E+00  0.82757008909E+03  0.82757008909E+03  0.00000000000E+00 0.  1.
         21   -1    0    0  502  503 -0.00000000000E+00 -0.00000000000E+00 -0.12019116858E+03  0.12019116858E+03  0.00000000000E+00 0.  1.
          6    2    1    2  501    0  0.72120444249E+02  0.13658080722E+03  0.67678818275E+03  0.71563606908E+03  0.17388807802E+03 0.  0.
         24    2    3    3    0    0  0.11771248177E+03  0.10587723863E+03  0.49276364281E+03  0.52352031150E+03  0.78684756194E+02 0.  0.
         -6    2    1    2    0  503 -0.72120444249E+02 -0.13658080722E+03  0.30590737757E+02  0.23212518859E+03  0.17055976830E+03 0.  0.
        -24    2    5    5    0    0 -0.77558603307E+02 -0.12678321372E+03 -0.29255090994E+02  0.17105817923E+03  0.79471504994E+02 0.  0.
          5    1    3    3  501    0 -0.45592037517E+02  0.30703568582E+02  0.18402453994E+03  0.19211575758E+03  0.47000000000E+01 0. -1.
        -13    1    4    4    0    0  0.84994720724E+02  0.68636916755E+02  0.21283077382E+03  0.23923224527E+03  0.00000000000E+00 0.  1.
         14    1    4    4    0    0  0.32717761041E+02  0.37240321879E+02  0.27993286899E+03  0.28428806623E+03  0.00000000000E+00 0. -1.
         -5    1    5    5    0  503  0.54381590580E+01 -0.97975934968E+01  0.59845828751E+02  0.61067009352E+02  0.47000000000E+01 0.  1.
         11    1    6    6    0    0 -0.25104067503E+02 -0.30643451007E+00 -0.22910882380E+02  0.33988478029E+02  0.00000000000E+00 0. -1.
        -12    1    6    6    0    0 -0.52454535804E+02 -0.12647677921E+03 -0.63442086140E+01  0.13706970121E+03  0.00000000000E+00 0.  1.
</event>
<event>
12    1  0.9017558E-003  0.2058128E+03  0.7818608E-02  0.1145203E+00
         21   -1    0    0  501  502  0.00000000000E+00  0.00000000000E+00  0.15040190962E+03  0.15040190962E+03  0.00000000000E+00 0. -1.
         21   -1    0    0  502  503 -0.00000000000E+00 -0.00000000000E+00 -0.46207921781E+03  0.46207921781E+03  0.00000000000E+00 0. -1.
          6    2    1    2  501    0 -0.39323657188E+02 -0.10228584249E+03  0.36201795919E+02  0.20897247153E+03  0.17421303121E+03 0.  0.
         24    2    3    3    0    0  0.37213500163E+02 -0.17898332120E+02  0.10958973040E+01  0.89667390000E+02  0.79585456909E+02 0.  0.
         -6    2    1    2    0  503  0.39323657188E+02  0.10228584249E+03 -0.34787910411E+03  0.40350865590E+03  0.17259959652E+03 0.  0.
        -24    2    5    5    0    0  0.76602091613E+02  0.94183439769E+02 -0.17977001555E+03  0.23106131246E+03  0.79584363147E+02 0.  0.
          5    1    3    3  501    0 -0.76537157351E+02 -0.84387510369E+02  0.35105898615E+02  0.11930508153E+03  0.47000000000E+01 0. -1.
        -11    1    4    4    0    0  0.53712849537E+01 -0.42624534474E+02 -0.16044405889E+02  0.45859836475E+02  0.00000000000E+00 0.  1.
         12    1    4    4    0    0  0.31842215209E+02  0.24726202354E+02  0.17140303193E+02  0.43807553525E+02  0.00000000000E+00 0. -1.
         -5    1    5    5    0  503 -0.37278434425E+02  0.81024027193E+01 -0.16810908857E+03  0.17244734345E+03  0.47000000000E+01 0.  1.
         11    1    6    6    0    0  0.74795187453E+02  0.37838956157E+02 -0.13572182118E+03  0.15951965212E+03  0.00000000000E+00 0. -1.
        -12    1    6    6    0    0  0.18069041597E+01  0.56344483612E+02 -0.44048194371E+02  0.71541660335E+02  0.00000000000E+00 0.  1.
</event>
<event>
12    1  0.9017558E-003  0.1867639E+03  0.7818608E-02  0.1163391E+00
         21   -1    0    0  503  502  0.00000000000E+00  0.00000000000E+00  0.20691403047E+03  0.20691403047E+03  0.00000000000E+00 0.  1.
         21   -1    0    0  501  503 -0.00000000000E+00 -0.00000000000E+00 -0.16523146079E+03  0.16523146079E+03  0.00000000000E+00 0.  1.
          6    2    1    2  501    0 -0.16930471349E+02  0.47463158154E+02 -0.90152386144E+01  0.17862278201E+03  0.17112986731E+03 0.  0.
         24    2    3    3    0    0 -0.62885517067E+02  0.17588354285E+02 -0.44982323786E+02  0.11289538020E+03  0.80361800344E+02 0.  0.
         -6    2    1    2    0  502  0.16930471349E+02 -0.47463158154E+02  0.50697808299E+02  0.19352270924E+03  0.17983709013E+03 0.  0.
        -24    2    5    5    0    0 -0.75088327895E+01 -0.10555794929E+03  0.28489668221E+02  0.12653333823E+03  0.63246828058E+02 0.  0.
          5    1    3    3  501    0  0.45955045718E+02  0.29874803869E+02  0.35967085172E+02  0.65727401812E+02  0.47000000000E+01 0. -1.
        -11    1    4    4    0    0 -0.19318352848E+02 -0.18957930746E+02  0.14414619838E+02  0.30665667448E+02  0.00000000000E+00 0.  1.
         12    1    4    4    0    0 -0.43567164219E+02  0.36546285032E+02 -0.59396943624E+02  0.82229712754E+02  0.00000000000E+00 0. -1.
         -5    1    5    5    0  502  0.24439304139E+02  0.58094791135E+02  0.22208140078E+02  0.66989371019E+02  0.47000000000E+01 0.  1.
         11    1    6    6    0    0  0.21874701186E+01 -0.23110293289E+01 -0.14079645412E+02  0.14434760026E+02  0.00000000000E+00 0. -1.
        -12    1    6    6    0    0 -0.96963029081E+01 -0.10324691996E+03  0.42569313633E+02  0.11209857820E+03  0.00000000000E+00 0.  1.
</event>
<event>
12    1  0.9017558E-003  0.2037364E+03  0.7818608E-02  0.1146778E+00
         21   -1    0    0  503  502  0.00000000000E+00  0.00000000000E+00  0.75207627843E+02  0.75207627843E+02  0.00000000000E+00 0.  1.
         21   -1    0    0  501  503 -0.00000000000E+00 -0.00000000000E+00 -0.56247692907E+03  0.56247692907E+03  0.00000000000E+00 0.  1.
          6    2    1    2  501    0  0.20145072074E+01 -0.10789787300E+03 -0.19552924258E+03  0.28184639134E+03  0.17192932957E+03 0.  0.
         24    2    3    3    0    0  0.26771101240E+02  0.10276483523E+01 -0.12203250065E+03  0.14804983224E+03  0.79429677642E+02 0.  0.
         -6    2    1    2    0  502 -0.20145072074E+01  0.10789787300E+03 -0.29174005865E+03  0.35583816558E+03  0.17280778057E+03 0.  0.
        -24    2    5    5    0    0  0.14533123763E+02 -0.56503896384E+01 -0.15734807130E+03  0.17906054171E+03  0.84030491284E+02 0.  0.
          5    1    3    3  501    0 -0.24756594032E+02 -0.10892552135E+03 -0.73496741936E+02  0.13379655909E+03  0.47000000000E+01 0. -1.
        -13    1    4    4    0    0  0.73664498171E+01 -0.14764279553E+02 -0.12191963270E+03  0.12303107482E+03  0.00000000000E+00 0.  1.
         14    1    4    4    0    0  0.19404651422E+02  0.15791927905E+02 -0.11286794659E+00  0.25018757422E+02  0.00000000000E+00 0. -1.
         -5    1    5    5    0  502 -0.16547630970E+02  0.11354826264E+03 -0.13439198735E+03  0.17677762387E+03  0.47000000000E+01 0.  1.
         13    1    6    6    0    0  0.16321334304E+02  0.22248505654E+01 -0.16623690631E+03  0.16705102494E+03  0.00000000000E+00 0. -1.
        -14    1    6    6    0    0 -0.17882105407E+01 -0.78752402038E+01  0.88888350098E+01  0.12009516769E+02  0.00000000000E+00 0.  1.
</event>
<event>
12    1  0.9017558E-003  0.2615585E+03  0.7818608E-02  0.1107169E+00
         21   -1    0    0  501  502  0.00000000000E+00  0.00000000000E+00  0.70058352240E+03  0.70058352240E+03  0.00000000000E+00 0. -1.
         21   -1    0    0  502  503 -0.00000000000E+00 -0.00000000000E+00 -0.11138874241E+03  0.11138874241E+03  0.00000000000E+00 0.  1.
          6    2    1    2  501    0  0.17166834740E+03  0.96579640457E+02  0.45199465922E+03  0.52221834341E+03  0.17209060923E+03 0.  0.
         24    2    3    3    0    0  0.39967557650E+02  0.89606244270E+02  0.26185663494E+03  0.29077011043E+03  0.79697397580E+02 0.  0.
         -6    2    1    2    0  503 -0.17166834740E+03 -0.96579640457E+02  0.13720012078E+03  0.28975392140E+03  0.16228312720E+03 0.  0.
        -24    2    5    5    0    0 -0.62692541572E+02 -0.71468288917E+02  0.13434239946E+02  0.12288154654E+03  0.76689794553E+02 0.  0.
          5    1    3    3  501    0  0.13170078975E+03  0.69733961869E+01  0.19013802428E+03  0.23144823298E+03  0.47000000000E+01 0. -1.
        -13    1    4    4    0    0 -0.10829550391E+02 -0.27244629257E+01  0.34283044280E+01  0.11681401079E+02  0.00000000000E+00 0.  1.
         14    1    4    4    0    0  0.50797108041E+02  0.92330707196E+02  0.25842833051E+03  0.27908870935E+03  0.00000000000E+00 0. -1.
         -5    1    5    5    0  503 -0.10897580583E+03 -0.25111351540E+02  0.12376588083E+03  0.16687237485E+03  0.47000000000E+01 0.  1.
         13    1    6    6    0    0  0.12421447532E+02 -0.32965277993E+01  0.17084776386E+02  0.21378705257E+02  0.00000000000E+00 0. -1.
        -14    1    6    6    0    0 -0.75113989103E+02 -0.68171761118E+02 -0.36505364398E+01  0.10150284129E+03  0.00000000000E+00 0.  1.
</event>
<event>
12    1  0.9017558E-003  0.1886880E+03  0.7818608E-02  0.1159954E+00
         21   -1    0    0  503  502  0.00000000000E+00  0.00000000000E+00  0.87202587179E+03  0.87202587179E+03  0.00000000000E+00 0.  1.
         21   -1    0    0  501  503 -0.00000000000E+00 -0.00000000000E+00 -0.40692296206E+02  0.40692296206E+02  0.00000000000E+00 0.  1.
          6    2    1    2  501    0 -0.48574959511E+02 -0.55802679070E+02  0.44495039957E+03  0.48330529039E+03  0.17357903088E+03 0.  0.
         24    2    3    3    0    0 -0.87117553757E+01 -0.83343098838E+02  0.18285313278E+03  0.21672581440E+03  0.80702191120E+02 0.  0.
         -6    2    1    2    0  502  0.48574959511E+02  0.55802679070E+02  0.38638317602E+03  0.42941287761E+03  0.17213365465E+03 0.  0.
        -24    2    5    5    0    0  0.59916470906E+01  0.76333966576E+02  0.14000479439E+03  0.17849602047E+03  0.79979451003E+02 0.  0.
          5    1    3    3  501    0 -0.39863204135E+02  0.27540419768E+02  0.26209726679E+03  0.26657947600E+03  0.47000000000E+01 0. -1.
        -13    1    4    4    0    0 -0.30116316306E+02 -0.57063170980E+02  0.56040712821E+02  0.85462035335E+02  0.00000000000E+00 0.  1.
         14    1    4    4    0    0  0.21404560931E+02 -0.26279927858E+02  0.12681241996E+03  0.13126377906E+03  0.00000000000E+00 0. -1.
         -5    1    5    5    0  502  0.42583312420E+02 -0.20531287505E+02  0.24637838163E+03  0.25091685714E+03  0.47000000000E+01 0.  1.
         11    1    6    6    0    0  0.30483742583E+02  0.54457275128E+01  0.19616325203E+02  0.36656714589E+02  0.00000000000E+00 0. -1.
        -12    1    6    6    0    0 -0.24492095492E+02  0.70888239063E+02  0.12038846918E+03  0.14183930588E+03  0.00000000000E+00 0.  1.
</event>
<event>
12    1  0.9017558E-003  0.1960653E+03  0.7818608E-02  0.1153230E+00
         21   -1    0    0  503  502  0.00000000000E+00  0.00000000000E+00  0.64835947460E+02  0.64835947460E+02  0.00000000000E+00 0. -1.
         21   -1    0    0  501  503 -0.00000000000E+00 -0.00000000000E+00 -0.62181388825E+03  0.62181388825E+03  0.00000000000E+00 0. -1.
          6    2    1    2  501    0  0.93058243662E+02 -0.14875959206E+01 -0.35437494026E+03  0.40471084874E+03  0.17189305730E+03 0.  0.
         24    2    3    3    0    0  0.50474600199E+02 -0.11704365382E+02 -0.77899166333E+02  0.12474890019E+03  0.82518667879E+02 0.  0.
         -6    2    1    2    0  502 -0.93058243662E+02  0.14875959206E+01 -0.20260300053E+03  0.28193898697E+03  0.17256757197E+03 0.  0.
        -24    2    5    5    0    0 -0.11352745445E+03  0.39870083734E+02 -0.13105320476E+03  0.19807202544E+03  0.87060199245E+02 0.  0.
          5    1    3    3  501    0  0.42583643463E+02  0.10216769461E+02 -0.27647577392E+03  0.27996194855E+03  0.47000000000E+01 0. -1.
        -11    1    4    4    0    0  0.20527920182E+01  0.59653330031E+01  0.16239807895E+02  0.17422127120E+02  0.00000000000E+00 0.  1.
         12    1    4    4    0    0  0.48421808181E+02 -0.17669698385E+02 -0.94138974228E+02  0.10732677307E+03  0.00000000000E+00 0. -1.
         -5    1    5    5    0  502  0.20469210792E+02 -0.38382487814E+02 -0.71549795773E+02  0.83866961530E+02  0.47000000000E+01 0.  1.
         11    1    6    6    0    0 -0.49729283665E+01  0.23527455520E+02 -0.66515314406E+02  0.70728765226E+02  0.00000000000E+00 0. -1.
        -12    1    6    6    0    0 -0.10855452609E+03  0.16342628214E+02 -0.64537890355E+02  0.12734326022E+03  0.00000000000E+00 0.  1.
</event>
<event>
12    1  0.9017558E-003  0.1994440E+03  0.7818608E-02  0.1150638E+00
         21   -1    0    0  503  502  0.00000000000E+00  0.00000000000E+00  0.83538824947E+02  0.83538824947E+02  0.00000000000E+00 0.  1.
         21   -1    0    0  501  503 -0.00000000000E+00 -0.00000000000E+00 -0.62058146430E+03  0.62058146430E+03  0.00000000000E+00 0.  1.
          6    2    1    2  501    0 -0.95759637599E+02 -0.15742320219E+02 -0.44011860235E+03  0.48237226860E+03  0.17193281403E+03 0.  0.
         24    2    3    3    0    0 -0.10004160991E+03  0.26628359167E+02 -0.20786590717E+03  0.24620069077E+03  0.81787233379E+02 0.  0.
         -6    2    1    2    0  502  0.95759637599E+02  0.15742320219E+02 -0.96924036997E+02  0.22174802064E+03  0.17424174836E+03 0.  0.
        -24    2    5    5    0    0  0.11860643023E+03 -0.21958308189E+02 -0.42999213689E+02  0.15193906789E+03  0.81773439341E+02 0.  0.
          5    1    3    3  501    0  0.42819723129E+01 -0.42370679386E+02 -0.23225269518E+03  0.23617157784E+03  0.47000000000E+01 0. -1.
        -11    1    4    4    0    0 -0.90912781562E+02 -0.10620642427E+02 -0.12538509519E+03  0.15523966630E+03  0.00000000000E+00 0.  1.
         12    1    4    4    0    0 -0.91288283491E+01  0.37249001594E+02 -0.82480811984E+02  0.90961024468E+02  0.00000000000E+00 0. -1.
         -5    1    5    5    0  502 -0.22846792633E+02  0.37700628407E+02 -0.53924823308E+02  0.69808952754E+02  0.47000000000E+01 0.  1.
         11    1    6    6    0    0  0.27668162526E+02 -0.36976628625E+02 -0.37701096971E+02  0.59616868375E+02  0.00000000000E+00 0. -1.
        -12    1    6    6    0    0  0.90938267706E+02  0.15018320436E+02 -0.52981167184E+01  0.92322199512E+02  0.00000000000E+00 0.  1.
</event>
<event>
12    1  0.9017558E-003  0.1905434E+03  0.7818608E-02  0.1158594E+00
         21   -1    0    0  501  502  0.00000000000E+00  0.00000000000E+00  0.87191313740E+03  0.87191313740E+03  0.00000000000E+00 0. -1.
         21   -1    0    0  502  503 -0.00000000000E+00 -0.00000000000E+00 -0.53452415107E+02  0.53452415107E+02  0.00000000000E+00 0. -1.
          6    2    1    2  501    0 -0.21654160156E+02  0.71356213253E+02  0.62988617258E+03  0.65728509451E+03  0.17235571715E+03 0.  0.
         24    2    3    3    0    0  0.17307202692E+02  0.84822284361E+02  0.25831166893E+03  0.28340138982E+03  0.78083738763E+02 0.  0.
         -6    2    1    2    0  503  0.21654160156E+02 -0.71356213253E+02  0.18857454971E+03  0.26808045799E+03  0.17534582783E+03 0.  0.
        -24    2    5    5    0    0  0.19305046891E+00 -0.87351236629E+02  0.52152435311E+02  0.12897796593E+03  0.79279022303E+02 0.  0.
          5    1    3    3  501    0 -0.38961362848E+02 -0.13466071108E+02  0.37157450366E+03  0.37388370469E+03  0.47000000000E+01 0. -1.
        -11    1    4    4    0    0  0.12122979487E+01 -0.51633150249E+01 -0.33216479892E+01  0.62580215505E+01  0.00000000000E+00 0.  1.
         12    1    4    4    0    0  0.16094904743E+02  0.89985599386E+02  0.26163331692E+03  0.27714336827E+03  0.00000000000E+00 0. -1.
         -5    1    5    5    0  503  0.21461109687E+02  0.15995023375E+02  0.13642211440E+03  0.13910249206E+03  0.47000000000E+01 0.  1.
         13    1    6    6    0    0 -0.99469423158E+01 -0.22763131792E+02 -0.19793879416E+02  0.31763178253E+02  0.00000000000E+00 0. -1.
        -14    1    6    6    0    0  0.10139992785E+02 -0.64588104837E+02  0.71946314727E+02  0.97214787676E+02  0.00000000000E+00 0.  1.
</event>
<event>
12    1  0.9017558E-003  0.1927455E+03  0.7818608E-02  0.1156198E+00
         21   -1    0    0  501  502  0.00000000000E+00  0.00000000000E+00  0.12404893258E+03  0.12404893258E+03  0.00000000000E+00 0. -1.
         21   -1    0    0  502  503 -0.00000000000E+00 -0.00000000000E+00 -0.29841049388E+03  0.29841049388E+03  0.00000000000E+00 0.  1.
          6    2    1    2  501    0 -0.73590707123E+02 -0.44530554278E+02 -0.81183385588E+02  0.20914489093E+03  0.17248849488E+03 0.  0.
         24    2    3    3    0    0  0.41811480337E+01 -0.65438506965E+02 -0.76081691636E+02  0.12831345384E+03  0.79851352158E+02 0.  0.
         -6    2    1    2    0  503  0.73590707123E+02  0.44530554278E+02 -0.93178175712E+02  0.21331453553E+03  0.17152946161E+03 0.  0.
        -24    2    5    5    0    0  0.29562486315E+02  0.71599917408E+02 -0.54412693574E+01  0.11137784251E+03  0.79843143852E+02 0.  0.
          5    1    3    3  501    0 -0.77771855157E+02  0.20907952686E+02 -0.51016939517E+01  0.80831437085E+02  0.47000000000E+01 0. -1.
        -11    1    4    4    0    0 -0.67739467318E+01  0.88900881072E+01 -0.46075129280E+02  0.47411365294E+02  0.00000000000E+00 0.  1.
         12    1    4    4    0    0  0.10955094766E+02 -0.74328595072E+02 -0.30006562356E+02  0.80902088546E+02  0.00000000000E+00 0. -1.
         -5    1    5    5    0  503  0.44028220809E+02 -0.27069363130E+02 -0.87736906354E+02  0.10193669302E+03  0.47000000000E+01 0.  1.
         11    1    6    6    0    0 -0.25969353834E+02  0.11472874086E+02 -0.79795083512E+01  0.29490790628E+02  0.00000000000E+00 0. -1.
        -12    1    6    6    0    0  0.55531840149E+02  0.60127043322E+02  0.25382389938E+01  0.81887051883E+02  0.00000000000E+00 0.  1.
</event>
<event>
12    1  0.9017558E-003  0.2260379E+03  0.7818608E-02  0.1129483E+00
         21   -1    0    0  503  502  0.00000000000E+00  0.00000000000E+00  0.21960293779E+03  0.21960293779E+03  0.00000000000E+00 0.  1.
         21   -1    0    0  501  503 -0.00000000000E+00 -0.00000000000E+00 -0.48724910029E+03  0.48724910029E+03  0.00000000000E+00 0.  1.
          6    2    1    2  501    0 -0.14073307904E+03  0.40894653671E+02 -0.38934300877E+03  0.45013577800E+03  0.17191878290E+03 0.  0.
         24    2    3    3    0    0 -0.93611673033E+02  0.62936768962E+02 -0.36989052415E+03  0.39439736298E+03  0.77499018380E+02 0.  0.
         -6    2    1    2    0  502  0.14073307904E+03 -0.40894653671E+02  0.12169684627E+03  0.25671626008E+03  0.17208992871E+03 0.  0.
        -24    2    5    5    0    0  0.16112740051E+03 -0.12860774587E+02  0.12911987848E+03  0.22095289710E+03  0.77593820640E+02 0.  0.
          5    1    3    3  501    0 -0.47121406009E+02 -0.22042115291E+02 -0.19452484620E+02  0.55738415017E+02  0.47000000000E+01 0. -1.
        -13    1    4    4    0    0 -0.63825785203E+02 -0.10977849503E+01 -0.21265867159E+03  0.22203298537E+03  0.00000000000E+00 0.  1.
         14    1    4    4    0    0 -0.29785887830E+02  0.64034553913E+02 -0.15723185256E+03  0.17236437761E+03  0.00000000000E+00 0. -1.
         -5    1    5    5    0  502 -0.20394321466E+02 -0.28033879084E+02 -0.74230322085E+01  0.35763362981E+02  0.47000000000E+01 0.  1.
         13    1    6    6    0    0  0.25512503700E+02  0.22125461216E+02  0.56412157649E+01  0.34238095659E+02  0.00000000000E+00 0. -1.
        -14    1    6    6    0    0  0.13561489681E+03 -0.34986235803E+02  0.12347866271E+03  0.18671480144E+03  0.00000000000E+00 0.  1.
</event>
<event>
12    1  0.9017558E-003  0.2253224E+03  0.7818608E-02  0.1130148E+00
         21   -1    0    0  503  502  0.00000000000E+00  0.00000000000E+00  0.17425977888E+03  0.17425977888E+03  0.00000000000E+00 0.  1.
         21   -1    0    0  501  503 -0.00000000000E+00 -0.00000000000E+00 -0.29660386218E+03  0.29660386218E+03  0.00000000000E+00 0.  1.
          6    2    1    2  501    0  0.13688776809E+03 -0.44209882813E+02 -0.95851681707E+02  0.24398917160E+03  0.17219290398E+03 0.  0.
         24    2    3    3    0    0  0.72680188430E+02  0.27517948612E+02 -0.76479848609E+00  0.10859677725E+03  0.75848716714E+02 0.  0.
         -6    2    1    2    0  502 -0.13688776809E+03  0.44209882813E+02 -0.26492401595E+02  0.22687446946E+03  0.17342837933E+03 0.  0.
        -24    2    5    5    0    0 -0.18333840902E+02  0.17646549349E+02 -0.57882074598E+02  0.10130358944E+03  0.79148924490E+02 0.  0.
          5    1    3    3  501    0  0.64207579665E+02 -0.71727831425E+02 -0.95086883221E+02  0.13539239435E+03  0.47000000000E+01 0. -1.
        -11    1    4    4    0    0  0.65869678327E+02  0.73601610423E+01 -0.29741948913E+02  0.72646885815E+02  0.00000000000E+00 0.  1.
         12    1    4    4    0    0  0.68105101026E+01  0.20157787570E+02  0.28977150427E+02  0.35949891438E+02  0.00000000000E+00 0. -1.
         -5    1    5    5    0  502 -0.11855392719E+03  0.26563333465E+02  0.31389673003E+02  0.12557088002E+03  0.47000000000E+01 0.  1.
         11    1    6    6    0    0 -0.45272252041E+02 -0.74887289631E+01 -0.37054482976E+02  0.58980442309E+02  0.00000000000E+00 0. -1.
        -12    1    6    6    0    0  0.26938411138E+02  0.25135278312E+02 -0.20827591622E+02  0.42323147133E+02  0.00000000000E+00 0.  1.
</event>
<event>
12    1  0.9017558E-003  0.1946247E+03  0.7818608E-02  0.1154775E+00
         21   -1    0    0  503  502  0.00000000000E+00  0.00000000000E+00  0.88379373339E+02  0.88379373339E+02  0.00000000000E+00 0. -1.
         21   -1    0    0  501  503 -0.00000000000E+00 -0.00000000000E+00 -0.44732774247E+03  0.44732774247E+03  0.00000000000E+00 0. -1.
          6    2    1    2  501    0  0.89418136568E+02 -0.71303090873E+00 -0.11798166657E+03  0.22595929043E+03  0.17070974115E+03 0.  0.
         24    2    3    3    0    0 -0.47098104531E+01 -0.37401065636E+02 -0.77399241113E+02  0.11698633251E+03  0.79209452993E+02 0.  0.
         -6    2    1    2    0  502 -0.89418136568E+02  0.71303090873E+00 -0.24096670256E+03  0.30974782538E+03  0.17286599441E+03 0.  0.
        -24    2    5    5    0    0 -0.53074938878E+02 -0.62304743430E+02 -0.18469457598E+03  0.21765705423E+03  0.81016520959E+02 0.  0.
          5    1    3    3  501    0  0.94127947021E+02  0.36688034727E+02 -0.40582425461E+02  0.10897295792E+03  0.47000000000E+01 0. -1.
        -11    1    4    4    0    0  0.23587256710E+02 -0.36278585571E+00 -0.64418291956E+02  0.68601797580E+02  0.00000000000E+00 0.  1.
         12    1    4    4    0    0 -0.28297067163E+02 -0.37038279780E+02 -0.12980949156E+02  0.48384534927E+02  0.00000000000E+00 0. -1.
         -5    1    5    5    0  502 -0.36343197691E+02  0.63017774339E+02 -0.56272126572E+02  0.92090771144E+02  0.47000000000E+01 0.  1.
         11    1    6    6    0    0 -0.42849742770E+02 -0.50817600777E+02 -0.19007596409E+03  0.20136385259E+03  0.00000000000E+00 0. -1.
        -12    1    6    6    0    0 -0.10225196108E+02 -0.11487142652E+02  0.53813881087E+01  0.16293201642E+02  0.00000000000E+00 0.  1.
</event>
<event>
12    1  0.9017558E-003  0.1899935E+03  0.7818608E-02  0.1158645E+00
         21   -1    0    0  503  502  0.00000000000E+00  0.00000000000E+00  0.53231990411E+03  0.53231990411E+03  0.00000000000E+00 0.  1.
         21   -1    0    0  501  503 -0.00000000000E+00 -0.00000000000E+00 -0.74095497537E+02  0.74095497537E+02  0.00000000000E+00 0.  1.
          6    2    1    2  501    0 -0.29478519688E+02  0.73463697847E+02  0.13929340377E+03  0.23558479833E+03  0.17271840332E+03 0.  0.
         24    2    3    3    0    0 -0.71121461271E+02  0.94716541410E+02  0.93963560310E+02  0.17029542208E+03  0.78370240812E+02 0.  0.
         -6    2    1    2    0  502  0.29478519688E+02 -0.73463697847E+02  0.31893100280E+03  0.37083060331E+03  0.17185009102E+03 0.  0.
        -24    2    5    5    0    0  0.50630437086E+01 -0.10750793621E+03  0.29070607042E+03  0.32009735543E+03  0.79804177924E+02 0.  0.
          5    1    3    3  501    0  0.41642941583E+02 -0.21252843563E+02  0.45329843461E+02  0.65289376252E+02  0.47000000000E+01 0. -1.
        -11    1    4    4    0    0 -0.14344908948E+02  0.57223598532E+02  0.63052293369E+01  0.59330199382E+02  0.00000000000E+00 0.  1.
         12    1    4    4    0    0 -0.56776552323E+02  0.37492942878E+02  0.87658330974E+02  0.11096522270E+03  0.00000000000E+00 0. -1.
         -5    1    5    5    0  502  0.24415475980E+02  0.34044238362E+02  0.28224932377E+02  0.50733247882E+02  0.47000000000E+01 0.  1.
         13    1    6    6    0    0 -0.30524886589E+02 -0.52966608785E+02  0.19481888075E+03  0.20418527529E+03  0.00000000000E+00 0. -1.
        -14    1    6    6    0    0  0.35587930297E+02 -0.54541327424E+02  0.95887189672E+02  0.11591208014E+03  0.00000000000E+00 0.  1.
</event>
<event>
12    1  0.9017558E-003  0.1814614E+03  0.7818608E-02  0.1168139E+00
         21   -1    0    0  503  502  0.00000000000E+00  0.00000000000E+00  0.28343227702E+02  0.28343227702E+02  0.00000000000E+00 0.  1.
         21   -1    0    0  501  503 -0.00000000000E+00 -0.00000000000E+00 -0.11258102545E+04  0.11258102545E+04  0.00000000000E+00 0.  1.
          6    2    1    2  501    0  0.20529035912E+02 -0.17270713956E+02 -0.59002356108E+03  0.61524059688E+03  0.17225989241E+03 0.  0.
         24    2    3    3    0    0  0.41378391165E+02 -0.44394649146E+02 -0.18632047071E+03  0.21006325465E+03  0.75684853308E+02 0.  0.
         -6    2    1    2    0  502 -0.20529035912E+02  0.17270713956E+02 -0.50744346567E+03  0.53891288529E+03  0.17946729005E+03 0.  0.
        -24    2    5    5    0    0 -0.35093565491E+02 -0.35149063866E+02 -0.44926336089E+03  0.45911956964E+03  0.80536927936E+02 0.  0.
          5    1    3    3  501    0 -0.20849355253E+02  0.27123935189E+02 -0.40370309038E+03  0.40517734223E+03  0.47000000000E+01 0. -1.
        -13    1    4    4    0    0 -0.83662424043E+00 -0.31239527642E+02 -0.14887860103E+03  0.15212312734E+03  0.00000000000E+00 0.  1.
         14    1    4    4    0    0  0.42215015405E+02 -0.13155121504E+02 -0.37441869680E+02  0.57940127309E+02  0.00000000000E+00 0. -1.
         -5    1    5    5    0  502  0.14564529579E+02  0.52419777822E+02 -0.58180104783E+02  0.79793315643E+02  0.47000000000E+01 0.  1.
         13    1    6    6    0    0  0.12017316948E+02 -0.33386899143E+02 -0.31146726994E+03  0.31348199500E+03  0.00000000000E+00 0. -1.
        -14    1    6    6    0    0 -0.47110882439E+02 -0.17621647228E+01 -0.13779609095E+03  0.14563757465E+03  0.00000000000E+00 0.  1.
</event>
<event>
12    1  0.9017558E-003  0.2238522E+03  0.7818608E-02  0.1131502E+00
         21   -1    0    0  501  502  0.00000000000E+00  0.00000000000E+00  0.68664612939E+02  0.68664612939E+02  0.00000000000E+00 0.  1.
         21   -1    0    0  502  503 -0.00000000000E+00 -0.00000000000E+00 -0.74515786915E+03  0.74515786915E+03  0.00000000000E+00 0.  1.
          6    2    1    2  501    0  0.44789108218E+01  0.14340652895E+03 -0.26410736682E+03  0.34459767644E+03  0.16855077635E+03 0.  0.
         24    2    3    3    0    0 -0.16527494747E+02  0.14263359200E+03 -0.27496944008E+03  0.32047422018E+03  0.80486229690E+02 0.  0.
         -6    2    1    2    0  503 -0.44789108218E+01 -0.14340652895E+03 -0.41238588939E+03  0.46922480565E+03  0.17182637540E+03 0.  0.
        -24    2    5    5    0    0  0.27317004764E+02 -0.13016022189E+02 -0.20565678689E+03  0.22270568607E+03  0.79921668074E+02 0.  0.
          5    1    3    3  501    0  0.21006405569E+02  0.77293694675E+00  0.10862073259E+02  0.24123456260E+02  0.47000000000E+01 0. -1.
        -13    1    4    4    0    0  0.95639711339E+01  0.83989345241E+02 -0.84680534795E+02  0.11965146314E+03  0.00000000000E+00 0.  1.
         14    1    4    4    0    0 -0.26091465881E+02  0.58644246764E+02 -0.19028890529E+03  0.20082275704E+03  0.00000000000E+00 0. -1.
         -5    1    5    5    0  503 -0.31795915586E+02 -0.13039050676E+03 -0.20672910249E+03  0.24651911958E+03  0.47000000000E+01 0.  1.
         13    1    6    6    0    0  0.84835197322E+01 -0.26151802121E+02 -0.19579455438E+03  0.19771543791E+03  0.00000000000E+00 0. -1.
        -14    1    6    6    0    0  0.18833485032E+02  0.13135779932E+02 -0.98622325099E+01  0.24990248157E+02  0.00000000000E+00 0.  1.
</event>
<event>
12    1  0.9017558E-003  0.2659187E+03  0.7818608E-02  0.1103674E+00
         21   -1    0    0  501  502  0.00000000000E+00  0.00000000000E+00  0.72260408004E+03  0.72260408004E+03  0.00000000000E+00 0. -1.
         21   -1    0    0  502  503 -0.00000000000E+00 -0.00000000000E+00 -0.16294583016E+03  0.16294583016E+03  0.00000000000E+00 0.  1.
          6    2    1    2  501    0 -0.71020019770E+02  0.18676616657E+03  0.55978579911E+03  0.61963120673E+03  0.17509211085E+03 0.  0.
         24    2    3    3    0    0  0.29346792413E+01  0.42117506878E+02  0.12259145907E+03  0.15320488541E+03  0.81612341885E+02 0.  0.
         -6    2    1    2    0  503  0.71020019770E+02 -0.18676616657E+03 -0.12754922571E+00  0.26591870347E+03  0.17546309127E+03 0.  0.
        -24    2    5    5    0    0  0.10070493777E+02 -0.98071094812E+02  0.62512463021E+02  0.14130922707E+03  0.79631244745E+02 0.  0.
          5    1    3    3  501    0 -0.73954699011E+02  0.14464865970E+03  0.43719434004E+03  0.46642632132E+03  0.47000000000E+01 0. -1.
        -11    1    4    4    0    0 -0.44414610720E+01 -0.23870856371E+02  0.44563372466E+02  0.50748778565E+02  0.00000000000E+00 0.  1.
         12    1    4    4    0    0  0.73761403132E+01  0.65988363249E+02  0.78028086602E+02  0.10245610684E+03  0.00000000000E+00 0. -1.
         -5    1    5    5    0  503  0.60949525993E+02 -0.88695071762E+02 -0.62640012246E+02  0.12460947640E+03  0.47000000000E+01 0.  1.
         11    1    6    6    0    0 -0.28487782149E+02 -0.10854708502E+02  0.22527182639E+02  0.37905835779E+02  0.00000000000E+00 0. -1.
        -12    1    6    6    0    0  0.38558275926E+02 -0.87216386310E+02  0.39985280381E+02  0.10340339129E+03  0.00000000000E+00 0.  1.
</event>
<event>
12    1  0.9017558E-003  0.1818308E+03  0.7818608E-02  0.1166339E+00
         21   -1    0    0  503  502  0.00000000000E+00  0.00000000000E+00  0.19056469762E+04  0.19056469762E+04  0.00000000000E+00 0. -1.
         21   -1    0    0  501  503 -0.00000000000E+00 -0.00000000000E+00 -0.20253373146E+02  0.20253373146E+02  0.00000000000E+00 0. -1.
          6    2    1    2  501    0  0.55138940053E+01 -0.55425024093E+02  0.56804304829E+03  0.59606016708E+03  0.17179197230E+03 0.  0.
         24    2    3    3    0    0 -0.16827406653E+02 -0.67931231141E+02  0.55841512788E+03  0.56830542368E+03  0.79030283844E+02 0.  0.
         -6    2    1    2    0  502 -0.55138940053E+01  0.55425024093E+02  0.13173505548E+04  0.13298401823E+04  0.17308983191E+03 0.  0.
        -24    2    5    5    0    0  0.22718467390E+02  0.29053769799E+02  0.12400982243E+04  0.12433386109E+04  0.81774355429E+02 0.  0.
          5    1    3    3  501    0  0.22341300658E+02  0.12506207049E+02  0.96279204179E+01  0.27754743404E+02  0.47000000000E+01 0. -1.
        -11    1    4    4    0    0  0.30010125552E+02 -0.29447132221E+02  0.16632528561E+03  0.17155710963E+03  0.00000000000E+00 0.  1.
         12    1    4    4    0    0 -0.46837532204E+02 -0.38484098920E+02  0.39208984227E+03  0.39674831405E+03  0.00000000000E+00 0. -1.
         -5    1    5    5    0  502 -0.28232361395E+02  0.26371254293E+02  0.77252330503E+02  0.86501571379E+02  0.47000000000E+01 0.  1.
         13    1    6    6    0    0 -0.13981619860E+02  0.15167177940E+02  0.98709780835E+03  0.98731333033E+03  0.00000000000E+00 0. -1.
        -14    1    6    6    0    0  0.36700087249E+02  0.13886591859E+02  0.25300041595E+03  0.25602528061E+03  0.00000000000E+00 0.  1.
</event>
<event>
12    1  0.9017558E-003  0.1774862E+03  0.7818608E-02  0.1171329E+00
         21   -1    0    0  501  502  0.00000000000E+00  0.00000000000E+00  0.29200960887E+03  0.29200960887E+03  0.00000000000E+00 0. -1.
         21   -1    0    0  502  503 -0.00000000000E+00 -0.00000000000E+00 -0.10597864783E+03  0.10597864783E+03  0.00000000000E+00 0. -1.
          6    2    1    2  501    0 -0.46972399248E+02  0.41737838090E+01  0.75807406077E+02  0.18906101846E+03  0.16665377020E+03 0.  0.
         24    2    3    3    0    0 -0.25939387725E+02 -0.48890470822E+02  0.87216039229E+02  0.13066196364E+03  0.80017381052E+02 0.  0.
         -6    2    1    2    0  503  0.46972399248E+02 -0.41737838090E+01  0.11022355497E+03  0.20892723825E+03  0.17110678551E+03 0.  0.
        -24    2    5    5    0    0  0.84617646931E+02  0.41885715962E+02  0.80744450023E+02  0.14237087251E+03  0.69535888250E+02 0.  0.
          5    1    3    3  501    0 -0.21033011523E+02  0.53064254631E+02 -0.11408633152E+02  0.58399054818E+02  0.47000000000E+01 0. -1.
        -13    1    4    4    0    0 -0.19656698139E+02  0.17308211711E+02  0.44476498960E+02  0.51615103740E+02  0.00000000000E+00 0.  1.
         14    1    4    4    0    0 -0.62826895862E+01 -0.66198682532E+02  0.42739540269E+02  0.79046859899E+02  0.00000000000E+00 0. -1.
         -5    1    5    5    0  503 -0.37645247683E+02 -0.46059499771E+02  0.29479104944E+02  0.66556365740E+02  0.47000000000E+01 0.  1.
         13    1    6    6    0    0  0.41412496458E+02  0.20633710669E+02 -0.23570846436E+01  0.46328185016E+02  0.00000000000E+00 0. -1.
        -14    1    6    6    0    0  0.43205150474E+02  0.21252005293E+02  0.83101534667E+02  0.96042687490E+02  0.00000000000E+00 0.  1.
</event>
<event>
12    1  0.9017558E-003  0.1938861E+03  0.7818608E-02  0.1156748E+00
         21   -1    0    0  501  502  0.00000000000E+00  0.00000000000E+00  0.97582893215E+03  0.97582893215E+03  0.00000000000E+00 0.  1.
         21   -1    0    0  502  503 -0.00000000000E+00 -0.00000000000E+00 -0.37288645362E+02  0.37288645362E+02  0.00000000000E+00 0.  1.
          6    2    1    2  501    0 -0.72083291275E+02 -0.50346385294E+02  0.52388753685E+03  0.55861432298E+03  0.17280350454E+03 0.  0.
         24    2    3    3    0    0  0.20999331009E+02 -0.28547275004E+02  0.15511244158E+03  0.17761991794E+03  0.78949647898E+02 0.  0.
         -6    2    1    2    0  503  0.72083291275E+02  0.50346385294E+02  0.41465274994E+03  0.45450325453E+03  0.16402910094E+03 0.  0.
        -24    2    5    5    0    0  0.28488912016E+02 -0.22388960585E+02  0.12542077832E+03  0.15305985379E+03  0.79900335070E+02 0.  0.
          5    1    3    3  501    0 -0.93082622284E+02 -0.21799110290E+02  0.36877509527E+03  0.38099440504E+03  0.47000000000E+01 0. -1.
        -13    1    4    4    0    0  0.37021108997E+02 -0.36379468183E+02  0.15050078114E+03  0.15919960220E+03  0.00000000000E+00 0.  1.
         14    1    4    4    0    0 -0.16021777988E+02  0.78321931786E+01  0.46116604352E+01  0.18420315737E+02  0.00000000000E+00 0. -1.
         -5    1    5    5    0  503  0.43594379260E+02  0.72735345879E+02  0.28923197162E+03  0.30144340074E+03  0.47000000000E+01 0.  1.
         11    1    6    6    0    0 -0.16377227307E+02 -0.36851192516E+02  0.63796086070E+02  0.75472939269E+02  0.00000000000E+00 0. -1.
        -12    1    6    6    0    0  0.44866139322E+02  0.14462231931E+02  0.61624692248E+02  0.77586914520E+02  0.00000000000E+00 0.  1.
</event>
<event>
12    1  0.9017558E-003  0.1790924E+03  0.7818608E-02  0.1169369E+00
         21   -1    0    0  501  502  0.00000000000E+00  0.00000000000E+00  0.91652442856E+03  0.91652442856E+03  0.00000000000E+00 0. -1.
         21   -1    0    0  502  503 -0.00000000000E+00 -0.00000000000E+00 -0.39483891227E+02  0.39483891227E+02  0.00000000000E+00 0. -1.
          6    2    1    2  501    0  0.56602267784E+02  0.56837616800E+01  0.27090031305E+03  0.32474769054E+03  0.16981743443E+03 0.  0.
         24    2    3    3    0    0  0.91490039809E+02 -0.35151037068E+02  0.22178632076E+03  0.25181682147E+03  0.67944953493E+02 0.  0.
         -6    2    1    2    0  503 -0.56602267784E+02 -0.56837616800E+01  0.60614022428E+03  0.63126062925E+03  0.16687686681E+03 0.  0.
        -24    2    5    5    0    0 -0.58484128066E+02 -0.56456135056E+02  0.33862102536E+03  0.35891895581E+03  0.86896085090E+02 0.  0.
          5    1    3    3  501    0 -0.34887772025E+02  0.40834798748E+02  0.49113992290E+02  0.72930869077E+02  0.47000000000E+01 0. -1.
        -13    1    4    4    0    0  0.82762424085E+01  0.12128286319E+02  0.76114511225E+02  0.77517806577E+02  0.00000000000E+00 0.  1.
         14    1    4    4    0    0  0.83213797400E+02 -0.47279323387E+02  0.14567180954E+03  0.17429901489E+03  0.00000000000E+00 0. -1.
         -5    1    5    5    0  503  0.18818602818E+01  0.50772373376E+02  0.26751919893E+03  0.27234167344E+03  0.47000000000E+01 0.  1.
         13    1    6    6    0    0 -0.45654368884E+02 -0.55343561182E+02  0.33852165299E+03  0.34604066337E+03  0.00000000000E+00 0. -1.
        -14    1    6    6    0    0 -0.12829759182E+02 -0.11125738743E+01  0.99372367403E-01  0.12878292439E+02  0.00000000000E+00 0.  1.
</event>
<event>
12    1  0.9017558E-003  0.1758889E+03  0.7818608E-02  0.1172957E+00
         21   -1    0    0  501  502  0.00000000000E+00  0.00000000000E+00  0.16154657985E+03  0.16154657985E+03  0.00000000000E+00 0. -1.
         21   -1    0    0  502  503 -0.00000000000E+00 -0.00000000000E+00 -0.21382279319E+03  0.21382279319E+03  0.00000000000E+00 0. -1.
          6    2    1    2  501    0 -0.78585505471E+01  0.29574586250E+02  0.40952079973E+02  0.17630045198E+03  0.16872570505E+03 0.  0.
         24    2    3    3    0    0  0.34027956435E+02 -0.32072583070E+01 -0.27251066145E+02  0.89681239676E+02  0.78306550293E+02 0.  0.
         -6    2    1    2    0  503  0.78585505471E+01 -0.29574586250E+02 -0.93228293308E+02  0.19906892106E+03  0.17320654632E+03 0.  0.
        -24    2    5    5    0    0  0.62101019123E+02 -0.25198906597E+02 -0.17135552179E+02  0.10540149224E+03  0.79525630758E+02 0.  0.
          5    1    3    3  501    0 -0.41886506982E+02  0.32781844557E+02  0.68203146119E+02  0.86619212304E+02  0.47000000000E+01 0. -1.
        -11    1    4    4    0    0 -0.83664629206E+01 -0.32592172544E+02 -0.77064387286E+01  0.34520089960E+02  0.00000000000E+00 0.  1.
         12    1    4    4    0    0  0.42394419355E+02  0.29384914237E+02 -0.19544627417E+02  0.55161149716E+02  0.00000000000E+00 0. -1.
         -5    1    5    5    0  503 -0.54242468576E+02 -0.43756796521E+01 -0.76092741129E+02  0.93667428822E+02  0.47000000000E+01 0.  1.
         11    1    6    6    0    0 -0.11322422021E+02  0.15482107180E+02  0.20710609616E+01  0.19292023654E+02  0.00000000000E+00 0. -1.
        -12    1    6    6    0    0  0.73423441144E+02 -0.40681013777E+02 -0.19206613140E+02  0.86109468583E+02  0.00000000000E+00 0.  1.
</event>
<event>
12    1  0.9017558E-003  0.2697209E+03  0.7818608E-02  0.1101451E+00
         21   -1    0    0  503  502  0.00000000000E+00  0.00000000000E+00  0.31507006203E+03  0.31507006203E+03  0.00000000000E+00 0.  1.
         21   -1    0    0  501  503 -0.00000000000E+00 -0.00000000000E+00 -0.23632781934E+03  0.23632781934E+03  0.00000000000E+00 0.  1.
          6    2    1    2  501    0 -0.11339038280E+03 -0.17396701696E+03 -0.26916806680E+01  0.26965176542E+03  0.17199688238E+03 0.  0.
         24    2    3    3    0    0 -0.49624670435E+02 -0.11183129294E+03 -0.65560898344E+02  0.16055757307E+03  0.80694838019E+02 0.  0.
         -6    2    1    2    0  502  0.11339038280E+03  0.17396701696E+03  0.81433923364E+02  0.28174611595E+03  0.17212637240E+03 0.  0.
        -24    2    5    5    0    0  0.11545882610E+02  0.39360097788E+02  0.55712247436E+02  0.11093915028E+03  0.86724367090E+02 0.  0.
          5    1    3    3  501    0 -0.63765712365E+02 -0.62135724024E+02  0.62869217677E+02  0.10909419235E+03  0.47000000000E+01 0. -1.
        -13    1    4    4    0    0 -0.54176554242E+02 -0.25101330648E+02 -0.27282963239E+02  0.65647055630E+02  0.00000000000E+00 0.  1.
         14    1    4    4    0    0  0.45518838066E+01 -0.86729962292E+02 -0.38277935105E+02  0.94910517442E+02  0.00000000000E+00 0. -1.
         -5    1    5    5    0  502  0.10184450019E+03  0.13460691918E+03  0.25721675928E+02  0.17080696567E+03  0.47000000000E+01 0.  1.
         11    1    6    6    0    0 -0.15338832218E+02  0.43158301077E+02 -0.33596059241E+01  0.45926089291E+02  0.00000000000E+00 0. -1.
        -12    1    6    6    0    0  0.26884714828E+02 -0.37982032892E+01  0.59071853361E+02  0.65013060988E+02  0.00000000000E+00 0.  1.
</event>
<event>
12    1  0.9017558E-003  0.1809303E+03  0.7818608E-02  0.1167072E+00
         21   -1    0    0  503  502  0.00000000000E+00  0.00000000000E+00  0.74568152584E+03  0.74568152584E+03  0.00000000000E+00 0.  1.
         21   -1    0    0  501  503 -0.00000000000E+00 -0.00000000000E+00 -0.54473477339E+02  0.54473477339E+02  0.00000000000E+00 0.  1.
          6    2    1    2  501    0 -0.16299742090E+02 -0.48493625926E+02  0.16848425491E+03  0.24723009496E+03  0.17354671519E+03 0.  0.
         24    2    3    3    0    0 -0.55427829158E+02 -0.39153602613E+02  0.38611692485E+02  0.11118886700E+03  0.79163454359E+02 0.  0.
         -6    2    1    2    0  502  0.16299742090E+02  0.48493625926E+02  0.52272379359E+03  0.55292490822E+03  0.17282498776E+03 0.  0.
        -24    2    5    5    0    0  0.73907860546E+02  0.82267487784E+01  0.30342323471E+03  0.32258832442E+03  0.80420870730E+02 0.  0.
          5    1    3    3  501    0  0.39128087069E+02 -0.93400233128E+01  0.12987256243E+03  0.13604122796E+03  0.47000000000E+01 0. -1.
        -13    1    4    4    0    0  0.12562578589E+02  0.12201012813E+02 -0.30854482569E+00  0.17515087622E+02  0.00000000000E+00 0.  1.
         14    1    4    4    0    0 -0.67990407747E+02 -0.51354615426E+02  0.38920237311E+02  0.93673779381E+02  0.00000000000E+00 0. -1.
         -5    1    5    5    0  502 -0.57608118457E+02  0.40266877147E+02  0.21930055888E+03  0.23033658379E+03  0.47000000000E+01 0.  1.
         13    1    6    6    0    0  0.48369784856E+02  0.34855977260E+02  0.10484163164E+03  0.12060822095E+03  0.00000000000E+00 0. -1.
        -14    1    6    6    0    0  0.25538075690E+02 -0.26629228481E+02  0.19858160307E+03  0.20198010347E+03  0.00000000000E+00 0.  1.
</event>
<event>
12    1  0.9017558E-003  0.2316672E+03  0.7818608E-02  0.1125539E+00
         21   -1    0    0  501  502  0.00000000000E+00  0.00000000000E+00  0.63303512990E+03  0.63303512990E+03  0.00000000000E+00 0.  1.
         21   -1    0    0  502  503 -0.00000000000E+00 -0.00000000000E+00 -0.12379211804E+03  0.12379211804E+03  0.00000000000E+00 0.  1.
          6    2    1    2  501    0 -0.10327053203E+03 -0.11573669216E+03  0.46758050464E+03  0.52182489356E+03  0.17207529318E+03 0.  0.
         24    2    3    3    0    0 -0.12600055256E+03 -0.97668707180E+02  0.28002382037E+03  0.33197572783E+03  0.79870071293E+02 0.  0.
         -6    2    1    2    0  503  0.10327053203E+03  0.11573669216E+03  0.41662507214E+02  0.23500235438E+03  0.17155336591E+03 0.  0.
        -24    2    5    5    0    0  0.33968634930E+02  0.42681173150E+01  0.53846023115E+02  0.10309888899E+03  0.80980872569E+02 0.  0.
          5    1    3    3  501    0  0.22730020524E+02 -0.18067984984E+02  0.18755668427E+03  0.18984916573E+03  0.47000000000E+01 0. -1.
        -11    1    4    4    0    0 -0.21871280915E+02 -0.64264060804E+02  0.12530307662E+03  0.14250994158E+03  0.00000000000E+00 0.  1.
         12    1    4    4    0    0 -0.10412927164E+03 -0.33404646376E+02  0.15472074376E+03  0.18946578625E+03  0.00000000000E+00 0. -1.
         -5    1    5    5    0  503  0.69301897103E+02  0.11146857485E+03 -0.12183515901E+02  0.13190346538E+03  0.47000000000E+01 0.  1.
         13    1    6    6    0    0  0.80874926420E+01  0.42608672584E+01 -0.21537025132E+02  0.23396708712E+02  0.00000000000E+00 0. -1.
        -14    1    6    6    0    0  0.25881142288E+02  0.72500565720E-02  0.75383048246E+02  0.79702180281E+02  0.00000000000E+00 0.  1.
</event>
<event>
12    1  0.9017558E-003  0.1982172E+03  0.7818608E-02  0.1151506E+00
         21   -1    0    0  501  502  0.00000000000E+00  0.00000000000E+00  0.53637585715E+03  0.53637585715E+03  0.00000000000E+00 0. -1.
         21   -1    0    0  502  503 -0.00000000000E+00 -0.00000000000E+00 -0.72929767937E+02  0.72929767937E+02  0.00000000000E+00 0. -1.
          6    2    1    2  501    0 -0.44386259988E+02 -0.83576353804E+02  0.21887399594E+03  0.29449524290E+03  0.17281919743E+03 0.  0.
         24    2    3    3    0    0 -0.31202798022E+02 -0.13575594697E+02  0.29010772324E+02  0.91655297064E+02  0.80007232131E+02 0.  0.
         -6    2    1    2    0  503  0.44386259988E+02  0.83576353804E+02  0.24457209328E+03  0.31481038219E+03  0.17416923074E+03 0.  0.
        -24    2    5    5    0    0  0.53915054937E+02  0.10802945481E+03  0.12078338783E+03  0.18818303255E+03  0.79038159808E+02 0.  0.
          5    1    3    3  501    0 -0.13183461966E+02 -0.70000759107E+02  0.18986322361E+03  0.20283994583E+03  0.47000000000E+01 0. -1.
        -13    1    4    4    0    0 -0.58153853224E+02 -0.50525634578E+01  0.15922433916E+02  0.60505561266E+02  0.00000000000E+00 0.  1.
         14    1    4    4    0    0  0.26951055202E+02 -0.85230312395E+01  0.13088338408E+02  0.31149735798E+02  0.00000000000E+00 0. -1.
         -5    1    5    5    0  503 -0.95287949493E+01 -0.24453101011E+02  0.12378870545E+03  0.12662734965E+03  0.47000000000E+01 0.  1.
         11    1    6    6    0    0  0.70010085117E+02  0.68827779273E+02  0.10279513994E+03  0.14214610797E+03  0.00000000000E+00 0. -1.
        -12    1    6    6    0    0 -0.16095030179E+02  0.39201675542E+02  0.17988247896E+02  0.46036924573E+02  0.00000000000E+00 0.  1.
</event>
<event>
12    1  0.9017558E-003  0.1737367E+03  0.7818608E-02  0.1174530E+00
         21   -1    0    0  503  502  0.00000000000E+00  0.00000000000E+00  0.63862636203E+02  0.63862636203E+02  0.00000000000E+00 0. -1.
         21   -1    0    0  501  503 -0.00000000000E+00 -0.00000000000E+00 -0.82834977663E+03  0.82834977663E+03  0.00000000000E+00 0. -1.
          6    2    1    2  501    0 -0.15561804635E+02  0.22005948524E+02 -0.67813505482E+03  0.70003684501E+03  0.17163333089E+03 0.  0.
         24    2    3    3    0    0  0.14786837229E+01  0.76385330252E+02 -0.52695746707E+03  0.53840687119E+03  0.79755135666E+02 0.  0.
         -6    2    1    2    0  502  0.15561804635E+02 -0.22005948524E+02 -0.86352085607E+02  0.19217556781E+03  0.16955333864E+03 0.  0.
        -24    2    5    5    0    0 -0.47176585846E+02 -0.36051061761E+02 -0.26472339001E+02  0.10419235976E+03  0.81424528209E+02 0.  0.
          5    1    3    3  501    0 -0.17040488358E+02 -0.54379381728E+02 -0.15117758775E+03  0.16162997382E+03  0.47000000000E+01 0. -1.
        -13    1    4    4    0    0  0.18227820071E+02  0.86756148201E+02 -0.46560185502E+03  0.47396621195E+03  0.00000000000E+00 0.  1.
         14    1    4    4    0    0 -0.16749136348E+02 -0.10370817950E+02 -0.61355612046E+02  0.64440659237E+02  0.00000000000E+00 0. -1.
         -5    1    5    5    0  502  0.62738390481E+02  0.14045113237E+02 -0.59879746606E+02  0.87983208055E+02  0.47000000000E+01 0.  1.
         11    1    6    6    0    0 -0.10479144064E+02  0.22060746256E+02 -0.25707082694E+02  0.35459033917E+02  0.00000000000E+00 0. -1.
        -12    1    6    6    0    0 -0.36697441782E+02 -0.58111808017E+02 -0.76525630786E+00  0.68733325844E+02  0.00000000000E+00 0.  1.
</event>
<event>
12    1  0.9017558E-003  0.1916492E+03  0.7818608E-02  0.1157133E+00
         21   -1    0    0  501  502  0.00000000000E+00  0.00000000000E+00  0.18127353729E+03  0.18127353729E+03  0.00000000000E+00 0. -1.
         21   -1    0    0  502  503 -0.00000000000E+00 -0.00000000000E+00 -0.29318742588E+03  0.29318742588E+03  0.00000000000E+00 0. -1.
          6    2    1    2  501    0  0.16797193264E+02 -0.82842530590E+02 -0.18825744122E+03  0.26816562293E+03  0.17125100458E+03 0.  0.
         24    2    3    3    0    0  0.94149408938E+01 -0.53954305648E+01 -0.17209146199E+02  0.80197114446E+02  0.77573646747E+02 0.  0.
         -6    2    1    2    0  503 -0.16797193264E+02  0.82842530590E+02  0.76343552628E+02  0.20629534024E+03  0.17200115930E+03 0.  0.
        -24    2    5    5    0    0  0.47497293381E+02  0.73213480643E+02  0.77427344497E+02  0.14110512455E+03  0.79369111584E+02 0.  0.
          5    1    3    3  501    0  0.73822523699E+01 -0.77447100025E+02 -0.17104829502E+03  0.18796850848E+03  0.47000000000E+01 0. -1.
        -13    1    4    4    0    0  0.35200125748E+02 -0.58344382588E+01 -0.34111476316E+02  0.49362762675E+02  0.00000000000E+00 0.  1.
         14    1    4    4    0    0 -0.25785184855E+02  0.43900769402E+00  0.16902330117E+02  0.30834351771E+02  0.00000000000E+00 0. -1.
         -5    1    5    5    0  503 -0.64294486645E+02  0.96290499469E+01 -0.10837918684E+01  0.65190215681E+02  0.47000000000E+01 0.  1.
         13    1    6    6    0    0  0.24237683660E+02  0.35397176538E+02  0.85798395300E+02  0.95925961304E+02  0.00000000000E+00 0. -1.
        -14    1    6    6    0    0  0.23259609721E+02  0.37816304105E+02 -0.83710508031E+01  0.45179163251E+02  0.00000000000E+00 0.  1.
</event>
<event>
12    1  0.9017558E-003  0.1914580E+03  0.7818608E-02  0.1157169E+00
         21   -1    0    0  501  502  0.00000000000E+00  0.00000000000E+00  0.26476732615E+03  0.26476732615E+03  0.00000000000E+00 0. -1.
         21   -1    0    0  502  503 -0.00000000000E+00 -0.00000000000E+00 -0.16701626433E+03  0.16701626433E+03  0.00000000000E+00 0. -1.
          6    2    1    2  501    0 -0.30681366224E+02 -0.81811183208E+02  0.13825800432E+03  0.23615978581E+03  0.17035771995E+03 0.  0.
         24    2    3    3    0    0 -0.71223090130E+02 -0.93895052234E+02  0.13009475098E+03  0.19281950463E+03  0.79785385459E+02 0.  0.
         -6    2    1    2    0  503  0.30681366224E+02  0.81811183208E+02 -0.40506942489E+02  0.19562380467E+03  0.17027461534E+03 0.  0.
        -24    2    5    5    0    0  0.73769650924E+02  0.72877406331E+02 -0.63957272844E+02  0.14553966904E+03  0.79612717346E+02 0.  0.
          5    1    3    3  501    0  0.40541723906E+02  0.12083869027E+02  0.81632533415E+01  0.43340281183E+02  0.47000000000E+01 0. -1.
        -13    1    4    4    0    0  0.50069077384E+01  0.87495136838E+01 -0.45325533496E+00  0.10091013586E+02  0.00000000000E+00 0.  1.
         14    1    4    4    0    0 -0.76229997869E+02 -0.10264456592E+03  0.13054800631E+03  0.18272849104E+03  0.00000000000E+00 0. -1.
         -5    1    5    5    0  503 -0.43088284700E+02  0.89337768764E+01  0.23450330355E+02  0.50084135627E+02  0.47000000000E+01 0.  1.
         13    1    6    6    0    0 -0.11054370802E+02  0.33293300147E+02 -0.29358045538E+02  0.45744265065E+02  0.00000000000E+00 0. -1.
        -14    1    6    6    0    0  0.84824021726E+02  0.39584106184E+02 -0.34599227306E+02  0.99795403974E+02  0.00000000000E+00 0.  1.
</event>
<event>
12    1  0.9017558E-003  0.2386982E+03  0.7818608E-02  0.1120797E+00
         21   -1    0    0  501  502  0.00000000000E+00  0.00000000000E+00  0.17645724338E+03  0.17645724338E+03  0.00000000000E+00 0.  1.
         21   -1    0    0  502  503 -0.00000000000E+00 -0.00000000000E+00 -0.32193078423E+03  0.32193078423E+03  0.00000000000E+00 0.  1.
          6    2    1    2  501    0 -0.64478265073E+02  0.15202479994E+03 -0.77266885130E+02  0.25013614455E+03  0.17125692047E+03 0.  0.
         24    2    3    3    0    0  0.18711173351E+02  0.35846487920E+02 -0.59609896238E+02  0.10608149483E+03  0.77877243861E+02 0.  0.
         -6    2    1    2    0  503  0.64478265073E+02 -0.15202479994E+03 -0.68206655713E+02  0.24825188306E+03  0.17235969104E+03 0.  0.
        -24    2    5    5    0    0  0.56660786205E+02 -0.15339453662E+02 -0.53255115234E+02  0.11044899693E+03  0.76922884055E+02 0.  0.
          5    1    3    3  501    0 -0.83189438424E+02  0.11617831202E+03 -0.17656988891E+02  0.14405464972E+03  0.47000000000E+01 0. -1.
        -11    1    4    4    0    0  0.31683819109E+02  0.54513514208E+02 -0.53107201570E+02  0.82437627836E+02  0.00000000000E+00 0.  1.
         12    1    4    4    0    0 -0.12972645758E+02 -0.18667026289E+02 -0.65026946682E+01  0.23643866993E+02  0.00000000000E+00 0. -1.
         -5    1    5    5    0  503  0.78174788680E+01 -0.13668534628E+03 -0.14951540479E+02  0.13780288613E+03  0.47000000000E+01 0.  1.
         13    1    6    6    0    0 -0.10858247421E+02  0.15477162303E+02  0.32736861390E+00  0.18909025893E+02  0.00000000000E+00 0. -1.
        -14    1    6    6    0    0  0.67519033626E+02 -0.30816615965E+02 -0.53582483848E+02  0.91539971033E+02  0.00000000000E+00 0.  1.
</event>
<event>
12    1  0.9017558E-003  0.2886071E+03  0.7818608E-02  0.1091259E+00
         21   -1    0    0  503  502  0.00000000000E+00  0.00000000000E+00  0.11468373035E+03  0.11468373035E+03  0.00000000000E+00 0.  1.
         21   -1    0    0  501  503 -0.00000000000E+00 -0.00000000000E+00 -0.72337184659E+03  0.72337184659E+03  0.00000000000E+00 0. -1.
          6    2    1    2  501    0 -0.17557015082E+03  0.15140725534E+03 -0.29390276925E+03  0.41191367547E+03  0.17188660053E+03 0.  0.
         24    2    3    3    0    0 -0.45109432446E+02  0.68178900612E+02 -0.52900433290E+02  0.12546791445E+03  0.79123437300E+02 0.  0.
         -6    2    1    2    0  502  0.17557015082E+03 -0.15140725534E+03 -0.31478534699E+03  0.42614190147E+03  0.16958204704E+03 0.  0.
        -24    2    5    5    0    0  0.11691016571E+03 -0.17054826229E+03 -0.27354443119E+03  0.35177608179E+03  0.78518528189E+02 0.  0.
          5    1    3    3  501    0 -0.13046071837E+03  0.83228354725E+02 -0.24100233596E+03  0.28644576102E+03  0.47000000000E+01 0. -1.
        -11    1    4    4    0    0 -0.51650878672E+02  0.66724051003E+02 -0.68374760439E+02  0.10860488071E+03  0.00000000000E+00 0.  1.
         12    1    4    4    0    0  0.65414462259E+01  0.14548496086E+01  0.15474327149E+02  0.16863033737E+02  0.00000000000E+00 0. -1.
         -5    1    5    5    0  502  0.58659985107E+02  0.19141006954E+02 -0.41240915806E+02  0.74365819679E+02  0.47000000000E+01 0.  1.
         13    1    6    6    0    0  0.11276108014E+02 -0.70664867244E+02 -0.12430633136E+03  0.14343199814E+03  0.00000000000E+00 0. -1.
        -14    1    6    6    0    0  0.10563405770E+03 -0.99883395047E+02 -0.14923809983E+03  0.20834408365E+03  0.00000000000E+00 0.  1.
</event>
<event>
12    1  0.9017558E-003  0.2170011E+03  0.7818608E-02  0.1136248E+00
         21   -1    0    0  501  502  0.00000000000E+00  0.00000000000E+00  0.45947150036E+03  0.45947150036E+03  0.00000000000E+00 0.  1.
         21   -1    0    0  502  503 -0.00000000000E+00 -0.00000000000E+00 -0.35571054371E+03  0.35571054371E+03  0.00000000000E+00 0.  1.
          6    2    1    2  501    0  0.12152265459E+03 -0.52290730060E+02  0.39594216384E+03  0.45123242955E+03  0.17128465298E+03 0.  0.
         24    2    3    3    0    0  0.29386605496E+02  0.28518413537E+02  0.21201980284E+03  0.23016978208E+03  0.79679729505E+02 0.  0.
         -6    2    1    2    0  503 -0.12152265459E+03  0.52290730060E+02 -0.29218120719E+03  0.36394961452E+03  0.17200984870E+03 0.  0.
        -24    2    5    5    0    0 -0.11155676205E+03 -0.22810844614E+02 -0.21294199212E+03  0.25422036256E+03  0.79488709515E+02 0.  0.
          5    1    3    3  501    0  0.92136049099E+02 -0.80809143597E+02  0.18392236100E+03  0.22106264747E+03  0.47000000000E+01 0. -1.
        -11    1    4    4    0    0  0.30713025330E+02  0.37098844136E+01  0.20652357123E+02  0.37196411414E+02  0.00000000000E+00 0.  1.
         12    1    4    4    0    0 -0.13264198346E+01  0.24808529124E+02  0.19136744572E+03  0.19297337067E+03  0.00000000000E+00 0. -1.
         -5    1    5    5    0  503 -0.99658925433E+01  0.75101574674E+02 -0.79239215064E+02  0.10972925196E+03  0.47000000000E+01 0. -1.
         13    1    6    6    0    0  0.91740807658E+01 -0.14552546700E+02 -0.19091951113E+02  0.25699085016E+02  0.00000000000E+00 0. -1.
        -14    1    6    6    0    0 -0.12073084282E+03 -0.82582979144E+01 -0.19385004101E+03  0.22852127754E+03  0.00000000000E+00 0.  1.
</event>
<event>
12    1  0.9017558E-003  0.2122987E+03  0.7818608E-02  0.1140230E+00
         21   -1    0    0  501  502  0.00000000000E+00  0.00000000000E+00  0.19819749927E+03  0.19819749927E+03  0.00000000000E+00 0. -1.
         21   -1    0    0  502  503 -0.00000000000E+00 -0.00000000000E+00 -0.22637660418E+03  0.22637660418E+03  0.00000000000E+00 0. -1.
          6    2    1    2  501    0 -0.55990317810E+02  0.10656271236E+03  0.33412249500E+01  0.21232498642E+03  0.17487197809E+03 0.  0.
         24    2    3    3    0    0 -0.48919467314E+02  0.37929580470E+02  0.64614147452E+02  0.11992928982E+03  0.79851607047E+02 0.  0.
         -6    2    1    2    0  503  0.55990317810E+02 -0.10656271236E+03 -0.31520329859E+02  0.21224911702E+03  0.17194658800E+03 0.  0.
        -24    2    5    5    0    0  0.50122545118E+02  0.51132946162E+01  0.61887337968E+01  0.94138894038E+02  0.79280613227E+02 0.  0.
          5    1    3    3  501    0 -0.70708504961E+01  0.68633131890E+02 -0.61272922502E+02  0.92395696608E+02  0.47000000000E+01 0. -1.
        -11    1    4    4    0    0  0.19707993890E+02 -0.42911294496E+00  0.27827830795E+01  0.19908114998E+02  0.00000000000E+00 0.  1.
         12    1    4    4    0    0 -0.68627461205E+02  0.38358693415E+02  0.61831364372E+02  0.10002117482E+03  0.00000000000E+00 0. -1.
         -5    1    5    5    0  503  0.58677726921E+01 -0.11167600698E+03 -0.37709063656E+02  0.11811022298E+03  0.47000000000E+01 0.  1.
         13    1    6    6    0    0 -0.98011866741E+01 -0.21019822449E+02  0.15798333119E+02  0.28062136864E+02  0.00000000000E+00 0. -1.
        -14    1    6    6    0    0  0.59923731792E+02  0.26133117066E+02 -0.96095993223E+01  0.66076757174E+02  0.00000000000E+00 0.  1.
</event>
<event>
12    1  0.9017558E-003  0.1890314E+03  0.7818608E-02  0.1159424E+00
         21   -1    0    0  501  502  0.00000000000E+00  0.00000000000E+00  0.13120041576E+04  0.13120041576E+04  0.00000000000E+00 0. -1.
         21   -1    0    0  502  503 -0.00000000000E+00 -0.00000000000E+00 -0.33233998565E+02  0.33233998565E+02  0.00000000000E+00 0. -1.
          6    2    1    2  501    0 -0.14698518738E+01  0.80334475770E+02  0.92591827519E+03  0.94494159700E+03  0.17068737785E+03 0.  0.
         24    2    3    3    0    0 -0.13441540438E+02  0.10825510035E+03  0.50528770501E+03  0.52318924174E+03  0.80693717688E+02 0.  0.
         -6    2    1    2    0  503  0.14698518738E+01 -0.80334475770E+02  0.35285188389E+03  0.40029655920E+03  0.17110550805E+03 0.  0.
        -24    2    5    5    0    0  0.15724528280E+02 -0.30685590282E+02  0.33139842213E+03  0.34416681084E+03  0.86238119506E+02 0.  0.
          5    1    3    3  501    0  0.11971688565E+02 -0.27920624581E+02  0.42063057018E+03  0.42175235526E+03  0.47000000000E+01 0. -1.
        -13    1    4    4    0    0  0.31160187696E+02  0.24657874462E+02  0.11937290694E+03  0.12581279339E+03  0.00000000000E+00 0.  1.
         14    1    4    4    0    0 -0.44601728134E+02  0.83597225890E+02  0.38591479807E+03  0.39737644835E+03  0.00000000000E+00 0. -1.
         -5    1    5    5    0  503 -0.14254676406E+02 -0.49648885488E+02  0.21453461762E+02  0.56129748362E+02  0.47000000000E+01 0.  1.
         13    1    6    6    0    0  0.79585182899E+01 -0.20333902114E+02  0.12810745901E+02  0.25316413630E+02  0.00000000000E+00 0. -1.
        -14    1    6    6    0    0  0.77660099903E+01 -0.10351688169E+02  0.31858767622E+03  0.31885039721E+03  0.00000000000E+00 0.  1.
</event>
<event>
12    1  0.9017558E-003  0.2268939E+03  0.7818608E-02  0.1129318E+00
         21   -1    0    0  501  502  0.00000000000E+00  0.00000000000E+00  0.27477338649E+03  0.27477338649E+03  0.00000000000E+00 0. -1.
         21   -1    0    0  502  503 -0.00000000000E+00 -0.00000000000E+00 -0.18544725571E+03  0.18544725571E+03  0.00000000000E+00 0. -1.
          6    2    1    2  501    0  0.20203451835E+02  0.14483454853E+03  0.36512083741E+02  0.22981293439E+03  0.17348091145E+03 0.  0.
         24    2    3    3    0    0 -0.19884103109E+02  0.18704398271E+02 -0.87128575014E+01  0.89872903745E+02  0.85182115908E+02 0.  0.
         -6    2    1    2    0  503 -0.20203451835E+02 -0.14483454853E+03  0.52814047036E+02  0.23040770781E+03  0.17003870836E+03 0.  0.
        -24    2    5    5    0    0  0.42878479467E+01 -0.71283569553E+01 -0.13137974418E+01  0.80358607480E+02  0.79916084861E+02 0.  0.
          5    1    3    3  501    0  0.40087554944E+02  0.12613015026E+03  0.45224941242E+02  0.13994003064E+03  0.47000000000E+01 0. -1.
        -13    1    4    4    0    0  0.33122118364E+02  0.14832116677E+02 -0.42175978528E+01  0.36535661232E+02  0.00000000000E+00 0.  1.
         14    1    4    4    0    0 -0.53006221473E+02  0.38722815939E+01 -0.44952596486E+01  0.53337242513E+02  0.00000000000E+00 0. -1.
         -5    1    5    5    0  503 -0.24491299782E+02 -0.13770619157E+03  0.54127844478E+02  0.15004910033E+03  0.47000000000E+01 0.  1.
         13    1    6    6    0    0 -0.96365263364E+01 -0.25401235270E+02  0.30674285961E+02  0.40975568480E+02  0.00000000000E+00 0. -1.
        -14    1    6    6    0    0  0.13924374283E+02  0.18272878314E+02 -0.31988083403E+02  0.39383039000E+02  0.00000000000E+00 0.  1.
</event>
<event>
12    1  0.9017558E-003  0.2410449E+03  0.7818608E-02  0.1119368E+00
         21   -1    0    0  501  502  0.00000000000E+00  0.00000000000E+00  0.33529048466E+03  0.33529048466E+03  0.00000000000E+00 0. -1.
         21   -1    0    0  502  503 -0.00000000000E+00 -0.00000000000E+00 -0.18931275241E+03  0.18931275241E+03  0.00000000000E+00 0. -1.
          6    2    1    2  501    0  0.63546579954E+02  0.15185990151E+03  0.15179420461E+03  0.28348820685E+03  0.17385190641E+03 0.  0.
         24    2    3    3    0    0  0.98957129343E+02  0.56791729692E+02  0.83332764757E+02  0.16100995145E+03  0.77214252402E+02 0.  0.
         -6    2    1    2    0  503 -0.63546579954E+02 -0.15185990151E+03 -0.58164723664E+01  0.24111503022E+03  0.17607677002E+03 0.  0.
        -24    2    5    5    0    0  0.58520251315E+00 -0.15447992605E+03 -0.16966182074E+02  0.17579921225E+03  0.82177379355E+02 0.  0.
          5    1    3    3  501    0 -0.35410549389E+02  0.95068171814E+02  0.68461439858E+02  0.12247825541E+03  0.47000000000E+01 0. -1.
        -13    1    4    4    0    0  0.33883043775E+02  0.87508231331E+01 -0.11060620542E+02  0.36701156490E+02  0.00000000000E+00 0.  1.
         14    1    4    4    0    0  0.65074085568E+02  0.48040906559E+02  0.94393385299E+02  0.12430879496E+03  0.00000000000E+00 0. -1.
         -5    1    5    5    0  503 -0.64131782467E+02  0.26200245488E+01  0.11149709708E+02  0.65315817974E+02  0.47000000000E+01 0.  1.
         11    1    6    6    0    0  0.60076286033E+01 -0.60011386867E+02 -0.47066473119E+02  0.76503013319E+02  0.00000000000E+00 0. -1.
        -12    1    6    6    0    0 -0.54224260902E+01 -0.94468539188E+02  0.30100291045E+02  0.99296198930E+02  0.00000000000E+00 0.  1.
</event>
<event>
12    1  0.9017558E-003  0.2025502E+03  0.7818608E-02  0.1147684E+00
         21   -1    0    0  501  502  0.00000000000E+00  0.00000000000E+00  0.34986566889E+02  0.34986566889E+02  0.00000000000E+00 0. -1.
         21   -1    0    0  502  503 -0.00000000000E+00 -0.00000000000E+00 -0.13965677877E+04  0.13965677877E+04  0.00000000000E+00 0.  1.
          6    2    1    2  501    0  0.13591486601E+02  0.10434263760E+03 -0.39329973374E+03  0.44239264255E+03  0.17307355399E+03 0.  0.
         24    2    3    3    0    0  0.23251679490E+02  0.43249391242E+02 -0.35967241950E+03  0.37183351599E+03  0.80528031292E+02 0.  0.
         -6    2    1    2    0  503 -0.13591486601E+02 -0.10434263760E+03 -0.96828148706E+03  0.98916171203E+03  0.17262601146E+03 0.  0.
        -24    2    5    5    0    0 -0.61263323514E+02 -0.23681939190E+02 -0.55039105308E+03  0.56087062280E+03  0.85624267337E+02 0.  0.
          5    1    3    3  501    0 -0.96601928896E+01  0.61093246356E+02 -0.33627314235E+02  0.70559126551E+02  0.47000000000E+01 0. -1.
        -11    1    4    4    0    0 -0.44806712442E+01  0.27873763339E+02 -0.32176114529E+02  0.42805670696E+02  0.00000000000E+00 0.  1.
         12    1    4    4    0    0  0.27732350735E+02  0.15375627902E+02 -0.32749630497E+03  0.32902784530E+03  0.00000000000E+00 0. -1.
         -5    1    5    5    0  503  0.47671836914E+02 -0.80660698408E+02 -0.41789043399E+03  0.42829108924E+03  0.47000000000E+01 0.  1.
         13    1    6    6    0    0 -0.44632998132E+02 -0.23939373939E+02 -0.12119339745E+03  0.13135081931E+03  0.00000000000E+00 0. -1.
        -14    1    6    6    0    0 -0.16630325382E+02  0.25743474845E+00 -0.42919765563E+03  0.42951980349E+03  0.00000000000E+00 0.  1.
</event>
<event>
12    1  0.9017558E-003  0.2011204E+03  0.7818608E-02  0.1149008E+00
         21   -1    0    0  503  502  0.00000000000E+00  0.00000000000E+00  0.15018188244E+03  0.15018188244E+03  0.00000000000E+00 0. -1.
         21   -1    0    0  501  503 -0.00000000000E+00 -0.00000000000E+00 -0.32207034864E+03  0.32207034864E+03  0.00000000000E+00 0. -1.
          6    2    1    2  501    0 -0.69997892049E+02 -0.75662286883E+02 -0.18251888108E+03  0.27085105628E+03  0.17153036522E+03 0.  0.
         24    2    3    3    0    0  0.23356442314E+01 -0.36029641457E+02 -0.48783672881E+02  0.11365664491E+03  0.96095764194E+02 0.  0.
         -6    2    1    2    0  502  0.69997892049E+02  0.75662286883E+02  0.10630414875E+02  0.20140117480E+03  0.17269898941E+03 0.  0.
        -24    2    5    5    0    0  0.26616728328E+02 -0.26993309635E+02  0.27110044000E+02  0.88645842159E+02  0.75405847614E+02 0.  0.
          5    1    3    3  501    0 -0.72333536280E+02 -0.39632645427E+02 -0.13373520820E+03  0.15719441137E+03  0.47000000000E+01 0. -1.
        -13    1    4    4    0    0 -0.74022233502E+01  0.23065131836E+02 -0.47992836859E+02  0.53759702445E+02  0.00000000000E+00 0.  1.
         14    1    4    4    0    0  0.97378675815E+01 -0.59094773293E+02 -0.79083602224E+00  0.59896942470E+02  0.00000000000E+00 0. -1.
         -5    1    5    5    0  502  0.43381163721E+02  0.10265559652E+03 -0.16479629125E+02  0.11275533264E+03  0.47000000000E+01 0.  1.
         11    1    6    6    0    0  0.41142278819E+02 -0.38945242054E+01  0.40838755715E+02  0.58100416466E+02  0.00000000000E+00 0. -1.
        -12    1    6    6    0    0 -0.14525550491E+02 -0.23098785430E+02 -0.13728711715E+02  0.30545425693E+02  0.00000000000E+00 0.  1.
</event>
<event>
12    1  0.9017558E-003  0.1840196E+03  0.7818608E-02  0.1164923E+00
         21   -1    0    0  503  502  0.00000000000E+00  0.00000000000E+00  0.13982207935E+03  0.13982207935E+03  0.00000000000E+00 0.  1.
         21   -1    0    0  501  503 -0.00000000000E+00 -0.00000000000E+00 -0.31816475671E+03  0.31816475671E+03  0.00000000000E+00 0.  1.
          6    2    1    2  501    0 -0.48129518003E+02 -0.23863935690E+02  0.27261181174E+02  0.18205902694E+03  0.17180331592E+03 0.  0.
         24    2    3    3    0    0 -0.66516304541E+02 -0.18529706902E+02 -0.40366380829E+02  0.11161681617E+03  0.77853067654E+02 0.  0.
         -6    2    1    2    0  502  0.48129518003E+02  0.23863935690E+02 -0.20560385854E+03  0.27592780912E+03  0.17600361153E+03 0.  0.
        -24    2    5    5    0    0 -0.13072613783E+02 -0.39996637112E+02 -0.13640637747E+03  0.16352560683E+03  0.79770295615E+02 0.  0.
          5    1    3    3  501    0  0.18386786538E+02 -0.53342287884E+01  0.67627562003E+02  0.70442210772E+02  0.47000000000E+01 0. -1.
        -11    1    4    4    0    0 -0.54001513429E+01  0.14971439141E+02  0.15558835809E+02  0.22257200997E+02  0.00000000000E+00 0.  1.
         12    1    4    4    0    0 -0.61116153198E+02 -0.33501146043E+02 -0.55925216638E+02  0.89359615174E+02  0.00000000000E+00 0. -1.
         -5    1    5    5    0  502  0.61202131787E+02  0.63860572802E+02 -0.69197481065E+02  0.11240220229E+03  0.47000000000E+01 0.  1.
         13    1    6    6    0    0  0.11820608885E+02 -0.34574634305E+02 -0.15039454586E+02  0.39513508145E+02  0.00000000000E+00 0. -1.
        -14    1    6    6    0    0 -0.24893222668E+02 -0.54220028079E+01 -0.12136692289E+03  0.12401209868E+03  0.00000000000E+00 0.  1.
</event>
<event>
12    1  0.9017558E-003  0.2839380E+03  0.7818608E-02  0.1093612E+00
         21   -1    0    0  501  502  0.00000000000E+00  0.00000000000E+00  0.43449709829E+03  0.43449709829E+03  0.00000000000E+00 0. -1.
         21   -1    0    0  502  503 -0.00000000000E+00 -0.00000000000E+00 -0.18598929650E+03  0.18598929650E+03  0.00000000000E+00 0.  1.
          6    2    1    2  501    0  0.76969497518E+00  0.22542611608E+03  0.10521634347E+03  0.30280562931E+03  0.17263616067E+03 0.  0.
         24    2    3    3    0    0  0.48833794483E+02  0.11846484296E+03  0.87070927725E+01  0.15086157027E+03  0.79150119507E+02 0.  0.
         -6    2    1    2    0  503 -0.76969497518E+00 -0.22542611608E+03  0.14329145832E+03  0.31768076547E+03  0.17196249731E+03 0.  0.
        -24    2    5    5    0    0  0.50258551868E+02 -0.18648046832E+03  0.78407369293E+02  0.22628776539E+03  0.88076955570E+02 0.  0.
          5    1    3    3  501    0 -0.48064099508E+02  0.10696127312E+03  0.96509250700E+02  0.15194405905E+03  0.47000000000E+01 0. -1.
        -11    1    4    4    0    0  0.10177002523E+02  0.78348146028E+02  0.38276230259E+02  0.87789937745E+02  0.00000000000E+00 0.  1.
         12    1    4    4    0    0  0.38656791960E+02  0.40116696931E+02 -0.29569137487E+02  0.63071632522E+02  0.00000000000E+00 0. -1.
         -5    1    5    5    0  503 -0.51028246843E+02 -0.38945647756E+02  0.64884089030E+02  0.91393000084E+02  0.47000000000E+01 0.  1.
         11    1    6    6    0    0 -0.18194908204E+02 -0.10117110367E+03  0.34561858976E+02  0.10844892345E+03  0.00000000000E+00 0. -1.
        -12    1    6    6    0    0  0.68453460072E+02 -0.85309364655E+02  0.43845510317E+02  0.11783884194E+03  0.00000000000E+00 0.  1.
</event>
<event>
12    1  0.9017558E-003  0.2512702E+03  0.7818608E-02  0.1113018E+00
         21   -1    0    0  501  502  0.00000000000E+00  0.00000000000E+00  0.17135638025E+03  0.17135638025E+03  0.00000000000E+00 0. -1.
         21   -1    0    0  502  503 -0.00000000000E+00 -0.00000000000E+00 -0.37090308546E+03  0.37090308546E+03  0.00000000000E+00 0. -1.
          6    2    1    2  501    0 -0.75327623898E+02 -0.16586951643E+03 -0.62634977267E+02  0.25895919531E+03  0.17306003888E+03 0.  0.
         24    2    3    3    0    0 -0.13324165501E+02 -0.79807268941E+02  0.30759210463E+02  0.11755302997E+03  0.79535226560E+02 0.  0.
         -6    2    1    2    0  503  0.75327623898E+02  0.16586951643E+03 -0.13691172794E+03  0.28330027040E+03  0.16830708409E+03 0.  0.
        -24    2    5    5    0    0 -0.61454166839E+01  0.14337159431E+03 -0.80593438835E+02  0.18162503974E+03  0.76806070571E+02 0.  0.
          5    1    3    3  501    0 -0.62003458396E+02 -0.86062247492E+02 -0.93394187730E+02  0.14140616535E+03  0.47000000000E+01 0. -1.
        -13    1    4    4    0    0 -0.38763292783E+02 -0.12647621102E+02  0.18178652603E+02  0.44643236861E+02  0.00000000000E+00 0.  1.
         14    1    4    4    0    0  0.25439127282E+02 -0.67159647839E+02  0.12580557861E+02  0.72909793106E+02  0.00000000000E+00 0. -1.
         -5    1    5    5    0  503  0.81473040582E+02  0.22497922124E+02 -0.56318289104E+02  0.10167523066E+03  0.47000000000E+01 0.  1.
         11    1    6    6    0    0 -0.89812282147E+01  0.13028948191E+02  0.13534423875E+02  0.20822982035E+02  0.00000000000E+00 0. -1.
        -12    1    6    6    0    0  0.28358115308E+01  0.13034264612E+03 -0.94127862710E+02  0.16080205771E+03  0.00000000000E+00 0.  1.
</event>
<event>
12    1  0.9017558E-003  0.2292916E+03  0.7818608E-02  0.1127280E+00
         21   -1    0    0  503  502  0.00000000000E+00  0.00000000000E+00  0.41981749641E+02  0.41981749641E+02  0.00000000000E+00 0.  1.
         21   -1    0    0  501  503 -0.00000000000E+00 -0.00000000000E+00 -0.14469106665E+04  0.14469106665E+04  0.00000000000E+00 0. -1.
          6    2    1    2  501    0  0.15071044170E+03 -0.83046487286E+01 -0.97954557176E+03  0.10060239443E+04  0.17260372223E+03 0.  0.
         24    2    3    3    0    0  0.12384830041E+03 -0.23543158170E+02 -0.95420437553E+03  0.96579891440E+03  0.79805206370E+02 0.  0.
         -6    2    1    2    0  502 -0.15071044170E+03  0.83046487286E+01 -0.42538334512E+03  0.48286847186E+03  0.17154698010E+03 0.  0.
        -24    2    5    5    0    0 -0.11093664647E+03 -0.59626970206E+02 -0.28104069929E+03  0.31838884077E+03  0.80779107215E+02 0.  0.
          5    1    3    3  501    0  0.26862141286E+02  0.15238509441E+02 -0.25341196235E+02  0.40225029908E+02  0.47000000000E+01 0. -1.
        -11    1    4    4    0    0  0.38535429578E+02 -0.20318103194E+02 -0.12831141929E+03  0.13550507360E+03  0.00000000000E+00 0.  1.
         12    1    4    4    0    0  0.85312870837E+02 -0.32250549761E+01 -0.82589295624E+03  0.83029384080E+03  0.00000000000E+00 0. -1.
         -5    1    5    5    0  502 -0.39773795226E+02  0.67931618935E+02 -0.14434264583E+03  0.16447963109E+03  0.47000000000E+01 0.  1.
         13    1    6    6    0    0  0.57530187260E+00  0.11764715151E+02 -0.56512750624E+02  0.57727207432E+02  0.00000000000E+00 0. -1.
        -14    1    6    6    0    0 -0.11151194835E+03 -0.71391685357E+02 -0.22452794867E+03  0.26066163334E+03  0.00000000000E+00 0.  1.
</event>
<event>
12    1  0.9017558E-003  0.1886905E+03  0.7818608E-02  0.1159923E+00
         21   -1    0    0  501  502  0.00000000000E+00  0.00000000000E+00  0.40743974891E+03  0.40743974891E+03  0.00000000000E+00 0. -1.
         21   -1    0    0  502  503 -0.00000000000E+00 -0.00000000000E+00 -0.12887575002E+03  0.12887575002E+03  0.00000000000E+00 0.  1.
          6    2    1    2  501    0  0.30463292950E+02 -0.66890949458E+02  0.29275268505E+03  0.34829334953E+03  0.17378639587E+03 0.  0.
         24    2    3    3    0    0 -0.12676285151E+00  0.19791836015E+02  0.16577079135E+03  0.19146175789E+03  0.93733220504E+02 0.  0.
         -6    2    1    2    0  503 -0.30463292950E+02  0.66890949458E+02 -0.14188686154E+02  0.18802214941E+03  0.17247782036E+03 0.  0.
        -24    2    5    5    0    0 -0.60841897532E+02  0.98407904505E+02  0.37995670644E+01  0.14046328771E+03  0.79559074408E+02 0.  0.
          5    1    3    3  501    0  0.30590055801E+02 -0.86682785473E+02  0.12698189369E+03  0.15683159164E+03  0.47000000000E+01 0. -1.
        -13    1    4    4    0    0 -0.33553334040E+02  0.35111515530E+02  0.13515062303E+03  0.14361175318E+03  0.00000000000E+00 0.  1.
         14    1    4    4    0    0  0.33426571189E+02 -0.15319679515E+02  0.30620168328E+02  0.47850004705E+02  0.00000000000E+00 0. -1.
         -5    1    5    5    0  503  0.30378604582E+02 -0.31516955047E+02 -0.17988253219E+02  0.47558861694E+02  0.47000000000E+01 0.  1.
         13    1    6    6    0    0 -0.22478843167E+02  0.98279880111E+02  0.11047664908E+02  0.10142131987E+03  0.00000000000E+00 0. -1.
        -14    1    6    6    0    0 -0.38363054364E+02  0.12802439373E+00 -0.72480978436E+01  0.39041967839E+02  0.00000000000E+00 0.  1.
</event>
<event>
12    1  0.9017558E-003  0.1730189E+03  0.7818608E-02  0.1175160E+00
         21   -1    0    0  503  502  0.00000000000E+00  0.00000000000E+00  0.16315570003E+04  0.16315570003E+04  0.00000000000E+00 0. -1.
         21   -1    0    0  501  503 -0.00000000000E+00 -0.00000000000E+00 -0.18262570954E+02  0.18262570954E+02  0.00000000000E+00 0. -1.
          6    2    1    2  501    0 -0.11545893804E+02 -0.13157664338E+02  0.74486978231E+03  0.76432711335E+03  0.17046557367E+03 0.  0.
         24    2    3    3    0    0  0.51500829719E+02  0.85022546669E+01  0.31319990253E+03  0.32751477773E+03  0.80294002838E+02 0.  0.
         -6    2    1    2    0  502  0.11545893804E+02  0.13157664338E+02  0.86842464705E+03  0.88549245792E+03  0.17213103623E+03 0.  0.
        -24    2    5    5    0    0 -0.52113693431E+02  0.27896892993E+02  0.39097359005E+03  0.40356778565E+03  0.80700283880E+02 0.  0.
          5    1    3    3  501    0 -0.63046723522E+02 -0.21659919005E+02  0.43166987978E+03  0.43681233562E+03  0.47000000000E+01 0. -1.
        -11    1    4    4    0    0 -0.18636034975E+02  0.12764084857E+02  0.46237997375E+02  0.51460432014E+02  0.00000000000E+00 0.  1.
         12    1    4    4    0    0  0.70136864694E+02 -0.42618301906E+01  0.26696190515E+03  0.27605434572E+03  0.00000000000E+00 0. -1.
         -5    1    5    5    0  502  0.63659587235E+02 -0.14739228655E+02  0.47745105700E+03  0.48192467226E+03  0.47000000000E+01 0.  1.
         11    1    6    6    0    0 -0.47361972046E+02 -0.13518676630E+02  0.12511446296E+03  0.13446017944E+03  0.00000000000E+00 0. -1.
        -12    1    6    6    0    0 -0.47517213851E+01  0.41415569622E+02  0.26585912709E+03  0.26910760621E+03  0.00000000000E+00 0.  1.
</event>
<event>
12    1  0.9017558E-003  0.1782727E+03  0.7818608E-02  0.1170172E+00
         21   -1    0    0  503  502  0.00000000000E+00  0.00000000000E+00  0.55378604146E+02  0.55378604146E+02  0.00000000000E+00 0.  1.
         21   -1    0    0  501  503 -0.00000000000E+00 -0.00000000000E+00 -0.57712661885E+03  0.57712661885E+03  0.00000000000E+00 0.  1.
          6    2    1    2  501    0 -0.89094688256E+01  0.31912565140E+02 -0.21297639722E+03  0.27596481289E+03  0.17233642021E+03 0.  0.
         24    2    3    3    0    0 -0.28776542320E+02  0.85771648710E+02 -0.15277663262E+03  0.19264852906E+03  0.74752198400E+02 0.  0.
         -6    2    1    2    0  502  0.89094688256E+01 -0.31912565140E+02 -0.30877161748E+03  0.35654041011E+03  0.17516666871E+03 0.  0.
        -24    2    5    5    0    0  0.67868275574E+02  0.66334888468E+01 -0.16734777753E+03  0.19847481715E+03  0.82078428308E+02 0.  0.
          5    1    3    3  501    0  0.19867073494E+02 -0.53859083570E+02 -0.60199764603E+02  0.83316283826E+02  0.47000000000E+01 0. -1.
        -13    1    4    4    0    0  0.21384113635E+02  0.50286516967E+02 -0.86117298157E+02  0.10199119151E+03  0.00000000000E+00 0.  1.
         14    1    4    4    0    0 -0.50160655954E+02  0.35485131743E+02 -0.66659334461E+02  0.90657337549E+02  0.00000000000E+00 0. -1.
         -5    1    5    5    0  502 -0.58958806749E+02 -0.38546053987E+02 -0.14142383995E+03  0.15806559296E+03  0.47000000000E+01 0.  1.
         11    1    6    6    0    0  0.35142427378E+00  0.19510390425E+02 -0.22525637836E+01  0.19643138170E+02  0.00000000000E+00 0. -1.
        -12    1    6    6    0    0  0.67516851301E+02 -0.12876901578E+02 -0.16509521375E+03  0.17883167898E+03  0.00000000000E+00 0.  1.
</event>
<event>
12    1  0.9017558E-003  0.1769510E+03  0.7818608E-02  0.1171806E+00
         21   -1    0    0  503  502  0.00000000000E+00  0.00000000000E+00  0.97820445220E+03  0.97820445220E+03  0.00000000000E+00 0. -1.
         21   -1    0    0  501  503 -0.00000000000E+00 -0.00000000000E+00 -0.38292494888E+02  0.38292494888E+02  0.00000000000E+00 0. -1.
          6    2    1    2  501    0 -0.50793453552E+02 -0.19133064080E+02  0.25689783263E+03  0.31194252110E+03  0.16842087458E+03 0.  0.
         24    2    3    3    0    0 -0.95838892521E+02 -0.38731835091E+02  0.18640323597E+03  0.22589148069E+03  0.74803384272E+02 0.  0.
         -6    2    1    2    0  502  0.50793453552E+02  0.19133064080E+02  0.68301412468E+03  0.70455442599E+03  0.16414199830E+03 0.  0.
        -24    2    5    5    0    0 -0.13302929561E+02  0.22645351584E+02  0.55283521817E+03  0.55933280159E+03  0.80849394608E+02 0.  0.
          5    1    3    3  501    0  0.45045438969E+02  0.19598771011E+02  0.70494596665E+02  0.86051040412E+02  0.47000000000E+01 0. -1.
        -11    1    4    4    0    0 -0.43112206412E+02 -0.46924447734E+02  0.14489645151E+03  0.15828944310E+03  0.00000000000E+00 0.  1.
         12    1    4    4    0    0 -0.52726686109E+02  0.81926126425E+01  0.41506784461E+02  0.67602037590E+02  0.00000000000E+00 0. -1.
         -5    1    5    5    0  502  0.64096383113E+02 -0.35122875031E+01  0.13017890651E+03  0.14522162440E+03  0.47000000000E+01 0.  1.
         13    1    6    6    0    0  0.30158701072E+02  0.20793150414E+02  0.34840496252E+03  0.35032544907E+03  0.00000000000E+00 0. -1.
        -14    1    6    6    0    0 -0.43461630633E+02  0.18522011697E+01  0.20443025564E+03  0.20900735252E+03  0.00000000000E+00 0.  1.
</event>
<event>
12    1  0.9017558E-003  0.2713671E+03  0.7818608E-02  0.1100508E+00
         21   -1    0    0  501  502  0.00000000000E+00  0.00000000000E+00  0.13346651466E+03  0.13346651466E+03  0.00000000000E+00 0.  1.
         21   -1    0    0  502  503 -0.00000000000E+00 -0.00000000000E+00 -0.68657913358E+03  0.68657913358E+03  0.00000000000E+00 0.  1.
          6    2    1    2  501    0  0.20826832669E+03 -0.26850142877E+02 -0.94801605607E+02  0.28744987016E+03  0.17188210306E+03 0.  0.
         24    2    3    3    0    0  0.11877232649E+03 -0.82105772023E+02 -0.74420332574E+02  0.18021086189E+03  0.78034258523E+02 0.  0.
         -6    2    1    2    0  503 -0.20826832669E+03  0.26850142877E+02 -0.45831101331E+03  0.53259577808E+03  0.17179246734E+03 0.  0.
        -24    2    5    5    0    0 -0.97573065788E+02  0.52241369114E+02 -0.14425915987E+03  0.19860653903E+03  0.79901115910E+02 0.  0.
          5    1    3    3  501    0  0.89496000194E+02  0.55255629146E+02 -0.20381273033E+02  0.10723900826E+03  0.47000000000E+01 0. -1.
        -13    1    4    4    0    0  0.20418908136E+02  0.15020608992E+02 -0.17056346871E+02  0.30552732653E+02  0.00000000000E+00 0.  1.
         14    1    4    4    0    0  0.98353418357E+02 -0.97126381015E+02 -0.57363985703E+02  0.14965812924E+03  0.00000000000E+00 0. -1.
         -5    1    5    5    0  503 -0.11069526090E+03 -0.25391226237E+02 -0.31405185344E+03  0.33398923905E+03  0.47000000000E+01 0.  1.
         13    1    6    6    0    0 -0.46422748846E+02 -0.85865111881E+01 -0.20371768317E+02  0.51417980602E+02  0.00000000000E+00 0. -1.
        -14    1    6    6    0    0 -0.51150316941E+02  0.60827880302E+02 -0.12388739156E+03  0.14718855843E+03  0.00000000000E+00 0.  1.
</event>
<event>
12    1  0.9017558E-003  0.2137353E+03  0.7818608E-02  0.1138702E+00
         21   -1    0    0  503  502  0.00000000000E+00  0.00000000000E+00  0.24537758562E+03  0.24537758562E+03  0.00000000000E+00 0.  1.
         21   -1    0    0  501  503 -0.00000000000E+00 -0.00000000000E+00 -0.20219315176E+03  0.20219315176E+03  0.00000000000E+00 0.  1.
          6    2    1    2  501    0 -0.12577424883E+03 -0.11796268603E+02 -0.41915624056E+02  0.21780657848E+03  0.17240786661E+03 0.  0.
         24    2    3    3    0    0 -0.10931732056E+03  0.35035360394E+02 -0.75494174341E+02  0.15769301095E+03  0.77394846663E+02 0.  0.
         -6    2    1    2    0  502  0.12577424883E+03  0.11796268603E+02  0.85100057915E+02  0.22976415890E+03  0.17202103138E+03 0.  0.
        -24    2    5    5    0    0  0.10776851301E+03  0.59481289822E+02  0.22748518046E+02  0.14909277429E+03  0.80988172192E+02 0.  0.
          5    1    3    3  501    0 -0.16456928263E+02 -0.46831628996E+02  0.33578550285E+02  0.60113567533E+02  0.47000000000E+01 0. -1.
        -11    1    4    4    0    0 -0.73246756721E+02 -0.95684744584E+01 -0.66954349019E+02  0.99697181135E+02  0.00000000000E+00 0.  1.
         12    1    4    4    0    0 -0.36070563842E+02  0.44603834852E+02 -0.85398253213E+01  0.57995829814E+02  0.00000000000E+00 0. -1.
         -5    1    5    5    0  502  0.18005735812E+02 -0.47685021219E+02  0.62351539869E+02  0.80671384609E+02  0.47000000000E+01 0.  1.
         13    1    6    6    0    0  0.66858432130E+02 -0.62105594642E+01 -0.38601087113E+01  0.67257129250E+02  0.00000000000E+00 0. -1.
        -14    1    6    6    0    0  0.40910080884E+02  0.65691849286E+02  0.26608626758E+02  0.81835645036E+02  0.00000000000E+00 0.  1.
</event>
<event>
12    1  0.9017558E-003  0.2174526E+03  0.7818608E-02  0.1135857E+00
         21   -1    0    0  503  502  0.00000000000E+00  0.00000000000E+00  0.91624188436E+03  0.91624188436E+03  0.00000000000E+00 0. -1.
         21   -1    0    0  501  503 -0.00000000000E+00 -0.00000000000E+00 -0.59745606048E+02  0.59745606048E+02  0.00000000000E+00 0.  1.
          6    2    1    2  501    0 -0.13258405644E+03 -0.23291232471E+01  0.24758986463E+03  0.32952447390E+03  0.17234175638E+03 0.  0.
         24    2    3    3    0    0 -0.13157647079E+03 -0.47970819775E+02  0.14059223967E+03  0.21309955630E+03  0.77663864334E+02 0.  0.
         -6    2    1    2    0  502  0.13258405644E+03  0.23291232471E+01  0.60890641369E+03  0.64646301651E+03  0.17194026362E+03 0.  0.
        -24    2    5    5    0    0  0.96952702368E+02  0.61248168655E+02  0.30620277337E+03  0.33599138952E+03  0.77323416598E+02 0.  0.
          5    1    3    3  501    0 -0.10075856458E+01  0.45641696528E+02  0.10699762496E+03  0.11642491760E+03  0.47000000000E+01 0. -1.
        -13    1    4    4    0    0 -0.10921494801E+02 -0.37128437891E+02  0.28598619491E+02  0.48121523103E+02  0.00000000000E+00 0.  1.
         14    1    4    4    0    0 -0.12065497599E+03 -0.10842381884E+02  0.11199362017E+03  0.16497803319E+03  0.00000000000E+00 0. -1.
         -5    1    5    5    0  502  0.35631354073E+02 -0.58919045407E+02  0.30270364031E+03  0.31047162699E+03  0.47000000000E+01 0.  1.
         11    1    6    6    0    0  0.78069303640E+02  0.61926631173E+02  0.29997979901E+03  0.31609745907E+03  0.00000000000E+00 0. -1.
        -12    1    6    6    0    0  0.18883398728E+02 -0.67846251841E+00  0.62229743630E+01  0.19893930452E+02  0.00000000000E+00 0.  1.
</event>
<event>
12    1  0.9017558E-003  0.1909181E+03  0.7818608E-02  0.1158521E+00
         21   -1    0    0  503  502  0.00000000000E+00  0.00000000000E+00  0.16791315946E+03  0.16791315946E+03  0.00000000000E+00 0.  1.
         21   -1    0    0  501  503 -0.00000000000E+00 -0.00000000000E+00 -0.21351605009E+03  0.21351605009E+03  0.00000000000E+00 0.  1.
          6    2    1    2  501    0 -0.72192742317E+02  0.41933252819E+02 -0.35141113513E+02  0.19412529926E+03  0.17169608097E+03 0.  0.
         24    2    3    3    0    0 -0.65362508669E+01  0.79473378869E+02 -0.32694615963E+02  0.11830899967E+03  0.81051471093E+02 0.  0.
         -6    2    1    2    0  502  0.72192742317E+02 -0.41933252819E+02 -0.10461777115E+02  0.18730391028E+03  0.16734131674E+03 0.  0.
        -24    2    5    5    0    0  0.24794958725E+02 -0.76152627394E+02 -0.43970494644E+02  0.11975807668E+03  0.77424672387E+02 0.  0.
          5    1    3    3  501    0 -0.65656491451E+02 -0.37540126050E+02 -0.24464975502E+01  0.75816299591E+02  0.47000000000E+01 0. -1.
        -13    1    4    4    0    0 -0.38454408373E+02  0.58561919246E+02 -0.32910177424E+01  0.70136087051E+02  0.00000000000E+00 0.  1.
         14    1    4    4    0    0  0.31918157506E+02  0.20911459623E+02 -0.29403598221E+02  0.48172912622E+02  0.00000000000E+00 0. -1.
         -5    1    5    5    0  502  0.47397783592E+02  0.34219374575E+02  0.33508717529E+02  0.67545833596E+02  0.47000000000E+01 0.  1.
         13    1    6    6    0    0  0.43360865424E+02 -0.15017555992E+02 -0.28506111120E+02  0.54021199630E+02  0.00000000000E+00 0. -1.
        -14    1    6    6    0    0 -0.18565906698E+02 -0.61135071402E+02 -0.15464383524E+02  0.65736877052E+02  0.00000000000E+00 0.  1.
</event>
<event>
12    1  0.9017558E-003  0.2781756E+03  0.7818608E-02  0.1096760E+00
         21   -1    0    0  503  502  0.00000000000E+00  0.00000000000E+00  0.58466177013E+02  0.58466177013E+02  0.00000000000E+00 0.  1.
         21   -1    0    0  501  503 -0.00000000000E+00 -0.00000000000E+00 -0.13219545880E+04  0.13219545880E+04  0.00000000000E+00 0.  1.
          6    2    1    2  501    0  0.68541786859E+02 -0.20782833948E+03 -0.64988698332E+03  0.70691918869E+03  0.17172959272E+03 0.  0.
         24    2    3    3    0    0  0.92988831885E+02 -0.80141605134E+02 -0.35670402613E+03  0.38617022684E+03  0.82583788459E+02 0.  0.
         -6    2    1    2    0  502 -0.68541786859E+02  0.20782833948E+03 -0.61360142770E+03  0.67350157636E+03  0.17090074908E+03 0.  0.
        -24    2    5    5    0    0 -0.81139529766E+02  0.11412769357E+03 -0.50145248730E+03  0.52674330911E+03  0.79969762691E+02 0.  0.
          5    1    3    3  501    0 -0.24447045027E+02 -0.12768673435E+03 -0.29318295719E+03  0.32074896185E+03  0.47000000000E+01 0. -1.
        -11    1    4    4    0    0  0.42418595503E+02 -0.85390448310E+02 -0.25970907285E+03  0.27665803518E+03  0.00000000000E+00 0.  1.
         12    1    4    4    0    0  0.50570236382E+02  0.52488431761E+01 -0.96994953273E+02  0.10951219166E+03  0.00000000000E+00 0. -1.
         -5    1    5    5    0  502  0.12597742907E+02  0.93700645916E+02 -0.11214894041E+03  0.14675826725E+03  0.47000000000E+01 0.  1.
         11    1    6    6    0    0 -0.56207964012E+02  0.56845475624E+02 -0.39753112524E+03  0.40548950523E+03  0.00000000000E+00 0. -1.
        -12    1    6    6    0    0 -0.24931565753E+02  0.57282217941E+02 -0.10392136206E+03  0.12125380388E+03  0.00000000000E+00 0.  1.
</event>
<event>
12    1  0.9017558E-003  0.1765871E+03  0.7818608E-02  0.1172083E+00
         21   -1    0    0  501  502  0.00000000000E+00  0.00000000000E+00  0.65135737278E+02  0.65135737278E+02  0.00000000000E+00 0. -1.
         21   -1    0    0  502  503 -0.00000000000E+00 -0.00000000000E+00 -0.17582454568E+04  0.17582454568E+04  0.00000000000E+00 0. -1.
          6    2    1    2  501    0 -0.22402324092E+02  0.22052869026E+02 -0.68194218211E+02  0.18929729043E+03  0.17376656643E+03 0.  0.
         24    2    3    3    0    0 -0.26218897981E+02 -0.25336574929E+02  0.17422141324E+02  0.91253541752E+02  0.81818734001E+02 0.  0.
         -6    2    1    2    0  503  0.22402324092E+02 -0.22052869026E+02 -0.16249155013E+04  0.16340839036E+04  0.16997536470E+03 0.  0.
        -24    2    5    5    0    0  0.38498809763E+02 -0.38472673648E+02 -0.51807294138E+03  0.52699255723E+03  0.79745080209E+02 0.  0.
          5    1    3    3  501    0  0.38165738886E+01  0.47389443955E+02 -0.85616359535E+02  0.98043748677E+02  0.47000000000E+01 0. -1.
        -11    1    4    4    0    0 -0.22115541879E+02  0.23702229040E+02 -0.11232776722E+02  0.34308426472E+02  0.00000000000E+00 0.  1.
         12    1    4    4    0    0 -0.41033561017E+01 -0.49038803970E+02  0.28654918046E+02  0.56945115280E+02  0.00000000000E+00 0. -1.
         -5    1    5    5    0  503 -0.16096485670E+02  0.16419804621E+02 -0.11068425599E+04  0.11070913464E+04  0.47000000000E+01 0.  1.
         11    1    6    6    0    0  0.35406106791E+02  0.17438721819E+02 -0.25397531497E+03  0.25702366045E+03  0.00000000000E+00 0. -1.
        -12    1    6    6    0    0  0.30927029717E+01 -0.55911395467E+02 -0.26409762640E+03  0.26996889678E+03  0.00000000000E+00 0.  1.
</event>
<event>
12    1  0.9017558E-003  0.2303511E+03  0.7818608E-02  0.1126643E+00
         21   -1    0    0  501  502  0.00000000000E+00  0.00000000000E+00  0.57614220863E+03  0.57614220863E+03  0.00000000000E+00 0. -1.
         21   -1    0    0  502  503 -0.00000000000E+00 -0.00000000000E+00 -0.10006508355E+03  0.10006508355E+03  0.00000000000E+00 0.  1.
          6    2    1    2  501    0 -0.66244334557E+02  0.13680217915E+03  0.33744389155E+03  0.40857071351E+03  0.17308523887E+03 0.  0.
         24    2    3    3    0    0 -0.63010010282E+02  0.16717981078E+03  0.26063219527E+03  0.32577344277E+03  0.79245468499E+02 0.  0.
         -6    2    1    2    0  503  0.66244334557E+02 -0.13680217915E+03  0.13863323353E+03  0.26763657867E+03  0.17119292251E+03 0.  0.
        -24    2    5    5    0    0  0.36518307331E+02 -0.16033498970E+03  0.85472316012E+02  0.20217206142E+03  0.80790654908E+02 0.  0.
          5    1    3    3  501    0 -0.32343242750E+01 -0.30377631625E+02  0.76811696276E+02  0.82797270737E+02  0.47000000000E+01 0. -1.
        -11    1    4    4    0    0 -0.84892317212E+01  0.17387020880E+02 -0.10332042942E+01  0.19376353150E+02  0.00000000000E+00 0.  1.
         12    1    4    4    0    0 -0.54520778561E+02  0.14979278990E+03  0.26166539956E+03  0.30639708962E+03  0.00000000000E+00 0. -1.
         -5    1    5    5    0  503  0.29726027226E+02  0.23532810548E+02  0.53160917520E+02  0.65464517248E+02  0.47000000000E+01 0.  1.
         13    1    6    6    0    0 -0.74986341599E+01 -0.12112207599E+03  0.40184757931E+02  0.12783427388E+03  0.00000000000E+00 0. -1.
        -14    1    6    6    0    0  0.44016941491E+02 -0.39212913708E+02  0.45287558081E+02  0.74337787542E+02  0.00000000000E+00 0.  1.
</event>
<event>
12    1  0.9017558E-003  0.2915471E+03  0.7818608E-02  0.1089737E+00
         21   -1    0    0  501  502  0.00000000000E+00  0.00000000000E+00  0.50591655465E+02  0.50591655465E+02  0.00000000000E+00 0. -1.
         21   -1    0    0  502  503 -0.00000000000E+00 -0.00000000000E+00 -0.17293762367E+04  0.17293762367E+04  0.00000000000E+00 0.  1.
          6    2    1    2  501    0  0.61392067193E+02  0.22558742244E+03 -0.67459003418E+03  0.73430713990E+03  0.17168747888E+03 0.  0.
         24    2    3    3    0    0  0.46032114038E+02  0.23901393890E+03 -0.56230333566E+03  0.62008545995E+03  0.95259213893E+02 0.  0.
         -6    2    1    2    0  503 -0.61392067193E+02 -0.22558742244E+03 -0.10041945470E+04  0.10456607523E+04  0.17418682334E+03 0.  0.
        -24    2    5    5    0    0 -0.45272433113E+02 -0.24729865241E+03 -0.89380740825E+03  0.93191265109E+03  0.79770229615E+02 0.  0.
          5    1    3    3  501    0  0.15359953155E+02 -0.13426516459E+02 -0.11228669852E+03  0.11422167995E+03  0.47000000000E+01 0. -1.
        -13    1    4    4    0    0  0.23544781866E+02  0.18355527246E+03 -0.50244992283E+03  0.53544637430E+03  0.00000000000E+00 0.  1.
         14    1    4    4    0    0  0.22487332172E+02  0.55458666441E+02 -0.59853412834E+02  0.84639085649E+02  0.00000000000E+00 0. -1.
         -5    1    5    5    0  503 -0.16119634080E+02  0.21711229963E+02 -0.11038713880E+03  0.11374810118E+03  0.47000000000E+01 0.  1.
         13    1    6    6    0    0 -0.28052216709E+02 -0.19921651651E+03 -0.80207352148E+03  0.82691963405E+03  0.00000000000E+00 0. -1.
        -14    1    6    6    0    0 -0.17220216404E+02 -0.48082135897E+02 -0.91733886768E+02  0.10499301704E+03  0.00000000000E+00 0.  1.
</event>
<event>
12    1  0.9017558E-003  0.2741721E+03  0.7818608E-02  0.1099015E+00
         21   -1    0    0  503  502  0.00000000000E+00  0.00000000000E+00  0.91279590359E+02  0.91279590359E+02  0.00000000000E+00 0. -1.
         21   -1    0    0  501  503 -0.00000000000E+00 -0.00000000000E+00 -0.86793000910E+03  0.86793000910E+03  0.00000000000E+00 0. -1.
          6    2    1    2  501    0 -0.10186125688E+01  0.21363258568E+03 -0.27773002326E+03  0.39026184623E+03  0.17184418399E+03 0.  0.
         24    2    3    3    0    0 -0.63727424051E+02  0.13066416660E+03 -0.20163453470E+03  0.26130926975E+03  0.80571334016E+02 0.  0.
         -6    2    1    2    0  502  0.10186125688E+01 -0.21363258568E+03 -0.49892039548E+03  0.56894775322E+03  0.17070461514E+03 0.  0.
        -24    2    5    5    0    0  0.13976138337E+02 -0.19615567814E+03 -0.50316373589E+03  0.54628863344E+03  0.81148896537E+02 0.  0.
          5    1    3    3  501    0  0.62708811482E+02  0.82968419086E+02 -0.76095488560E+02  0.12895257649E+03  0.47000000000E+01 0. -1.
        -11    1    4    4    0    0  0.15729185968E+02  0.77988163483E+01 -0.10011181364E+02  0.20210209795E+02  0.00000000000E+00 0.  1.
         12    1    4    4    0    0 -0.79456610019E+02  0.12286535025E+03 -0.19162335333E+03  0.24109905995E+03  0.00000000000E+00 0. -1.
         -5    1    5    5    0  502 -0.12957525769E+02 -0.17476907542E+02  0.42433404043E+01  0.22659119777E+02  0.47000000000E+01 0.  1.
         11    1    6    6    0    0 -0.15761157958E+02 -0.12576024863E+03 -0.22969193200E+03  0.26234030926E+03  0.00000000000E+00 0. -1.
        -12    1    6    6    0    0  0.29737296295E+02 -0.70395429512E+02 -0.27347180389E+03  0.28394832419E+03  0.00000000000E+00 0.  1.
</event>
<event>
12    1  0.9017558E-003  0.2687874E+03  0.7818608E-02  0.1102114E+00
         21   -1    0    0  503  502  0.00000000000E+00  0.00000000000E+00  0.16912770672E+04  0.16912770672E+04  0.00000000000E+00 0. -1.
         21   -1    0    0  501  503 -0.00000000000E+00 -0.00000000000E+00 -0.42871541559E+02  0.42871541559E+02  0.00000000000E+00 0.  1.
          6    2    1    2  501    0 -0.20166482855E+03 -0.39345817074E+02  0.75226989175E+03  0.79884708744E+03  0.17329132314E+03 0.  0.
         24    2    3    3    0    0 -0.19328770535E+03 -0.81661978514E+02  0.59562921703E+03  0.63630717022E+03  0.77998941770E+02 0.  0.
         -6    2    1    2    0  502  0.20166482855E+03  0.39345817074E+02  0.89613563385E+03  0.93530152128E+03  0.17179367004E+03 0.  0.
        -24    2    5    5    0    0  0.19177279926E+03  0.53861256394E+02  0.89086273453E+03  0.91636891213E+03  0.80110735073E+02 0.  0.
          5    1    3    3  501    0 -0.83771231952E+01  0.42316161440E+02  0.15664067473E+03  0.16253991722E+03  0.47000000000E+01 0. -1.
        -11    1    4    4    0    0 -0.69403734741E+02 -0.54740367551E+01  0.11779649082E+03  0.13683149025E+03  0.00000000000E+00 0.  1.
         12    1    4    4    0    0 -0.12388397061E+03 -0.76187941759E+02  0.47783272621E+03  0.49947567997E+03  0.00000000000E+00 0. -1.
         -5    1    5    5    0  502  0.98920292874E+01 -0.14515439320E+02  0.52728993233E+01  0.18932609153E+02  0.47000000000E+01 0.  1.
         11    1    6    6    0    0  0.15275474857E+03  0.29684542320E+02  0.52317445779E+03  0.54582661950E+03  0.00000000000E+00 0. -1.
        -12    1    6    6    0    0  0.39018050689E+02  0.24176714074E+02  0.36768827673E+03  0.37054229263E+03  0.00000000000E+00 0.  1.
</event>
<event>
12    1  0.9017558E-003  0.2340258E+03  0.7818608E-02  0.1124148E+00
         21   -1    0    0  503  502  0.00000000000E+00  0.00000000000E+00  0.23904403866E+04  0.23904403866E+04  0.00000000000E+00 0.  1.
         21   -1    0    0  501  503 -0.00000000000E+00 -0.00000000000E+00 -0.23270671322E+02  0.23270671322E+02  0.00000000000E+00 0.  1.
          6    2    1    2  501    0  0.15496999919E+03  0.35718266935E+02  0.99619598554E+03  0.10229065946E+04  0.16923346112E+03 0.  0.
         24    2    3    3    0    0  0.15704022395E+03  0.39066534227E+02  0.99974080511E+03  0.10158247537E+04  0.78933052326E+02 0.  0.
         -6    2    1    2    0  502 -0.15496999919E+03 -0.35718266935E+02  0.13709737297E+04  0.13908044633E+04  0.17168748473E+03 0.  0.
        -24    2    5    5    0    0 -0.36453538131E+02  0.35332108923E+02  0.63695241576E+03  0.64387495743E+03  0.79305501043E+02 0.  0.
          5    1    3    3  501    0 -0.20702247634E+01 -0.33482672919E+01 -0.35448195772E+01  0.70818408810E+01  0.47000000000E+01 0. -1.
        -13    1    4    4    0    0  0.13364259345E+03  0.30493643983E+02  0.60661249101E+03  0.62190748456E+03  0.00000000000E+00 0.  1.
         14    1    4    4    0    0  0.23397630506E+02  0.85728902439E+01  0.39312831411E+03  0.39391726912E+03  0.00000000000E+00 0. -1.
         -5    1    5    5    0  502 -0.11851646106E+03 -0.71050375858E+02  0.73402131396E+03  0.74692950591E+03  0.47000000000E+01 0.  1.
         11    1    6    6    0    0 -0.38919583512E+02  0.58813604105E+02  0.47043254594E+03  0.47568955663E+03  0.00000000000E+00 0. -1.
        -12    1    6    6    0    0  0.24660453806E+01 -0.23481495183E+02  0.16651986982E+03  0.16818540080E+03  0.00000000000E+00 0.  1.
</event>
<event>
12    1  0.9017558E-003  0.2185664E+03  0.7818608E-02  0.1137363E+00
         21   -1    0    0  503  502  0.00000000000E+00  0.00000000000E+00  0.65671945693E+03  0.65671945693E+03  0.00000000000E+00 0.  1.
         21   -1    0    0  501  503 -0.00000000000E+00 -0.00000000000E+00 -0.99835660088E+02  0.99835660088E+02  0.00000000000E+00 0.  1.
          6    2    1    2  501    0  0.10890063531E+03  0.33838952157E+02  0.72751141914E+02  0.23035626076E+03  0.18645872242E+03 0.  0.
         24    2    3    3    0    0  0.11249015576E+03  0.28003586798E+02  0.11837395383E+03  0.18398313154E+03  0.79994773145E+02 0.  0.
         -6    2    1    2    0  502 -0.10890063531E+03 -0.33838952157E+02  0.48413265493E+03  0.52619885626E+03  0.17174511845E+03 0.  0.
        -24    2    5    5    0    0 -0.34508977643E+02  0.21834228559E+02  0.11589532733E+03  0.14639042926E+03  0.79566499285E+02 0.  0.
          5    1    3    3  501    0 -0.35895204597E+01  0.58353653595E+01 -0.45622811914E+02  0.46373129212E+02  0.47000000000E+01 0. -1.
        -13    1    4    4    0    0  0.11164707247E+03  0.73279705634E+01  0.71598352783E+02  0.13283483002E+03  0.00000000000E+00 0.  1.
         14    1    4    4    0    0  0.84308329205E+00  0.20675616234E+02  0.46775601044E+02  0.51148301527E+02  0.00000000000E+00 0. -1.
         -5    1    5    5    0  502 -0.74391657662E+02 -0.55673180716E+02  0.36823732760E+03  0.37980842700E+03  0.47000000000E+01 0.  1.
         13    1    6    6    0    0 -0.34499196029E+02  0.37936479263E+02  0.11937000188E+03  0.12991754437E+03  0.00000000000E+00 0. -1.
        -14    1    6    6    0    0 -0.97816144095E-02 -0.16102250704E+02 -0.34746745556E+01  0.16472884893E+02  0.00000000000E+00 0.  1.
</event>
<event>
12    1  0.9017558E-003  0.2421767E+03  0.7818608E-02  0.1118565E+00
         21   -1    0    0  503  502  0.00000000000E+00  0.00000000000E+00  0.76382345794E+02  0.76382345794E+02  0.00000000000E+00 0.  1.
         21   -1    0    0  501  503 -0.00000000000E+00 -0.00000000000E+00 -0.79210738778E+03  0.79210738778E+03  0.00000000000E+00 0. -1.
          6    2    1    2  501    0 -0.65557820483E+02  0.15626674350E+03 -0.27660088312E+03  0.36763784519E+03  0.17300986597E+03 0.  0.
         24    2    3    3    0    0 -0.60298393714E+01  0.16257767628E+03 -0.19903883381E+03  0.26954926329E+03  0.81070883705E+02 0.  0.
         -6    2    1    2    0  502  0.65557820483E+02 -0.15626674350E+03 -0.43912415887E+03  0.50085188838E+03  0.17118838817E+03 0.  0.
        -24    2    5    5    0    0  0.94262780116E+02 -0.97521508273E+02 -0.21127778932E+03  0.26376322251E+03  0.80850584395E+02 0.  0.
          5    1    3    3  501    0 -0.59527981111E+02 -0.63109327785E+01 -0.77562049306E+02  0.98088581905E+02  0.47000000000E+01 0. -1.
        -11    1    4    4    0    0 -0.34844137071E+02  0.13646151547E+03 -0.13803432004E+03  0.19720378445E+03  0.00000000000E+00 0.  1.
         12    1    4    4    0    0  0.28814297699E+02  0.26116160811E+02 -0.61004513769E+02  0.72345478833E+02  0.00000000000E+00 0. -1.
         -5    1    5    5    0  502 -0.28704959633E+02 -0.58745235231E+02 -0.22784636955E+03  0.23708866587E+03  0.47000000000E+01 0.  1.
         11    1    6    6    0    0  0.56995789365E+02 -0.71013057886E+02 -0.19501244855E+03  0.21522367315E+03  0.00000000000E+00 0. -1.
        -12    1    6    6    0    0  0.37266990751E+02 -0.26508450387E+02 -0.16265340775E+02  0.48539549360E+02  0.00000000000E+00 0.  1.
</event>
<event>
12    1  0.9017558E-003  0.2032708E+03  0.7818608E-02  0.1148342E+00
         21   -1    0    0  501  502  0.00000000000E+00  0.00000000000E+00  0.30784899819E+03  0.30784899819E+03  0.00000000000E+00 0. -1.
         21   -1    0    0  502  503 -0.00000000000E+00 -0.00000000000E+00 -0.15479445222E+03  0.15479445222E+03  0.00000000000E+00 0.  1.
          6    2    1    2  501    0 -0.63022584364E+02  0.86299995544E+02  0.17000716125E+03  0.26499332218E+03  0.17291469154E+03 0.  0.
         24    2    3    3    0    0 -0.96309991344E+02  0.26585454916E+02  0.77979411100E+02  0.15025416311E+03  0.80703928836E+02 0.  0.
         -6    2    1    2    0  503  0.63022584364E+02 -0.86299995544E+02 -0.16952615278E+02  0.19765012823E+03  0.16540449405E+03 0.  0.
        -24    2    5    5    0    0  0.59789943479E+02 -0.12296155741E+03 -0.18338123800E+02  0.16052157157E+03  0.82076221975E+02 0.  0.
          5    1    3    3  501    0  0.33287406981E+02  0.59714540628E+02  0.92027750151E+02  0.11473915907E+03  0.47000000000E+01 0. -1.
        -13    1    4    4    0    0 -0.27917082700E+02  0.47354856965E+02  0.47109909948E+02  0.72396060666E+02  0.00000000000E+00 0.  1.
         14    1    4    4    0    0 -0.68392908645E+02 -0.20769402048E+02  0.30869501152E+02  0.77858102441E+02  0.00000000000E+00 0. -1.
         -5    1    5    5    0  503  0.32326408846E+01  0.36661561866E+02  0.13855085219E+01  0.37128556656E+02  0.47000000000E+01 0.  1.
         11    1    6    6    0    0  0.30427814804E+02 -0.30150966680E+01  0.12832240068E+02  0.33160354443E+02  0.00000000000E+00 0. -1.
        -12    1    6    6    0    0  0.29362128675E+02 -0.11994646074E+03 -0.31170363868E+02  0.12736121713E+03  0.00000000000E+00 0.  1.
</event>
<event>
12    1  0.9017558E-003  0.1730201E+03  0.7818608E-02  0.1177332E+00
         21   -1    0    0  503  502  0.00000000000E+00  0.00000000000E+00  0.18721371501E+03  0.18721371501E+03  0.00000000000E+00 0.  1.
         21   -1    0    0  501  503 -0.00000000000E+00 -0.00000000000E+00 -0.26676926943E+03  0.26676926943E+03  0.00000000000E+00 0.  1.
          6    2    1    2  501    0  0.19973860068E+02  0.10756230988E+02 -0.18999891832E+03  0.25697381551E+03  0.17152638662E+03 0.  0.
         24    2    3    3    0    0 -0.12385596425E+02  0.62717194864E+02 -0.60090289278E+02  0.11328868027E+03  0.71670305434E+02 0.  0.
         -6    2    1    2    0  502 -0.19973860068E+02 -0.10756230988E+02  0.11044336390E+03  0.19700916893E+03  0.16155563879E+03 0.  0.
        -24    2    5    5    0    0  0.19042264059E+02 -0.57545674514E+02  0.50002689676E+02  0.11106340076E+03  0.78490111077E+02 0.  0.
          5    1    3    3  501    0  0.32359456493E+02 -0.51960963877E+02 -0.12990862904E+03  0.14368513525E+03  0.47000000000E+01 0. -1.
        -11    1    4    4    0    0 -0.14594000962E+02 -0.76262590571E+01 -0.34809408716E+02  0.38507656725E+02  0.00000000000E+00 0.  1.
         12    1    4    4    0    0  0.22084045369E+01  0.70343453921E+02 -0.25280880562E+02  0.74781023543E+02  0.00000000000E+00 0. -1.
         -5    1    5    5    0  502 -0.39016124127E+02  0.46789443526E+02  0.60440674222E+02  0.85945768179E+02  0.47000000000E+01 0.  1.
         13    1    6    6    0    0 -0.13613676980E+02 -0.57967608471E+02  0.11622053472E+02  0.60668343967E+02  0.00000000000E+00 0. -1.
        -14    1    6    6    0    0  0.32655941038E+02  0.42193395704E+00  0.38380636204E+02  0.50395056789E+02  0.00000000000E+00 0.  1.
</event>
<event>
12    1  0.9017558E-003  0.1942514E+03  0.7818608E-02  0.1154780E+00
         21   -1    0    0  501  502  0.00000000000E+00  0.00000000000E+00  0.45450820971E+03  0.45450820971E+03  0.00000000000E+00 0. -1.
         21   -1    0    0  502  503 -0.00000000000E+00 -0.00000000000E+00 -0.11868921826E+03  0.11868921826E+03  0.00000000000E+00 0. -1.
          6    2    1    2  501    0  0.90634039294E+02 -0.26895192730E+00  0.10511910712E+02  0.19453559694E+03  0.17181093328E+03 0.  0.
         24    2    3    3    0    0 -0.96903319199E+01  0.31556665799E+02  0.21663248914E+02  0.88590838943E+02  0.79305199717E+02 0.  0.
         -6    2    1    2    0  503 -0.90634039294E+02  0.26895192730E+00  0.32530708074E+03  0.37866183103E+03  0.17130523659E+03 0.  0.
        -24    2    5    5    0    0 -0.83336452214E+01 -0.22537269495E+02  0.25213856945E+03  0.26610429177E+03  0.81610402117E+02 0.  0.
          5    1    3    3  501    0  0.10032437121E+03 -0.31825617726E+02 -0.11151338202E+02  0.10594475800E+03  0.47000000000E+01 0. -1.
        -13    1    4    4    0    0  0.12351379528E+02  0.50527963058E+02 -0.51352290328E+00  0.52018221161E+02  0.00000000000E+00 0.  1.
         14    1    4    4    0    0 -0.22041711448E+02 -0.18971297259E+02  0.22176771817E+02  0.36572617782E+02  0.00000000000E+00 0. -1.
         -5    1    5    5    0  503 -0.82300394073E+02  0.22806221423E+02  0.73168511291E+02  0.11255753926E+03  0.47000000000E+01 0.  1.
         11    1    6    6    0    0 -0.31993801439E+02 -0.14512082837E+02  0.23016903323E+03  0.23283467899E+03  0.00000000000E+00 0. -1.
        -12    1    6    6    0    0  0.23660156218E+02 -0.80251866585E+01  0.21969536221E+02  0.33269612786E+02  0.00000000000E+00 0.  1.
</event>
<event>
12    1  0.9017558E-003  0.2741370E+03  0.7818608E-02  0.1099004E+00
         21   -1    0    0  503  502  0.00000000000E+00  0.00000000000E+00  0.62492235844E+02  0.62492235844E+02  0.00000000000E+00 0. -1.
         21   -1    0    0  501  503 -0.00000000000E+00 -0.00000000000E+00 -0.14711157550E+04  0.14711157550E+04  0.00000000000E+00 0. -1.
          6    2    1    2  501    0  0.78313853952E+01 -0.21338413144E+03 -0.10327252864E+04  0.10683655062E+04  0.17114093479E+03 0.  0.
         24    2    3    3    0    0  0.36505205546E+01 -0.28546852982E+02 -0.34690807381E+03  0.35804893017E+03  0.83818706737E+02 0.  0.
         -6    2    1    2    0  502 -0.78313853952E+01  0.21338413144E+03 -0.37589823272E+03  0.46524248459E+03  0.17192140634E+03 0.  0.
        -24    2    5    5    0    0  0.14591301349E+02  0.22862259843E+03 -0.30861997277E+03  0.39255519534E+03  0.79825404514E+02 0.  0.
          5    1    3    3  501    0  0.41808648406E+01 -0.18483727846E+03 -0.68581721261E+03  0.71031657608E+03  0.47000000000E+01 0. -1.
        -11    1    4    4    0    0 -0.34994199000E+02  0.29219935121E+01 -0.19610575111E+03  0.19922499248E+03  0.00000000000E+00 0.  1.
         12    1    4    4    0    0  0.38644719554E+02 -0.31468846494E+02 -0.15080232270E+03  0.15882393769E+03  0.00000000000E+00 0. -1.
         -5    1    5    5    0  502 -0.22422686744E+02 -0.15238466990E+02 -0.67278259947E+02  0.72687289250E+02  0.47000000000E+01 0.  1.
         11    1    6    6    0    0  0.23886668573E+02  0.15640211315E+03 -0.26208774156E+03  0.30614078168E+03  0.00000000000E+00 0. -1.
        -12    1    6    6    0    0 -0.92953672249E+01  0.72220485284E+02 -0.46532231215E+02  0.86414413660E+02  0.00000000000E+00 0.  1.
</event>
<event>
12    1  0.9017558E-003  0.1831874E+03  0.7818608E-02  0.1164897E+00
         21   -1    0    0  501  502  0.00000000000E+00  0.00000000000E+00  0.45271223744E+03  0.45271223744E+03  0.00000000000E+00 0.  1.
         21   -1    0    0  502  503 -0.00000000000E+00 -0.00000000000E+00 -0.20245973322E+03  0.20245973322E+03  0.00000000000E+00 0. -1.
          6    2    1    2  501    0  0.61638798009E+02 -0.35484524955E+01  0.38611121858E+03  0.42710350915E+03  0.17182433322E+03 0.  0.
         24    2    3    3    0    0  0.76872865905E+01 -0.41017632501E+02  0.32336113016E+03  0.33613995254E+03  0.81768616527E+02 0.  0.
         -6    2    1    2    0  503 -0.61638798009E+02  0.35484524955E+01 -0.13585871435E+03  0.22806846150E+03  0.17246941738E+03 0.  0.
        -24    2    5    5    0    0 -0.35749679489E+02 -0.64051704268E+01 -0.16551394857E+03  0.18719250300E+03  0.79543071462E+02 0.  0.
          5    1    3    3  501    0  0.53951511419E+02  0.37469180006E+02  0.62750088421E+02  0.90963556612E+02  0.47000000000E+01 0. -1.
        -13    1    4    4    0    0  0.31276873646E+02  0.12142809316E+02  0.11115203929E+03  0.11610541107E+03  0.00000000000E+00 0.  1.
         14    1    4    4    0    0 -0.23589587056E+02 -0.53160441817E+02  0.21220909087E+03  0.22003454147E+03  0.00000000000E+00 0. -1.
         -5    1    5    5    0  503 -0.25889118520E+02  0.99536229223E+01  0.29655234215E+02  0.40875958501E+02  0.47000000000E+01 0.  1.
         11    1    6    6    0    0 -0.39178958209E+02  0.28269613154E+02 -0.12347535833E+03  0.13259082136E+03  0.00000000000E+00 0. -1.
        -12    1    6    6    0    0  0.34292787203E+01 -0.34674783581E+02 -0.42038590240E+02  0.54601681643E+02  0.00000000000E+00 0.  1.
</event>
<event>
12    1  0.9017558E-003  0.1918005E+03  0.7818608E-02  0.1161097E+00
         21   -1    0    0  501  502  0.00000000000E+00  0.00000000000E+00  0.36025724342E+03  0.36025724342E+03  0.00000000000E+00 0. -1.
         21   -1    0    0  502  503 -0.00000000000E+00 -0.00000000000E+00 -0.10752327724E+03  0.10752327724E+03  0.00000000000E+00 0. -1.
          6    2    1    2  501    0 -0.48273518490E+02  0.55571862093E+02  0.21849290052E+03  0.29073456302E+03  0.17711260293E+03 0.  0.
         24    2    3    3    0    0 -0.76392932591E+02 -0.17747199747E+02  0.14089361459E+03  0.18023512658E+03  0.80516128639E+02 0.  0.
         -6    2    1    2    0  503  0.48273518490E+02 -0.55571862093E+02  0.34241065664E+02  0.17704595764E+03  0.15733485340E+03 0.  0.
        -24    2    5    5    0    0  0.48603309283E+02 -0.95330864770E+02  0.34471899224E+02  0.13700809631E+03  0.78311245473E+02 0.  0.
          5    1    3    3  501    0  0.28119414101E+02  0.73319061840E+02  0.77599285923E+02  0.11049943644E+03  0.47000000000E+01 0. -1.
        -11    1    4    4    0    0 -0.56861575692E+02  0.27432676940E+02  0.76613274956E+02  0.99274288987E+02  0.00000000000E+00 0.  1.
         12    1    4    4    0    0 -0.19531356899E+02 -0.45179876687E+02  0.64280339637E+02  0.80960837592E+02  0.00000000000E+00 0. -1.
         -5    1    5    5    0  503 -0.32979079318E+00  0.39759002677E+02 -0.23083355957E+00  0.40037861331E+02  0.47000000000E+01 0.  1.
         11    1    6    6    0    0  0.14350598995E+02 -0.78385781696E+02 -0.77447005700E+01  0.80064042182E+02  0.00000000000E+00 0. -1.
        -12    1    6    6    0    0  0.34252710288E+02 -0.16945083074E+02  0.42216599794E+02  0.56944054129E+02  0.00000000000E+00 0.  1.
</event>
<event>
12    1  0.9017558E-003  0.2247014E+03  0.7818608E-02  0.1131528E+00
         21   -1    0    0  503  502  0.00000000000E+00  0.00000000000E+00  0.65134278703E+03  0.65134278703E+03  0.00000000000E+00 0. -1.
         21   -1    0    0  501  503 -0.00000000000E+00 -0.00000000000E+00 -0.75464351536E+02  0.75464351536E+02  0.00000000000E+00 0. -1.
          6    2    1    2  501    0 -0.14447930907E+03  0.14412804380E+01  0.28376130843E+03  0.35826526467E+03  0.16418639306E+03 0.  0.
         24    2    3    3    0    0 -0.13984523697E+03  0.23421790314E+02  0.14478333004E+03  0.21740510027E+03  0.78724166552E+02 0.  0.
         -6    2    1    2    0  502  0.14447930907E+03 -0.14412804380E+01  0.29211712706E+03  0.36854187390E+03  0.17208820079E+03 0.  0.
        -24    2    5    5    0    0  0.14132764651E+03  0.35368182843E+02  0.28588472329E+03  0.33078207489E+03  0.80388394906E+02 0.  0.
          5    1    3    3  501    0 -0.46340721058E+01 -0.21980509876E+02  0.13897797839E+03  0.14086016440E+03  0.47000000000E+01 0. -1.
        -11    1    4    4    0    0 -0.69235000591E+02 -0.11241318164E+02  0.25727968004E+02  0.74711316937E+02  0.00000000000E+00 0.  1.
         12    1    4    4    0    0 -0.70610236377E+02  0.34663108477E+02  0.11905536204E+03  0.14269378333E+03  0.00000000000E+00 0. -1.
         -5    1    5    5    0  502  0.31516625613E+01 -0.36809463281E+02  0.62324037757E+01  0.37759799003E+02  0.47000000000E+01 0.  1.
         11    1    6    6    0    0  0.31230454135E+02  0.36417585489E+02  0.44339604725E+02  0.65326735304E+02  0.00000000000E+00 0. -1.
        -12    1    6    6    0    0  0.11009719238E+03 -0.10494026462E+01  0.24154511856E+03  0.26545533959E+03  0.00000000000E+00 0.  1.
</event>
<event>
12    1  0.9017558E-003  0.1769870E+03  0.7818608E-02  0.1170945E+00
         21   -1    0    0  501  502  0.00000000000E+00  0.00000000000E+00  0.17198975843E+03  0.17198975843E+03  0.00000000000E+00 0.  1.
         21   -1    0    0  502  503 -0.00000000000E+00 -0.00000000000E+00 -0.20288459891E+03  0.20288459891E+03  0.00000000000E+00 0.  1.
          6    2    1    2  501    0  0.16201387636E+02 -0.39210672463E+02  0.45683284853E+02  0.18203086586E+03  0.17102137824E+03 0.  0.
         24    2    3    3    0    0 -0.27780668301E+02 -0.61247180578E+02 -0.28755703967E+01  0.11274824641E+03  0.90448413495E+02 0.  0.
         -6    2    1    2    0  503 -0.16201387636E+02  0.39210672463E+02 -0.76578125330E+02  0.19284349148E+03  0.17182677653E+03 0.  0.
        -24    2    5    5    0    0  0.31843145771E+02  0.75104580484E+01  0.70606930567E+01  0.91203328531E+02  0.84839854054E+02 0.  0.
          5    1    3    3  501    0  0.43982055937E+02  0.22036508115E+02  0.48558855250E+02  0.69282619448E+02  0.47000000000E+01 0. -1.
        -13    1    4    4    0    0 -0.49142256175E+02 -0.10243683374E+02  0.18450769029E+02  0.53482008832E+02  0.00000000000E+00 0.  1.
         14    1    4    4    0    0  0.21361587873E+02 -0.51003497205E+02 -0.21326339425E+02  0.59266237580E+02  0.00000000000E+00 0. -1.
         -5    1    5    5    0  503 -0.48044533407E+02  0.31700214415E+02 -0.83638818387E+02  0.10164016295E+03  0.47000000000E+01 0.  1.
         11    1    6    6    0    0  0.11547592902E+02 -0.50794122276E+01  0.44799605506E+02  0.46541937904E+02  0.00000000000E+00 0. -1.
        -12    1    6    6    0    0  0.20295552869E+02  0.12589870276E+02 -0.37738912449E+02  0.44661390626E+02  0.00000000000E+00 0.  1.
</event>
<event>
12    1  0.9017558E-003  0.2247686E+03  0.7818608E-02  0.1130496E+00
         21   -1    0    0  501  502  0.00000000000E+00  0.00000000000E+00  0.21082519976E+03  0.21082519976E+03  0.00000000000E+00 0.  1.
         21   -1    0    0  502  503 -0.00000000000E+00 -0.00000000000E+00 -0.24478513676E+03  0.24478513676E+03  0.00000000000E+00 0. -1.
          6    2    1    2  501    0 -0.13435478096E+03 -0.51384427416E+02  0.18252681156E+02  0.22485700948E+03  0.17186025659E+03 0.  0.
         24    2    3    3    0    0 -0.22992101723E+02 -0.35323291465E+02  0.56195428593E+02  0.10602372921E+03  0.79414943808E+02 0.  0.
         -6    2    1    2    0  503  0.13435478096E+03  0.51384427416E+02 -0.52212618162E+02  0.23075332704E+03  0.17271182327E+03 0.  0.
        -24    2    5    5    0    0  0.12581734055E+03  0.86870654405E+02 -0.57946420824E+01  0.17151753805E+03  0.77512413200E+02 0.  0.
          5    1    3    3  501    0 -0.11136267924E+03 -0.16061135951E+02 -0.37942747437E+02  0.11883328027E+03  0.47000000000E+01 0. -1.
        -11    1    4    4    0    0 -0.40639755909E+02  0.60560067234E+01  0.42229619864E+02  0.58920334110E+02  0.00000000000E+00 0.  1.
         12    1    4    4    0    0  0.17647654186E+02 -0.41379298188E+02  0.13965808729E+02  0.47103395104E+02  0.00000000000E+00 0. -1.
         -5    1    5    5    0  503  0.85374404116E+01 -0.35486226988E+02 -0.46417976080E+02  0.59235788996E+02  0.47000000000E+01 0.  1.
         13    1    6    6    0    0  0.24999724592E+02  0.41232941429E+02 -0.31896825100E+02  0.57814783058E+02  0.00000000000E+00 0. -1.
        -14    1    6    6    0    0  0.10081761596E+03  0.45637712975E+02  0.26102183018E+02  0.11370275499E+03  0.00000000000E+00 0.  1.
</event>
<event>
12    1  0.9017558E-003  0.1817766E+03  0.7818608E-02  0.1166613E+00
         21   -1    0    0  501  502  0.00000000000E+00  0.00000000000E+00  0.92177268309E+02  0.92177268309E+02  0.00000000000E+00 0.  1.
         21   -1    0    0  502  503 -0.00000000000E+00 -0.00000000000E+00 -0.35620953227E+03  0.35620953227E+03  0.00000000000E+00 0.  1.
          6    2    1    2  501    0 -0.25469600552E+02 -0.39065942720E+02 -0.11607324049E+03  0.21567506916E+03  0.17569260049E+03 0.  0.
         24    2    3    3    0    0 -0.30055881543E+01 -0.32608658613E+02 -0.15079592016E+03  0.17355520622E+03  0.79433254309E+02 0.  0.
         -6    2    1    2    0  503  0.25469600552E+02  0.39065942720E+02 -0.14795902347E+03  0.23271173142E+03  0.17345901211E+03 0.  0.
        -24    2    5    5    0    0 -0.22391402612E+02  0.75857453591E+02 -0.64667536163E+02  0.12973672108E+03  0.79962481124E+02 0.  0.
          5    1    3    3  501    0 -0.22464012398E+02 -0.64572841079E+01  0.34722679671E+02  0.42119862946E+02  0.47000000000E+01 0. -1.
        -13    1    4    4    0    0 -0.20343020227E+01 -0.16870342159E+02  0.44058802955E+01  0.17554447028E+02  0.00000000000E+00 0.  1.
         14    1    4    4    0    0 -0.97128613155E+00 -0.15738316453E+02 -0.15520180046E+03  0.15600075919E+03  0.00000000000E+00 0. -1.
         -5    1    5    5    0  503  0.47861003164E+02 -0.36791510871E+02 -0.83291487310E+02  0.10297501034E+03  0.47000000000E+01 0.  1.
         13    1    6    6    0    0 -0.13273782295E+02  0.33634829402E+02  0.14972376377E+02  0.39136518748E+02  0.00000000000E+00 0. -1.
        -14    1    6    6    0    0 -0.91176203172E+01  0.42222624189E+02 -0.79639912540E+02  0.90600202334E+02  0.00000000000E+00 0.  1.
</event>
<event>
12    1  0.9017558E-003  0.2161810E+03  0.7818608E-02  0.1138180E+00
         21   -1    0    0  501  502  0.00000000000E+00  0.00000000000E+00  0.23167608222E+03  0.23167608222E+03  0.00000000000E+00 0.  1.
         21   -1    0    0  502  503 -0.00000000000E+00 -0.00000000000E+00 -0.22654182032E+03  0.22654182032E+03  0.00000000000E+00 0. -1.
          6    2    1    2  501    0 -0.98414626956E+02  0.76988432426E+02 -0.82988671104E+02  0.22476583993E+03  0.16739147451E+03 0.  0.
         24    2    3    3    0    0 -0.93017665061E+02  0.84079595532E+02 -0.73449056312E+01  0.14845410396E+03  0.79139174523E+02 0.  0.
         -6    2    1    2    0  503  0.98414626956E+02 -0.76988432426E+02  0.88122933002E+02  0.23345206261E+03  0.17641302869E+03 0.  0.
        -24    2    5    5    0    0  0.85677334802E+02 -0.67405878122E+02 -0.68828588577E+01  0.13700386696E+03  0.82695391112E+02 0.  0.
          5    1    3    3  501    0 -0.53969618948E+01 -0.70911631061E+01 -0.75643765473E+02  0.76311735971E+02  0.47000000000E+01 0. -1.
        -13    1    4    4    0    0 -0.36606046993E+02 -0.10212130720E+02 -0.66048712976E+01  0.38573496278E+02  0.00000000000E+00 0.  1.
         14    1    4    4    0    0 -0.56411618068E+02  0.94291726252E+02 -0.74003433365E+00  0.10988060768E+03  0.00000000000E+00 0. -1.
         -5    1    5    5    0  503  0.12737292153E+02 -0.95825543037E+01  0.95005791860E+02  0.96448195656E+02  0.47000000000E+01 0.  1.
         11    1    6    6    0    0  0.48842674872E+02  0.76498386113E+01  0.12889045918E+02  0.51090649087E+02  0.00000000000E+00 0. -1.
        -12    1    6    6    0    0  0.36834659930E+02 -0.75055716733E+02 -0.19771904776E+02  0.85913217872E+02  0.00000000000E+00 0.  1.
</event>
<event>
12    1  0.9017558E-003  0.2374125E+03  0.7818608E-02  0.1122017E+00
         21   -1    0    0  501  502  0.00000000000E+00  0.00000000000E+00  0.61794305096E+02  0.61794305096E+02  0.00000000000E+00 0.  1.
         21   -1    0    0  502  503 -0.00000000000E+00 -0.00000000000E+00 -0.12534980777E+04  0.12534980777E+04  0.00000000000E+00 0. -1.
          6    2    1    2  501    0 -0.15272141172E+03  0.59386648348E+02 -0.24978449809E+03  0.34461132976E+03  0.17179659343E+03 0.  0.
         24    2    3    3    0    0 -0.97899644869E+02  0.10391592882E+03 -0.19976369279E+03  0.25793691657E+03  0.79013032123E+02 0.  0.
         -6    2    1    2    0  503  0.15272141172E+03 -0.59386648348E+02 -0.94191927450E+03  0.97068105303E+03  0.16780698265E+03 0.  0.
        -24    2    5    5    0    0  0.94647149144E+01 -0.40675273619E+02 -0.40872274349E+03  0.41823808999E+03  0.78260846919E+02 0.  0.
          5    1    3    3  501    0 -0.54821766850E+02 -0.44529280467E+02 -0.50020805309E+02  0.86674413198E+02  0.47000000000E+01 0. -1.
        -13    1    4    4    0    0 -0.15670504578E+02  0.66035360317E+02 -0.55757104993E+02  0.87835575271E+02  0.00000000000E+00 0.  1.
         14    1    4    4    0    0 -0.82229140291E+02  0.37880568498E+02 -0.14400658779E+03  0.17010134130E+03  0.00000000000E+00 0. -1.
         -5    1    5    5    0  503  0.14325669680E+03 -0.18711374729E+02 -0.53319653101E+03  0.55244296304E+03  0.47000000000E+01 0.  1.
         11    1    6    6    0    0  0.35454511143E+02 -0.38644730992E+02 -0.35106752297E+03  0.35496315764E+03  0.00000000000E+00 0. -1.
        -12    1    6    6    0    0 -0.25989796229E+02 -0.20305426277E+01 -0.57655220518E+02  0.63274932354E+02  0.00000000000E+00 0.  1.
</event>
<event>
12    1  0.9017558E-003  0.3769323E+03  0.7818608E-02  0.1052078E+00
         21   -1    0    0  501  502  0.00000000000E+00  0.00000000000E+00  0.25297551216E+03  0.25297551216E+03  0.00000000000E+00 0. -1.
         21   -1    0    0  502  503 -0.00000000000E+00 -0.00000000000E+00 -0.57751551665E+03  0.57751551665E+03  0.00000000000E+00 0. -1.
          6    2    1    2  501    0 -0.10115354379E+03  0.31979483271E+03 -0.93238228923E+02  0.38829287353E+03  0.17198027171E+03 0.  0.
         24    2    3    3    0    0  0.11835902165E+02  0.96454979930E+02 -0.54960899280E+01  0.12302305299E+03  0.75238373383E+02 0.  0.
         -6    2    1    2    0  503  0.10115354379E+03 -0.31979483271E+03 -0.23130177557E+03  0.44219815528E+03  0.17186600220E+03 0.  0.
        -24    2    5    5    0    0  0.71243372648E+02 -0.32849418508E+03 -0.21190955547E+03  0.40520565240E+03  0.79384590803E+02 0.  0.
          5    1    3    3  501    0 -0.11298944595E+03  0.22333985278E+03 -0.87742138995E+02  0.26526982054E+03  0.47000000000E+01 0. -1.
        -13    1    4    4    0    0 -0.62996863177E+01  0.81200162267E+02 -0.31967758854E+02  0.87493371212E+02  0.00000000000E+00 0.  1.
         14    1    4    4    0    0  0.18135588482E+02  0.15254817663E+02  0.26471668926E+02  0.35529681779E+02  0.00000000000E+00 0. -1.
         -5    1    5    5    0  503  0.29910171139E+02  0.86993523795E+01 -0.19392220098E+02  0.36992502886E+02  0.47000000000E+01 0.  1.
         13    1    6    6    0    0  0.52826719885E+02 -0.15689855957E+03 -0.14511241482E+03  0.22014866173E+03  0.00000000000E+00 0. -1.
        -14    1    6    6    0    0  0.18416652762E+02 -0.17159562552E+03 -0.66797140650E+02  0.18505699067E+03  0.00000000000E+00 0.  1.
</event>
<event>
12    1  0.9017558E-003  0.1741234E+03  0.7818608E-02  0.1173714E+00
         21   -1    0    0  503  502  0.00000000000E+00  0.00000000000E+00  0.12813613471E+03  0.12813613471E+03  0.00000000000E+00 0. -1.
         21   -1    0    0  501  503 -0.00000000000E+00 -0.00000000000E+00 -0.31791508326E+03  0.31791508326E+03  0.00000000000E+00 0. -1.
          6    2    1    2  501    0 -0.10378920880E+02 -0.26925553100E+02 -0.20812107829E+03  0.27135462925E+03  0.17171559097E+03 0.  0.
         24    2    3    3    0    0  0.39621888645E+02 -0.62783361035E+02 -0.10308778284E+03  0.14953531020E+03  0.78880121338E+02 0.  0.
         -6    2    1    2    0  502  0.10378920880E+02  0.26925553100E+02  0.18342129737E+02  0.17469658872E+03  0.17131770772E+03 0.  0.
        -24    2    5    5    0    0  0.65486171747E+02 -0.67054956252E+01  0.30587994830E+02  0.10881861252E+03  0.81070726163E+02 0.  0.
          5    1    3    3  501    0 -0.50000809525E+02  0.35857807934E+02 -0.10503329544E+03  0.12181931905E+03  0.47000000000E+01 0. -1.
        -13    1    4    4    0    0  0.19961532214E+02  0.88953415077E+01  0.71588366460E+00  0.21865551863E+02  0.00000000000E+00 0.  1.
         14    1    4    4    0    0  0.19660356431E+02 -0.71678702542E+02 -0.10380366651E+03  0.12766975834E+03  0.00000000000E+00 0. -1.
         -5    1    5    5    0  502 -0.55107250867E+02  0.33631048725E+02 -0.12245865094E+02  0.65877976201E+02  0.47000000000E+01 0.  1.
         13    1    6    6    0    0  0.36008449578E+01  0.27703149262E+02  0.25506437401E+02  0.37828678437E+02  0.00000000000E+00 0. -1.
        -14    1    6    6    0    0  0.61885326789E+02 -0.34408644887E+02  0.50815574299E+01  0.70989934080E+02  0.00000000000E+00 0.  1.
</event>
<event>
12    1  0.9017558E-003  0.1815378E+03  0.7818608E-02  0.1166421E+00
         21   -1    0    0  503  502  0.00000000000E+00  0.00000000000E+00  0.12045766352E+03  0.12045766352E+03  0.00000000000E+00 0.  1.
         21   -1    0    0  501  503 -0.00000000000E+00 -0.00000000000E+00 -0.31264129608E+03  0.31264129608E+03  0.00000000000E+00 0.  1.
          6    2    1    2  501    0 -0.43166422435E+02  0.34785466078E+02 -0.17313079258E+03  0.25056407416E+03  0.17243756912E+03 0.  0.
         24    2    3    3    0    0 -0.83076816919E+02  0.63613007246E+02 -0.13485119428E+03  0.18802381222E+03  0.78865310268E+02 0.  0.
         -6    2    1    2    0  502  0.43166422435E+02 -0.34785466078E+02 -0.19052839982E+02  0.18253488544E+03  0.17286585844E+03 0.  0.
        -24    2    5    5    0    0  0.62380405416E+02  0.26911074367E+02  0.91126580947E+01  0.11188769493E+03  0.88432430902E+02 0.  0.
          5    1    3    3  501    0  0.39910394483E+02 -0.28827541168E+02 -0.38279598298E+02  0.62540261939E+02  0.47000000000E+01 0. -1.
        -13    1    4    4    0    0 -0.50301436018E+02  0.78515791490E+02 -0.82606855879E+02  0.12457470296E+03  0.00000000000E+00 0.  1.
         14    1    4    4    0    0 -0.32775380901E+02 -0.14902784245E+02 -0.52244338404E+02  0.63449109266E+02  0.00000000000E+00 0. -1.
         -5    1    5    5    0  502 -0.19213982981E+02 -0.61696540445E+02 -0.28165498077E+02  0.70647190509E+02  0.47000000000E+01 0.  1.
         13    1    6    6    0    0  0.40445867084E+01 -0.25901757395E+02 -0.14202237556E+02  0.29815487073E+02  0.00000000000E+00 0. -1.
        -14    1    6    6    0    0  0.58335818707E+02  0.52812831762E+02  0.23314895650E+02  0.82072207855E+02  0.00000000000E+00 0.  1.
</event>
<event>
12    1  0.9017558E-003  0.2000918E+03  0.7818608E-02  0.1149674E+00
         21   -1    0    0  503  502  0.00000000000E+00  0.00000000000E+00  0.58200464043E+02  0.58200464043E+02  0.00000000000E+00 0.  1.
         21   -1    0    0  501  503 -0.00000000000E+00 -0.00000000000E+00 -0.68983081030E+03  0.68983081030E+03  0.00000000000E+00 0. -1.
          6    2    1    2  501    0  0.70202408349E+01 -0.10114221040E+03 -0.29504595336E+03  0.35646290230E+03  0.17243739622E+03 0.  0.
         24    2    3    3    0    0 -0.61910688345E+02 -0.73752725305E+02 -0.20057704697E+03  0.23626256467E+03  0.79476096235E+02 0.  0.
         -6    2    1    2    0  502 -0.70202408349E+01  0.10114221040E+03 -0.33658439289E+03  0.39156837204E+03  0.17250422005E+03 0.  0.
        -24    2    5    5    0    0 -0.19159645441E+02  0.65814443075E+02 -0.33790217239E+03  0.35389553260E+03  0.79784315232E+02 0.  0.
          5    1    3    3  501    0  0.68930929180E+02 -0.27389485098E+02 -0.94468906396E+02  0.12020033763E+03  0.47000000000E+01 0. -1.
        -13    1    4    4    0    0  0.61445604345E+00 -0.56775677844E+02 -0.67150535344E+02  0.87937759511E+02  0.00000000000E+00 0.  1.
         14    1    4    4    0    0 -0.62525144389E+02 -0.16977047462E+02 -0.13342651162E+03  0.14832480516E+03  0.00000000000E+00 0. -1.
         -5    1    5    5    0  502  0.12139404606E+02  0.35327767328E+02  0.13177794995E+01  0.37672839439E+02  0.47000000000E+01 0.  1.
         13    1    6    6    0    0  0.98976141721E+01  0.73122459362E+02 -0.26486515839E+03  0.27495164840E+03  0.00000000000E+00 0. -1.
        -14    1    6    6    0    0 -0.29057259613E+02 -0.73080162874E+01 -0.73037014006E+02  0.78943884204E+02  0.00000000000E+00 0.  1.
</event>
<event>
12    1  0.9017558E-003  0.1813208E+03  0.7818608E-02  0.1167688E+00
         21   -1    0    0  501  502  0.00000000000E+00  0.00000000000E+00  0.13865365841E+04  0.13865365841E+04  0.00000000000E+00 0.  1.
         21   -1    0    0  502  503 -0.00000000000E+00 -0.00000000000E+00 -0.23191542046E+02  0.23191542046E+02  0.00000000000E+00 0. -1.
          6    2    1    2  501    0 -0.15696263202E+02  0.42271477913E+02  0.62674493923E+03  0.65113935023E+03  0.17070437616E+03 0.  0.
         24    2    3    3    0    0 -0.51660983806E+02 -0.15874993644E+02  0.50343069410E+03  0.51006147693E+03  0.61639060768E+02 0.  0.
         -6    2    1    2    0  503  0.15696263202E+02 -0.42271477913E+02  0.73660010285E+03  0.75858877594E+03  0.17562451124E+03 0.  0.
        -24    2    5    5    0    0 -0.29524384147E+02  0.29793128315E+02  0.47515408198E+03  0.48360818346E+03  0.79662749940E+02 0.  0.
          5    1    3    3  501    0  0.35964720604E+02  0.58146471557E+02  0.12331424513E+03  0.14107787330E+03  0.47000000000E+01 0. -1.
        -13    1    4    4    0    0 -0.22409202935E+02 -0.33586423965E+02  0.37459973086E+03  0.37676939713E+03  0.00000000000E+00 0.  1.
         14    1    4    4    0    0 -0.29251780872E+02  0.17711430322E+02  0.12883096324E+03  0.13329207980E+03  0.00000000000E+00 0. -1.
         -5    1    5    5    0  503  0.45220647349E+02 -0.72064606228E+02  0.26144602087E+03  0.27498059249E+03  0.47000000000E+01 0.  1.
         11    1    6    6    0    0  0.17692024629E+02  0.44358263661E+01  0.29085550879E+02  0.34331524303E+02  0.00000000000E+00 0. -1.
        -12    1    6    6    0    0 -0.47216408776E+02  0.25357301949E+02  0.44606853110E+03  0.44927665915E+03  0.00000000000E+00 0.  1.
</event>
<event>
12    1  0.9017558E-003  0.2159643E+03  0.7818608E-02  0.1137105E+00
         21   -1    0    0  501  502  0.00000000000E+00  0.00000000000E+00  0.15082226973E+03  0.15082226973E+03  0.00000000000E+00 0. -1.
         21   -1    0    0  502  503 -0.00000000000E+00 -0.00000000000E+00 -0.32159970231E+03  0.32159970231E+03  0.00000000000E+00 0. -1.
          6    2    1    2  501    0 -0.66602862132E+02 -0.11291677112E+03 -0.36498508064E+02  0.21811622811E+03  0.17045940698E+03 0.  0.
         24    2    3    3    0    0  0.17705365682E+02 -0.83600409684E+02 -0.50725783875E+02  0.12760748984E+03  0.80050345666E+02 0.  0.
         -6    2    1    2    0  503  0.66602862132E+02  0.11291677112E+03 -0.13427892453E+03  0.25430574393E+03  0.17162296869E+03 0.  0.
        -24    2    5    5    0    0  0.48946810025E+02  0.93342790160E+02 -0.15726270473E+02  0.13276686666E+03  0.79190015866E+02 0.  0.
          5    1    3    3  501    0 -0.84308227814E+02 -0.29316361433E+02  0.14227275812E+02  0.90508738262E+02  0.47000000000E+01 0. -1.
        -11    1    4    4    0    0  0.43475250404E+02 -0.32008415282E+02 -0.53989220122E+01  0.54256653099E+02  0.00000000000E+00 0.  1.
         12    1    4    4    0    0 -0.25769884722E+02 -0.51591994402E+02 -0.45326861863E+02  0.73350836746E+02  0.00000000000E+00 0. -1.
         -5    1    5    5    0  503  0.17656052107E+02  0.19573980958E+02 -0.11855265405E+03  0.12153887728E+03  0.47000000000E+01 0.  1.
         13    1    6    6    0    0  0.51570604669E+02  0.20130755662E+02  0.76095259979E+01  0.55880940180E+02  0.00000000000E+00 0. -1.
        -14    1    6    6    0    0 -0.26237946436E+01  0.73212034497E+02 -0.23335796471E+02  0.76885926479E+02  0.00000000000E+00 0.  1.
</event>
<event>
12    1  0.9017558E-003  0.2190252E+03  0.7818608E-02  0.1134836E+00
         21   -1    0    0  503  502  0.00000000000E+00  0.00000000000E+00  0.26548450577E+03  0.26548450577E+03  0.00000000000E+00 0. -1.
         21   -1    0    0  501  503 -0.00000000000E+00 -0.00000000000E+00 -0.19313641330E+03  0.19313641330E+03  0.00000000000E+00 0. -1.
          6    2    1    2  501    0  0.76635716164E+00  0.13496696241E+03 -0.24363675336E+02  0.21919409773E+03  0.17098478166E+03 0.  0.
         24    2    3    3    0    0  0.45591065884E+02  0.13230541776E+03 -0.49397544073E+02  0.16756926925E+03  0.77820779860E+02 0.  0.
         -6    2    1    2    0  502 -0.76635716164E+00 -0.13496696241E+03  0.96711767806E+02  0.23942682134E+03  0.17249744491E+03 0.  0.
        -24    2    5    5    0    0 -0.55817735833E+02 -0.60929372927E+02  0.13801916898E+02  0.11529643695E+03  0.79213429072E+02 0.  0.
          5    1    3    3  501    0 -0.44824708723E+02  0.26615446481E+01  0.25033868738E+02  0.51624828484E+02  0.47000000000E+01 0. -1.
        -11    1    4    4    0    0 -0.13287918871E+02  0.62911232263E+02 -0.59338278659E+00  0.64301975365E+02  0.00000000000E+00 0.  1.
         12    1    4    4    0    0  0.58878984755E+02  0.69394185499E+02 -0.48804161287E+02  0.10326729388E+03  0.00000000000E+00 0. -1.
         -5    1    5    5    0  502  0.55051378672E+02 -0.74037589483E+02  0.82909850908E+02  0.12413038439E+03  0.47000000000E+01 0.  1.
         13    1    6    6    0    0  0.52516017419E+01 -0.41264118076E+02  0.27272157217E+02  0.49740097715E+02  0.00000000000E+00 0. -1.
        -14    1    6    6    0    0 -0.61069337575E+02 -0.19665254851E+02 -0.13470240318E+02  0.65556339240E+02  0.00000000000E+00 0.  1.
</event>
<event>
12    1  0.9017558E-003  0.2066062E+03  0.7818608E-02  0.1144366E+00
         21   -1    0    0  501  502  0.00000000000E+00  0.00000000000E+00  0.95304734240E+02  0.95304734240E+02  0.00000000000E+00 0.  1.
         21   -1    0    0  502  503 -0.00000000000E+00 -0.00000000000E+00 -0.53958276464E+03  0.53958276464E+03  0.00000000000E+00 0.  1.
          6    2    1    2  501    0 -0.84788312512E+02  0.75966715127E+02 -0.90826754320E+02  0.22568924731E+03  0.17241269474E+03 0.  0.
         24    2    3    3    0    0 -0.39382790403E+02  0.56792550979E+02  0.17500867965E+02  0.10658310239E+03  0.79229283150E+02 0.  0.
         -6    2    1    2    0  503  0.84788312512E+02 -0.75966715127E+02 -0.35345127608E+03  0.40919825157E+03  0.17191685426E+03 0.  0.
        -24    2    5    5    0    0  0.10005880955E+03 -0.39373895920E+02 -0.13704179929E+03  0.18913604641E+03  0.73687992562E+02 0.  0.
          5    1    3    3  501    0 -0.45405522108E+02  0.19174164149E+02 -0.10832762229E+03  0.11910614492E+03  0.47000000000E+01 0. -1.
        -13    1    4    4    0    0 -0.45908877539E+02  0.38165354880E+01  0.25431256736E+02  0.52620716445E+02  0.00000000000E+00 0.  1.
         14    1    4    4    0    0  0.65260871362E+01  0.52976015490E+02 -0.79303887705E+01  0.53962385943E+02  0.00000000000E+00 0. -1.
         -5    1    5    5    0  503 -0.15270497038E+02 -0.36592819208E+02 -0.21640947679E+03  0.22006220516E+03  0.47000000000E+01 0.  1.
         11    1    6    6    0    0  0.80922749768E+02 -0.49916727652E+02 -0.13763146239E+03  0.16727997660E+03  0.00000000000E+00 0. -1.
        -12    1    6    6    0    0  0.19136059782E+02  0.10542831732E+02  0.58966310095E+00  0.21856069809E+02  0.00000000000E+00 0.  1.
</event>
<event>
12    1  0.9017558E-003  0.2010921E+03  0.7818608E-02  0.1149024E+00
         21   -1    0    0  501  502  0.00000000000E+00  0.00000000000E+00  0.65650411071E+03  0.65650411071E+03  0.00000000000E+00 0. -1.
         21   -1    0    0  502  503 -0.00000000000E+00 -0.00000000000E+00 -0.75118450820E+02  0.75118450820E+02  0.00000000000E+00 0. -1.
          6    2    1    2  501    0 -0.74598207718E+02  0.79515337168E+02  0.44816233512E+03  0.49121024790E+03  0.16896877693E+03 0.  0.
         24    2    3    3    0    0 -0.67431000488E+02  0.11354831200E+03  0.41546350564E+03  0.44324238693E+03  0.80085766969E+02 0.  0.
         -6    2    1    2    0  503  0.74598207718E+02 -0.79515337168E+02  0.13322332476E+03  0.24041231363E+03  0.16781550835E+03 0.  0.
        -24    2    5    5    0    0  0.94190182003E+02 -0.73405180023E+01  0.93410087824E+02  0.15555812214E+03  0.80914839589E+02 0.  0.
          5    1    3    3  501    0 -0.71672072296E+01 -0.34032974837E+02  0.32698829485E+02  0.47967860964E+02  0.47000000000E+01 0. -1.
        -11    1    4    4    0    0  0.73479828194E+01  0.38483507320E+02  0.54990260375E+02  0.67519641018E+02  0.00000000000E+00 0.  1.
         12    1    4    4    0    0 -0.74778983308E+02  0.75064804685E+02  0.36047324527E+03  0.37572274592E+03  0.00000000000E+00 0. -1.
         -5    1    5    5    0  503 -0.19591974285E+02 -0.72174819166E+02  0.39813236939E+02  0.84854191491E+02  0.47000000000E+01 0.  1.
         13    1    6    6    0    0  0.68313273861E+02  0.52599589504E+01  0.12454257996E+02  0.69638201412E+02  0.00000000000E+00 0. -1.
        -14    1    6    6    0    0  0.25876908143E+02 -0.12600476953E+02  0.80955829829E+02  0.85919920727E+02  0.00000000000E+00 0.  1.
</event>
<event>
12    1  0.9017558E-003  0.1866881E+03  0.7818608E-02  0.1161668E+00
         21   -1    0    0  503  502  0.00000000000E+00  0.00000000000E+00  0.22978189140E+03  0.22978189140E+03  0.00000000000E+00 0. -1.
         21   -1    0    0  501  503 -0.00000000000E+00 -0.00000000000E+00 -0.15472333752E+03  0.15472333752E+03  0.00000000000E+00 0. -1.
          6    2    1    2  501    0  0.24250726041E+02  0.63763555907E+02  0.67319197290E+02  0.19845479596E+03  0.17377727970E+03 0.  0.
         24    2    3    3    0    0  0.73495608692E+02  0.26173522071E+02  0.84200779295E+01  0.11284366717E+03  0.81093389089E+02 0.  0.
         -6    2    1    2    0  502 -0.24250726041E+02 -0.63763555907E+02  0.77393565924E+01  0.18605043295E+03  0.17291899024E+03 0.  0.
        -24    2    5    5    0    0 -0.10916811030E+02  0.30737963591E+02 -0.30073108482E+02  0.83287584646E+02  0.70487096221E+02 0.  0.
          5    1    3    3  501    0 -0.49244882651E+02  0.37590033836E+02  0.58899119361E+02  0.85611128789E+02  0.47000000000E+01 0.  1.
        -11    1    4    4    0    0  0.82568837343E+02  0.39665392731E+02 -0.50333990494E+01  0.91740347649E+02  0.00000000000E+00 0.  1.
         12    1    4    4    0    0 -0.90732286514E+01 -0.13491870660E+02  0.13453476979E+02  0.21103319523E+02  0.00000000000E+00 0. -1.
         -5    1    5    5    0  502 -0.13333915011E+02 -0.94501519498E+02  0.37812465074E+02  0.10276284831E+03  0.47000000000E+01 0.  1.
         13    1    6    6    0    0  0.85420255360E+01 -0.17618040385E+02 -0.23751295779E+02  0.30781254010E+02  0.00000000000E+00 0. -1.
        -14    1    6    6    0    0 -0.19458836566E+02  0.48356003976E+02 -0.63218127032E+01  0.52506330636E+02  0.00000000000E+00 0.  1.
</event>
<event>
12    1  0.9017558E-003  0.2248089E+03  0.7818608E-02  0.1130808E+00
         21   -1    0    0  503  502  0.00000000000E+00  0.00000000000E+00  0.35086221484E+03  0.35086221484E+03  0.00000000000E+00 0.  1.
         21   -1    0    0  501  503 -0.00000000000E+00 -0.00000000000E+00 -0.15004680636E+03  0.15004680636E+03  0.00000000000E+00 0.  1.
          6    2    1    2  501    0  0.79562073423E+02  0.11897036420E+03  0.15737087615E+03  0.27441691022E+03  0.17336371265E+03 0.  0.
         24    2    3    3    0    0  0.10964332391E+03  0.58895359302E+02  0.14147483395E+03  0.20521675124E+03  0.81292462880E+02 0.  0.
         -6    2    1    2    0  502 -0.79562073423E+02 -0.11897036420E+03  0.43444532332E+02  0.22649211099E+03  0.17007991611E+03 0.  0.
        -24    2    5    5    0    0 -0.10911230004E+03 -0.50551912647E+02  0.12769617616E+02  0.14576206206E+03  0.81378902112E+02 0.  0.
          5    1    3    3  501    0 -0.30081250491E+02  0.60075004902E+02  0.15896042207E+02  0.69200158981E+02  0.47000000000E+01 0. -1.
        -13    1    4    4    0    0  0.12184476670E+03  0.45676297973E+02  0.11815276434E+03  0.17576275797E+03  0.00000000000E+00 0.  1.
         14    1    4    4    0    0 -0.12201442785E+02  0.13219061329E+02  0.23322069610E+02  0.29453993266E+02  0.00000000000E+00 0. -1.
         -5    1    5    5    0  502  0.29550226621E+02 -0.68418451557E+02  0.30674914716E+02  0.80730048927E+02  0.47000000000E+01 0.  1.
         13    1    6    6    0    0 -0.67082318703E+02 -0.24901800844E+02  0.47163755904E+02  0.85700391125E+02  0.00000000000E+00 0. -1.
        -14    1    6    6    0    0 -0.42029981342E+02 -0.25650111803E+02 -0.34394138289E+02  0.60061670937E+02  0.00000000000E+00 0.  1.
</event>
<event>
12    1  0.9017558E-003  0.2322108E+03  0.7818608E-02  0.1125233E+00
         21   -1    0    0  503  502  0.00000000000E+00  0.00000000000E+00  0.17113095530E+03  0.17113095530E+03  0.00000000000E+00 0. -1.
         21   -1    0    0  501  503 -0.00000000000E+00 -0.00000000000E+00 -0.34103326701E+03  0.34103326701E+03  0.00000000000E+00 0.  1.
          6    2    1    2  501    0 -0.13223608031E+03 -0.83423961849E+02 -0.15690822851E+03  0.27959013003E+03  0.17060044046E+03 0.  0.
         24    2    3    3    0    0 -0.16450574440E+03 -0.68055972557E+02 -0.12225937657E+03  0.22958873749E+03  0.77909421010E+02 0.  0.
         -6    2    1    2    0  502  0.13223608031E+03  0.83423961849E+02 -0.12994083196E+02  0.23257409229E+03  0.17168553771E+03 0.  0.
        -24    2    5    5    0    0  0.12627627473E+03  0.15708090303E+02 -0.46054207841E+02  0.15683757281E+03  0.79275421938E+02 0.  0.
          5    1    3    3  501    0  0.32269664083E+02 -0.15367989292E+02 -0.34648851938E+02  0.50001392536E+02  0.47000000000E+01 0. -1.
        -11    1    4    4    0    0 -0.36538648501E+02 -0.32718856883E+02 -0.73085832133E+02  0.88017812337E+02  0.00000000000E+00 0.  1.
         12    1    4    4    0    0 -0.12796709589E+03 -0.35337115674E+02 -0.49173544441E+02  0.14157092515E+03  0.00000000000E+00 0. -1.
         -5    1    5    5    0  502  0.59598055843E+01  0.67715871546E+02  0.33060124646E+02  0.75736519483E+02  0.47000000000E+01 0.  1.
         13    1    6    6    0    0  0.85518619114E+02  0.39961347332E+02 -0.57025890601E+01  0.94566711997E+02  0.00000000000E+00 0. -1.
        -14    1    6    6    0    0  0.40757655613E+02 -0.24253257029E+02 -0.40351618781E+02  0.62270860809E+02  0.00000000000E+00 0.  1.
</event>
<event>
12    1  0.9017558E-003  0.2932120E+03  0.7818608E-02  0.1088897E+00
         21   -1    0    0  501  502  0.00000000000E+00  0.00000000000E+00  0.52150680538E+03  0.52150680538E+03  0.00000000000E+00 0. -1.
         21   -1    0    0  502  503 -0.00000000000E+00 -0.00000000000E+00 -0.16573703467E+03  0.16573703467E+03  0.00000000000E+00 0.  1.
          6    2    1    2  501    0 -0.23749229004E+03 -0.86104487455E+01  0.14247081556E+03  0.32599267756E+03  0.17174564006E+03 0.  0.
         24    2    3    3    0    0 -0.55561124888E+02 -0.42034534215E+02  0.31814390018E+02  0.11039338986E+03  0.79502229194E+02 0.  0.
         -6    2    1    2    0  503  0.23749229004E+03  0.86104487455E+01  0.21329895515E+03  0.36125116249E+03  0.16890598117E+03 0.  0.
        -24    2    5    5    0    0  0.78423915865E+02  0.17923084832E+02  0.15829966133E+03  0.19261995193E+03  0.74646604456E+02 0.  0.
          5    1    3    3  501    0 -0.18193116515E+03  0.33424085469E+02  0.11065642554E+03  0.21559928770E+03  0.47000000000E+01 0. -1.
        -11    1    4    4    0    0 -0.47083591210E+02 -0.53124689876E+02 -0.48594301413E+01  0.71152732181E+02  0.00000000000E+00 0.  1.
         12    1    4    4    0    0 -0.84775336786E+01  0.11090155661E+02  0.36673820159E+02  0.39240657677E+02  0.00000000000E+00 0. -1.
         -5    1    5    5    0  503  0.15906837417E+03 -0.93126360868E+01  0.54999293828E+02  0.16863121056E+03  0.47000000000E+01 0.  1.
         13    1    6    6    0    0  0.68550046724E+02  0.44247716727E+02  0.11991409588E+03  0.14503916620E+03  0.00000000000E+00 0. -1.
        -14    1    6    6    0    0  0.98738691406E+01 -0.26324631895E+02  0.38385565442E+02  0.47580785728E+02  0.00000000000E+00 0.  1.
</event>
<event>
12    1  0.9017558E-003  0.1783151E+03  0.7818608E-02  0.1169504E+00
         21   -1    0    0  503  502  0.00000000000E+00  0.00000000000E+00  0.35807920415E+03  0.35807920415E+03  0.00000000000E+00 0.  1.
         21   -1    0    0  501  503 -0.00000000000E+00 -0.00000000000E+00 -0.88678013639E+02  0.88678013639E+02  0.00000000000E+00 0. -1.
          6    2    1    2  501    0  0.99312517678E+01  0.46617135335E+02  0.13637035264E+03  0.22448419484E+03  0.17182692916E+03 0.  0.
         24    2    3    3    0    0  0.12700984064E+02  0.17800258789E+02  0.16378026853E+03  0.18434098521E+03  0.81727952747E+02 0.  0.
         -6    2    1    2    0  502 -0.99312517678E+01 -0.46617135335E+02  0.13303083787E+03  0.22227302294E+03  0.17157011930E+03 0.  0.
        -24    2    5    5    0    0 -0.51235558836E+01  0.70742212264E+01 -0.13911595018E+01  0.77368781855E+02  0.76861548580E+02 0.  0.
          5    1    3    3  501    0 -0.27697322960E+01  0.28816876546E+02 -0.27409915884E+02  0.40143209633E+02  0.47000000000E+01 0. -1.
        -11    1    4    4    0    0  0.21660973877E+02  0.46331376774E+02  0.12716936845E+03  0.13706875113E+03  0.00000000000E+00 0.  1.
         12    1    4    4    0    0 -0.89599898128E+01 -0.28531117984E+02  0.36610900074E+02  0.47272234082E+02  0.00000000000E+00 0. -1.
         -5    1    5    5    0  502 -0.48076958842E+01 -0.53691356562E+02  0.13442199737E+03  0.14490424109E+03  0.47000000000E+01 0.  1.
         11    1    6    6    0    0 -0.39909051459E+02  0.88778150052E+01  0.71490172269E+01  0.41504896517E+02  0.00000000000E+00 0. -1.
        -12    1    6    6    0    0  0.34785495575E+02 -0.18035937787E+01 -0.85401767287E+01  0.35863885337E+02  0.00000000000E+00 0.  1.
</event>
<event>
12    1  0.9017558E-003  0.2220689E+03  0.7818608E-02  0.1132901E+00
         21   -1    0    0  501  502  0.00000000000E+00  0.00000000000E+00  0.64941436990E+03  0.64941436990E+03  0.00000000000E+00 0. -1.
         21   -1    0    0  502  503 -0.00000000000E+00 -0.00000000000E+00 -0.76091032335E+02  0.76091032335E+02  0.00000000000E+00 0. -1.
          6    2    1    2  501    0  0.13148592914E+03  0.45439982731E+02  0.24364068648E+03  0.32965946472E+03  0.17309314538E+03 0.  0.
         24    2    3    3    0    0  0.55655739577E+02 -0.37837307659E+02  0.87471077281E+02  0.13705530697E+03  0.81263427257E+02 0.  0.
         -6    2    1    2    0  503 -0.13148592914E+03 -0.45439982731E+02  0.32968265109E+03  0.39584593752E+03  0.16926315083E+03 0.  0.
        -24    2    5    5    0    0 -0.68279184360E+02 -0.66687385233E+02  0.29539037354E+03  0.32071541776E+03  0.80583199525E+02 0.  0.
          5    1    3    3  501    0  0.75830189567E+02  0.83277290391E+02  0.15616960920E+03  0.19260415775E+03  0.47000000000E+01 0. -1.
        -13    1    4    4    0    0  0.36888448086E+02 -0.12981136708E+02  0.96916789405E+02  0.10450900239E+03  0.00000000000E+00 0.  1.
         14    1    4    4    0    0  0.18767291491E+02 -0.24856170951E+02 -0.94457121237E+01  0.32546304579E+02  0.00000000000E+00 0. -1.
         -5    1    5    5    0  503 -0.63206744784E+02  0.21247402501E+02  0.34292277552E+02  0.75130519757E+02  0.47000000000E+01 0.  1.
         13    1    6    6    0    0 -0.69469420728E+01 -0.10413340588E+02  0.16847568136E+03  0.16894008665E+03  0.00000000000E+00 0. -1.
        -14    1    6    6    0    0 -0.61332242287E+02 -0.56274044645E+02  0.12691469217E+03  0.15177533111E+03  0.00000000000E+00 0.  1.
</event>
<event>
12    1  0.9017558E-003  0.2086162E+03  0.7818608E-02  0.1142834E+00
         21   -1    0    0  503  502  0.00000000000E+00  0.00000000000E+00  0.14621752768E+03  0.14621752768E+03  0.00000000000E+00 0. -1.
         21   -1    0    0  501  503 -0.00000000000E+00 -0.00000000000E+00 -0.48859789689E+03  0.48859789689E+03  0.00000000000E+00 0.  1.
          6    2    1    2  501    0 -0.28106937897E+02 -0.11628239095E+03 -0.37003007307E+03  0.42437487572E+03  0.16988285895E+03 0.  0.
         24    2    3    3    0    0 -0.42191365744E+02 -0.66968695071E+02 -0.35224563319E+03  0.36989012546E+03  0.80478576953E+02 0.  0.
         -6    2    1    2    0  502  0.28106937897E+02  0.11628239095E+03  0.27649703860E+02  0.21044054886E+03  0.17090677013E+03 0.  0.
        -24    2    5    5    0    0  0.27105567775E+02  0.11244185085E+03  0.77948680992E+02  0.15976679242E+03  0.77920148013E+02 0.  0.
          5    1    3    3  501    0  0.14084427847E+02 -0.49313695879E+02 -0.17784439877E+02  0.54484750258E+02  0.47000000000E+01 0. -1.
        -11    1    4    4    0    0 -0.29098173828E+02 -0.67810343889E+01 -0.32020900412E+02  0.43795253290E+02  0.00000000000E+00 0.  1.
         12    1    4    4    0    0 -0.13093191916E+02 -0.60187660683E+02 -0.32022473278E+03  0.32609487217E+03  0.00000000000E+00 0. -1.
         -5    1    5    5    0  502  0.10013701226E+01  0.38405401004E+01 -0.50298977132E+02  0.50673756431E+02  0.47000000000E+01 0.  1.
         13    1    6    6    0    0  0.47960155741E+02  0.77895601877E+02  0.76729233977E+02  0.11939546339E+03  0.00000000000E+00 0. -1.
        -14    1    6    6    0    0 -0.20854587966E+02  0.34546248973E+02  0.12194470151E+01  0.40371329039E+02  0.00000000000E+00 0.  1.
</event>
<event>
12    1  0.9017558E-003  0.2257085E+03  0.7818608E-02  0.1129845E+00
         21   -1    0    0  503  502  0.00000000000E+00  0.00000000000E+00  0.26122933276E+03  0.26122933276E+03  0.00000000000E+00 0.  1.
         21   -1    0    0  501  503 -0.00000000000E+00 -0.00000000000E+00 -0.20616098388E+03  0.20616098388E+03  0.00000000000E+00 0.  1.
          6    2    1    2  501    0 -0.63182872583E+02 -0.13113907119E+03 -0.28537919693E+02  0.22669481779E+03  0.17142519119E+03 0.  0.
         24    2    3    3    0    0 -0.29845259449E+02 -0.40975249785E+02 -0.74327212465E+02  0.12011310983E+03  0.79579608153E+02 0.  0.
         -6    2    1    2    0  502  0.63182872583E+02  0.13113907119E+03  0.83606268566E+02  0.24069549885E+03  0.17249574963E+03 0.  0.
        -24    2    5    5    0    0  0.57922296853E+02  0.13272340408E+02  0.92453329035E+01  0.10115382538E+03  0.81335556281E+02 0.  0.
          5    1    3    3  501    0 -0.33337613134E+02 -0.90163821405E+02  0.45789292772E+02  0.10658170796E+03  0.47000000000E+01 0. -1.
        -11    1    4    4    0    0 -0.28987106472E+02  0.13154129095E+02 -0.51100458087E+01  0.32239665352E+02  0.00000000000E+00 0.  1.
         12    1    4    4    0    0 -0.85815297722E+00 -0.54129378880E+02 -0.69217166656E+02  0.87873444478E+02  0.00000000000E+00 0. -1.
         -5    1    5    5    0  502  0.52605757300E+01  0.11786673078E+03  0.74360935663E+02  0.13954167347E+03  0.47000000000E+01 0.  1.
         11    1    6    6    0    0  0.17284752528E+02  0.14735098239E+02 -0.34578019828E+02  0.41370584300E+02  0.00000000000E+00 0. -1.
        -12    1    6    6    0    0  0.40637544324E+02 -0.14627578314E+01  0.43823352731E+02  0.59783241078E+02  0.00000000000E+00 0.  1.
</event>
<event>
12    1  0.9017558E-003  0.5276446E+03  0.7818608E-02  0.1006820E+00
         21   -1    0    0  501  502  0.00000000000E+00  0.00000000000E+00  0.23943993180E+04  0.23943993180E+04  0.00000000000E+00 0. -1.
         21   -1    0    0  502  503 -0.00000000000E+00 -0.00000000000E+00 -0.20560718254E+03  0.20560718254E+03  0.00000000000E+00 0.  1.
          6    2    1    2  501    0 -0.41344306881E+03  0.27845149290E+03  0.19517013646E+04  0.20217682900E+04  0.17302715681E+03 0.  0.
         24    2    3    3    0    0 -0.25372911553E+03  0.20250097295E+03  0.10197769485E+04  0.10731997708E+04  0.80172409615E+02 0.  0.
         -6    2    1    2    0  503  0.41344306881E+03 -0.27845149290E+03  0.23709077086E+03  0.57823821050E+03  0.17227010596E+03 0.  0.
        -24    2    5    5    0    0  0.16326500201E+03 -0.12578519271E+03  0.16701399847E+03  0.27685986299E+03  0.79248548635E+02 0.  0.
          5    1    3    3  501    0 -0.15971395328E+03  0.75950519944E+02  0.93192441607E+03  0.94856851920E+03  0.47000000000E+01 0. -1.
        -11    1    4    4    0    0 -0.32727499209E+02 -0.75439545802E+00  0.13298221132E+03  0.13695227944E+03  0.00000000000E+00 0.  1.
         12    1    4    4    0    0 -0.22100161632E+03  0.20325536841E+03  0.88679473717E+03  0.93624749136E+03  0.00000000000E+00 0. -1.
         -5    1    5    5    0  503  0.25017806679E+03 -0.15266630018E+03  0.70076772386E+02  0.30137834750E+03  0.47000000000E+01 0.  1.
         13    1    6    6    0    0  0.35594474889E+02  0.70828839884E+01  0.32536185007E+02  0.48741534886E+02  0.00000000000E+00 0. -1.
        -14    1    6    6    0    0  0.12767052712E+03 -0.13286807670E+03  0.13447781347E+03  0.22811832811E+03  0.00000000000E+00 0.  1.
</event>
<event>
12    1  0.9017558E-003  0.1943102E+03  0.7818608E-02  0.1154707E+00
         21   -1    0    0  503  502  0.00000000000E+00  0.00000000000E+00  0.10818513073E+03  0.10818513073E+03  0.00000000000E+00 0. -1.
         21   -1    0    0  501  503 -0.00000000000E+00 -0.00000000000E+00 -0.60520989503E+03  0.60520989503E+03  0.00000000000E+00 0. -1.
          6    2    1    2  501    0  0.12933590073E+01  0.89790037676E+02 -0.48075173769E+03  0.51840458819E+03  0.17192195937E+03 0.  0.
         24    2    3    3    0    0 -0.13724216695E+02  0.13691490161E+02 -0.39173100078E+03  0.40023818808E+03  0.79759759259E+02 0.  0.
         -6    2    1    2    0  502 -0.12933590073E+01 -0.89790037676E+02 -0.16273026609E+02  0.19499043757E+03  0.17231522192E+03 0.  0.
        -24    2    5    5    0    0  0.59664687434E+02 -0.41640121508E+02 -0.39023678694E+02  0.11391035356E+03  0.78478955798E+02 0.  0.
          5    1    3    3  501    0  0.15017575703E+02  0.76098547515E+02 -0.89020736912E+02  0.11816640011E+03  0.47000000000E+01 0. -1.
        -11    1    4    4    0    0  0.19069559056E+02  0.14521390027E+01 -0.23280322110E+02  0.30128560998E+02  0.00000000000E+00 0.  1.
         12    1    4    4    0    0 -0.32793775751E+02  0.12239351158E+02 -0.36845067867E+03  0.37010962708E+03  0.00000000000E+00 0. -1.
         -5    1    5    5    0  502 -0.60958046442E+02 -0.48149916168E+02  0.22750652085E+02  0.81080084011E+02  0.47000000000E+01 0.  1.
         13    1    6    6    0    0 -0.18487057754E+02 -0.76909839575E+01 -0.16046712685E+02  0.25659686800E+02  0.00000000000E+00 0. -1.
        -14    1    6    6    0    0  0.78151745188E+02 -0.33949137551E+02 -0.22976966008E+02  0.88250666759E+02  0.00000000000E+00 0.  1.
</event>
<event>
12    1  0.9017558E-003  0.2109553E+03  0.7818608E-02  0.1141054E+00
         21   -1    0    0  501  502  0.00000000000E+00  0.00000000000E+00  0.41936426555E+02  0.41936426555E+02  0.00000000000E+00 0.  1.
         21   -1    0    0  502  503 -0.00000000000E+00 -0.00000000000E+00 -0.13250079715E+04  0.13250079715E+04  0.00000000000E+00 0. -1.
          6    2    1    2  501    0 -0.11532730982E+03 -0.35074301248E+02 -0.33450789121E+03  0.39547146784E+03  0.17312295514E+03 0.  0.
         24    2    3    3    0    0 -0.13027867316E+03 -0.51453074475E+02 -0.18419672555E+03  0.24346046823E+03  0.75661181191E+02 0.  0.
         -6    2    1    2    0  503  0.11532730982E+03  0.35074301248E+02 -0.94856365369E+03  0.97147293017E+03  0.17162766080E+03 0.  0.
        -24    2    5    5    0    0  0.88356137552E+02 -0.39721564878E+02 -0.67413638843E+03  0.68572080044E+03  0.79803108962E+02 0.  0.
          5    1    3    3  501    0  0.14951363339E+02  0.16378773227E+02 -0.15031116566E+03  0.15201099961E+03  0.47000000000E+01 0. -1.
        -11    1    4    4    0    0 -0.12709814836E+03 -0.22921525416E+02 -0.13747193508E+03  0.18862096538E+03  0.00000000000E+00 0.  1.
         12    1    4    4    0    0 -0.31805247912E+01 -0.28531549060E+02 -0.46724790463E+02  0.54839502856E+02  0.00000000000E+00 0. -1.
         -5    1    5    5    0  503  0.26971172264E+02  0.74795866126E+02 -0.27442726526E+03  0.28575212972E+03  0.47000000000E+01 0.  1.
         13    1    6    6    0    0  0.88009650006E+02 -0.83318080230E+01 -0.39206773673E+03  0.40191072106E+03  0.00000000000E+00 0. -1.
        -14    1    6    6    0    0  0.34648754687E+00 -0.31389756855E+02 -0.28206865170E+03  0.28381007939E+03  0.00000000000E+00 0.  1.
</event>
<event>
12    1  0.9017558E-003  0.2063255E+03  0.7818608E-02  0.1145070E+00
         21   -1    0    0  501  502  0.00000000000E+00  0.00000000000E+00  0.44585494196E+03  0.44585494196E+03  0.00000000000E+00 0.  1.
         21   -1    0    0  502  503 -0.00000000000E+00 -0.00000000000E+00 -0.97455227064E+02  0.97455227064E+02  0.00000000000E+00 0.  1.
          6    2    1    2  501    0  0.43394688665E+02 -0.10199830786E+03  0.22487712229E+03  0.30518832337E+03  0.17402137450E+03 0.  0.
         24    2    3    3    0    0  0.61161479318E+02 -0.86175089523E+02  0.23987029314E+03  0.27667660190E+03  0.88573765318E+02 0.  0.
         -6    2    1    2    0  503 -0.43394688665E+02  0.10199830786E+03  0.12352259261E+03  0.23812184566E+03  0.17075546458E+03 0.  0.
        -24    2    5    5    0    0 -0.10256939269E+02  0.57016476032E+02  0.15024329804E+03  0.17601257318E+03  0.71072455766E+02 0.  0.
          5    1    3    3  501    0 -0.17766790653E+02 -0.15823218337E+02 -0.14993170854E+02  0.28511721465E+02  0.47000000000E+01 0. -1.
        -11    1    4    4    0    0  0.27922044336E+02 -0.53651350200E+02  0.42549370217E+02  0.73949691305E+02  0.00000000000E+00 0.  1.
         12    1    4    4    0    0  0.33239434982E+02 -0.32523739323E+02  0.19732092292E+03  0.20272691060E+03  0.00000000000E+00 0. -1.
         -5    1    5    5    0  503 -0.33137749396E+02  0.44981831828E+02 -0.26720705426E+02  0.62109272481E+02  0.47000000000E+01 0.  1.
         11    1    6    6    0    0 -0.13051790387E+02  0.13331513111E+00  0.97562773417E+02  0.98432015940E+02  0.00000000000E+00 0. -1.
        -12    1    6    6    0    0  0.27948511174E+01  0.56883160901E+02  0.52680524624E+02  0.77580557239E+02  0.00000000000E+00 0.  1.
</event>
<event>
12    1  0.9017558E-003  0.2752872E+03  0.7818608E-02  0.1098462E+00
         21   -1    0    0  503  502  0.00000000000E+00  0.00000000000E+00  0.33459142968E+03  0.33459142968E+03  0.00000000000E+00 0. -1.
         21   -1    0    0  501  503 -0.00000000000E+00 -0.00000000000E+00 -0.22626604235E+03  0.22626604235E+03  0.00000000000E+00 0. -1.
          6    2    1    2  501    0 -0.15242698725E+03 -0.14925476113E+03  0.37842338879E+02  0.27787601115E+03  0.17398869159E+03 0.  0.
         24    2    3    3    0    0 -0.12986866798E+03 -0.32342098848E+02  0.29204782130E+02  0.15840155465E+03  0.79537732788E+02 0.  0.
         -6    2    1    2    0  502  0.15242698725E+03  0.14925476113E+03  0.70483048452E+02  0.28298146088E+03  0.17204556641E+03 0.  0.
        -24    2    5    5    0    0  0.89029607677E+01  0.35041514843E+02  0.37431379810E+02  0.96545641887E+02  0.81319015611E+02 0.  0.
          5    1    3    3  501    0 -0.22558319270E+02 -0.11691266228E+03  0.86375567485E+01  0.11947445650E+03  0.47000000000E+01 0. -1.
        -11    1    4    4    0    0 -0.84112955353E+02 -0.58879850716E+02  0.22189294465E+02  0.10504375692E+03  0.00000000000E+00 0.  1.
         12    1    4    4    0    0 -0.45755712622E+02  0.26537751868E+02  0.70154876650E+01  0.53357797733E+02  0.00000000000E+00 0. -1.
         -5    1    5    5    0  502  0.14352402648E+03  0.11421324628E+03  0.33051668642E+02  0.18643581899E+03  0.47000000000E+01 0.  1.
         13    1    6    6    0    0  0.36898378409E+02  0.33903980254E+02  0.45185762262E+02  0.67473871369E+02  0.00000000000E+00 0. -1.
        -14    1    6    6    0    0 -0.27995417641E+02  0.11375345887E+01 -0.77543824525E+01  0.29071770518E+02  0.00000000000E+00 0.  1.
</event>
<event>
12    1  0.9017558E-003  0.1909754E+03  0.7818608E-02  0.1159221E+00
         21   -1    0    0  503  502  0.00000000000E+00  0.00000000000E+00  0.55387199665E+03  0.55387199665E+03  0.00000000000E+00 0. -1.
         21   -1    0    0  501  503 -0.00000000000E+00 -0.00000000000E+00 -0.69063900208E+02  0.69063900208E+02  0.00000000000E+00 0.  1.
          6    2    1    2  501    0 -0.45466104060E+02  0.65601191209E+02  0.14900392199E+03  0.23662509282E+03  0.16558557569E+03 0.  0.
         24    2    3    3    0    0 -0.14002550854E+02  0.27663715442E+02  0.63247012276E+01  0.85599739697E+02  0.79535910180E+02 0.  0.
         -6    2    1    2    0  502  0.45466104060E+02 -0.65601191209E+02  0.33580417445E+03  0.38631080404E+03  0.17349614069E+03 0.  0.
        -24    2    5    5    0    0 -0.50538851444E+01 -0.95536530584E+02  0.17395813667E+03  0.21407659199E+03  0.80091094985E+02 0.  0.
          5    1    3    3  501    0 -0.31463553206E+02  0.37937475767E+02  0.14267922077E+03  0.15102535312E+03  0.47000000000E+01 0. -1.
        -13    1    4    4    0    0  0.32943421434E+02  0.16570155247E+02 -0.50700573323E+00  0.36879480955E+02  0.00000000000E+00 0.  1.
         14    1    4    4    0    0 -0.46945972288E+02  0.11093560194E+02  0.68317069608E+01  0.48720258742E+02  0.00000000000E+00 0. -1.
         -5    1    5    5    0  502  0.50519989204E+02  0.29935339376E+02  0.16184603778E+03  0.17223421204E+03  0.47000000000E+01 0.  1.
         13    1    6    6    0    0 -0.38176901444E+02 -0.63586457459E+02  0.77881310590E+02  0.10754632451E+03  0.00000000000E+00 0. -1.
        -14    1    6    6    0    0  0.33123016299E+02 -0.31950073125E+02  0.96076826078E+02  0.10653026749E+03  0.00000000000E+00 0.  1.
</event>
<event>
12    1  0.9017558E-003  0.1803668E+03  0.7818608E-02  0.1169072E+00
         21   -1    0    0  503  502  0.00000000000E+00  0.00000000000E+00  0.67924520146E+02  0.67924520146E+02  0.00000000000E+00 0.  1.
         21   -1    0    0  501  503 -0.00000000000E+00 -0.00000000000E+00 -0.69379607749E+03  0.69379607749E+03  0.00000000000E+00 0.  1.
          6    2    1    2  501    0  0.50934337035E+02 -0.14537207686E+02 -0.52936677267E+03  0.55715926350E+03  0.16550416250E+03 0.  0.
         24    2    3    3    0    0 -0.10497767393E+02 -0.40466051605E+02 -0.19250058849E+03  0.21372495473E+03  0.82910646190E+02 0.  0.
         -6    2    1    2    0  502 -0.50934337035E+02  0.14537207686E+02 -0.96504784681E+02  0.20456133414E+03  0.17241383025E+03 0.  0.
        -24    2    5    5    0    0 -0.94324446979E+02 -0.17357467168E+02 -0.78268010509E+02  0.14751186563E+03  0.80221481332E+02 0.  0.
          5    1    3    3  501    0  0.61432104428E+02  0.25928843919E+02 -0.33686618418E+03  0.34343430878E+03  0.47000000000E+01 0. -1.
        -13    1    4    4    0    0  0.25038590449E+02 -0.65393008731E+01 -0.13776011471E+03  0.14016969242E+03  0.00000000000E+00 0.  1.
         14    1    4    4    0    0 -0.35536357842E+02 -0.33926750732E+02 -0.54740473782E+02  0.73555262312E+02  0.00000000000E+00 0. -1.
         -5    1    5    5    0  502  0.43390109944E+02  0.31894674854E+02 -0.18236774172E+02  0.57049468510E+02  0.47000000000E+01 0.  1.
         11    1    6    6    0    0 -0.71805784413E+02 -0.44836120793E+02 -0.72627938184E+02  0.11153997404E+03  0.00000000000E+00 0. -1.
        -12    1    6    6    0    0 -0.22518662567E+02  0.27478653625E+02 -0.56400723249E+01  0.35971891591E+02  0.00000000000E+00 0.  1.
</event>
<event>
12    1  0.9017558E-003  0.2000035E+03  0.7818608E-02  0.1151743E+00
         21   -1    0    0  501  502  0.00000000000E+00  0.00000000000E+00  0.67350111009E+02  0.67350111009E+02  0.00000000000E+00 0. -1.
         21   -1    0    0  502  503 -0.00000000000E+00 -0.00000000000E+00 -0.61719639422E+03  0.61719639422E+03  0.00000000000E+00 0. -1.
          6    2    1    2  501    0 -0.85537013671E+02  0.80954049462E+01 -0.18304287993E+03  0.27112004495E+03  0.18060804687E+03 0.  0.
         24    2    3    3    0    0  0.38741929691E+01  0.45903599378E+02 -0.68951353605E+02  0.12124413022E+03  0.88451682526E+02 0.  0.
         -6    2    1    2    0  503  0.85537013671E+02 -0.80954049462E+01 -0.36680340328E+03  0.41342646027E+03  0.17027796424E+03 0.  0.
        -24    2    5    5    0    0  0.26787234865E+02  0.57616079796E+01 -0.33450262168E+03  0.34480442439E+03  0.79040085329E+02 0.  0.
          5    1    3    3  501    0 -0.89411206640E+02 -0.37808194432E+02 -0.11409152632E+03  0.14987591473E+03  0.47000000000E+01 0. -1.
        -11    1    4    4    0    0 -0.26063680248E+02 -0.11086944026E+02 -0.20463365198E+01  0.28397592311E+02  0.00000000000E+00 0.  1.
         12    1    4    4    0    0  0.29937873218E+02  0.56990543404E+02 -0.66905017085E+02  0.92846537908E+02  0.00000000000E+00 0. -1.
         -5    1    5    5    0  503  0.58749778806E+02 -0.13857012926E+02 -0.32300781604E+02  0.68622035886E+02  0.47000000000E+01 0.  1.
         11    1    6    6    0    0  0.91000868602E+01 -0.19416335241E+02 -0.21753679845E+02  0.30545510993E+02  0.00000000000E+00 0. -1.
        -12    1    6    6    0    0  0.17687148005E+02  0.25177943220E+02 -0.31274894183E+03  0.31425891339E+03  0.00000000000E+00 0.  1.
</event>
<event>
12    1  0.9017558E-003  0.2092376E+03  0.7818608E-02  0.1143927E+00
         21   -1    0    0  503  502  0.00000000000E+00  0.00000000000E+00  0.54511460036E+02  0.54511460036E+02  0.00000000000E+00 0.  1.
         21   -1    0    0  501  503 -0.00000000000E+00 -0.00000000000E+00 -0.77347024335E+03  0.77347024335E+03  0.00000000000E+00 0.  1.
          6    2    1    2  501    0 -0.79790790430E+02  0.82271565712E+02 -0.37821143763E+03  0.42812033274E+03  0.16464491184E+03 0.  0.
         24    2    3    3    0    0  0.13816200122E+02  0.21321147503E+02 -0.11480418423E+03  0.14196881116E+03  0.79559184953E+02 0.  0.
         -6    2    1    2    0  502  0.79790790430E+02 -0.82271565712E+02 -0.34074734568E+03  0.39986137064E+03  0.17505765158E+03 0.  0.
        -24    2    5    5    0    0  0.50356829794E+01 -0.24430500396E+02 -0.59908882838E+02  0.10350643624E+03  0.80636844235E+02 0.  0.
          5    1    3    3  501    0 -0.93606990552E+02  0.60950418209E+02 -0.26340725340E+03  0.28615152158E+03  0.47000000000E+01 0. -1.
        -11    1    4    4    0    0  0.33952713608E+01 -0.96342302129E+01 -0.10815522744E+03  0.10863654763E+03  0.00000000000E+00 0.  1.
         12    1    4    4    0    0  0.10420928761E+02  0.30955377716E+02 -0.66489567908E+01  0.33332263532E+02  0.00000000000E+00 0. -1.
         -5    1    5    5    0  502  0.74755107451E+02 -0.57841065316E+02 -0.28083846284E+03  0.29635493439E+03  0.47000000000E+01 0.  1.
         13    1    6    6    0    0 -0.17536667801E+02  0.23120609622E+02 -0.34428261057E+02  0.45026686157E+02  0.00000000000E+00 0. -1.
        -14    1    6    6    0    0  0.22572350781E+02 -0.47551110018E+02 -0.25480621780E+02  0.58479750085E+02  0.00000000000E+00 0.  1.
</event>
<event>
12    1  0.9017558E-003  0.2288719E+03  0.7818608E-02  0.1127438E+00
         21   -1    0    0  501  502  0.00000000000E+00  0.00000000000E+00  0.19602703964E+03  0.19602703964E+03  0.00000000000E+00 0.  1.
         21   -1    0    0  502  503 -0.00000000000E+00 -0.00000000000E+00 -0.27110448179E+03  0.27110448179E+03  0.00000000000E+00 0.  1.
          6    2    1    2  501    0 -0.19637985619E+02  0.15051119737E+03 -0.95399541919E+01  0.22906110394E+03  0.17128545648E+03 0.  0.
         24    2    3    3    0    0  0.35521618221E+02  0.32711866328E+02 -0.26102938960E+02  0.97852541895E+02  0.81005586062E+02 0.  0.
         -6    2    1    2    0  503  0.19637985619E+02 -0.15051119737E+03 -0.65537487954E+02  0.23807041749E+03  0.17129824968E+03 0.  0.
        -24    2    5    5    0    0  0.56892216168E+02 -0.15452725487E+03 -0.21414704198E+02  0.17999360234E+03  0.69452937800E+02 0.  0.
          5    1    3    3  501    0 -0.55159603840E+02  0.11779933105E+03  0.16562984768E+02  0.13120856205E+03  0.47000000000E+01 0. -1.
        -13    1    4    4    0    0  0.38928548126E+02  0.49984682697E+02 -0.40427975907E+02  0.75155316509E+02  0.00000000000E+00 0.  1.
         14    1    4    4    0    0 -0.34069299053E+01 -0.17272816369E+02  0.14325036947E+02  0.22697225386E+02  0.00000000000E+00 0. -1.
         -5    1    5    5    0  503 -0.37254230550E+02  0.40160574982E+01 -0.44122783756E+02  0.58076815151E+02  0.47000000000E+01 0.  1.
         11    1    6    6    0    0  0.33653844956E+02 -0.13504775177E+03 -0.39515940918E+02  0.14467890698E+03  0.00000000000E+00 0. -1.
        -12    1    6    6    0    0  0.23238371213E+02 -0.19479503106E+02  0.18101236720E+02  0.35314695364E+02  0.00000000000E+00 0.  1.
</event>
<event>
12    1  0.9017558E-003  0.3083032E+03  0.7818608E-02  0.1081320E+00
         21   -1    0    0  501  502  0.00000000000E+00  0.00000000000E+00  0.73715139803E+03  0.73715139803E+03  0.00000000000E+00 0.  1.
         21   -1    0    0  502  503 -0.00000000000E+00 -0.00000000000E+00 -0.13158123044E+03  0.13158123044E+03  0.00000000000E+00 0. -1.
          6    2    1    2  501    0  0.24721777434E+03 -0.62172338022E+02  0.23586517545E+03  0.38817941144E+03  0.17340371077E+03 0.  0.
         24    2    3    3    0    0  0.53469504399E+02 -0.44227707133E+02  0.13001585276E+03  0.16662451757E+03  0.77746574897E+02 0.  0.
         -6    2    1    2    0  503 -0.24721777434E+03  0.62172338022E+02  0.36970499214E+03  0.48055321703E+03  0.17107771808E+03 0.  0.
        -24    2    5    5    0    0 -0.11800644911E+03  0.72551241623E+02  0.28088177853E+03  0.32334335257E+03  0.80418564092E+02 0.  0.
          5    1    3    3  501    0  0.19374826994E+03 -0.17944630889E+02  0.10584932270E+03  0.22155489387E+03  0.47000000000E+01 0. -1.
        -11    1    4    4    0    0  0.17922829899E+02  0.14953178464E+02  0.50861794276E+01  0.23889215117E+02  0.00000000000E+00 0.  1.
         12    1    4    4    0    0  0.35546674500E+02 -0.59180885597E+02  0.12492967333E+03  0.14273530245E+03  0.00000000000E+00 0. -1.
         -5    1    5    5    0  503 -0.12921132523E+03 -0.10378903601E+02  0.88823213609E+02  0.15720986446E+03  0.47000000000E+01 0.  1.
         11    1    6    6    0    0 -0.28741374354E+02  0.32236754464E+02  0.26291793597E+02  0.50562173101E+02  0.00000000000E+00 0. -1.
        -12    1    6    6    0    0 -0.89265074753E+02  0.40314487159E+02  0.25458998493E+03  0.27278117947E+03  0.00000000000E+00 0.  1.
</event>
<event>
12    1  0.9017558E-003  0.1851584E+03  0.7818608E-02  0.1162920E+00
         21   -1    0    0  501  502  0.00000000000E+00  0.00000000000E+00  0.43257222394E+03  0.43257222394E+03  0.00000000000E+00 0.  1.
         21   -1    0    0  502  503 -0.00000000000E+00 -0.00000000000E+00 -0.10500878423E+03  0.10500878423E+03  0.00000000000E+00 0.  1.
          6    2    1    2  501    0  0.53810927226E+02 -0.39611123096E+02  0.29695438259E+03  0.34990967326E+03  0.17259842740E+03 0.  0.
         24    2    3    3    0    0 -0.31843532564E+02 -0.37525894283E+02  0.19917611005E+03  0.21981849277E+03  0.78910351921E+02 0.  0.
         -6    2    1    2    0  503 -0.53810927226E+02  0.39611123096E+02  0.30609057122E+02  0.18767133491E+03  0.17268166842E+03 0.  0.
        -24    2    5    5    0    0 -0.77633716291E+02  0.74344301756E+02 -0.80253797807E+00  0.13492005734E+03  0.81539614274E+02 0.  0.
          5    1    3    3  501    0  0.85654459790E+02 -0.20852288127E+01  0.97778272539E+02  0.13009118049E+03  0.47000000000E+01 0. -1.
        -13    1    4    4    0    0 -0.39455258818E+02 -0.57520225214E+02  0.13168392422E+03  0.14901660866E+03  0.00000000000E+00 0.  1.
         14    1    4    4    0    0  0.76117262535E+01  0.19994330931E+02  0.67492185827E+02  0.70801884111E+02  0.00000000000E+00 0. -1.
         -5    1    5    5    0  503  0.23822789065E+02 -0.34733178660E+02  0.31411595100E+02  0.52751277572E+02  0.47000000000E+01 0.  1.
         13    1    6    6    0    0  0.10358813152E+02  0.23758317390E+01  0.16810289402E+02  0.19888072208E+02  0.00000000000E+00 0. -1.
        -14    1    6    6    0    0 -0.87992529443E+02  0.71968470017E+02 -0.17612827380E+02  0.11503198513E+03  0.00000000000E+00 0.  1.
</event>
<event>
12    1  0.9017558E-003  0.1766000E+03  0.7818608E-02  0.1171162E+00
         21   -1    0    0  503  502  0.00000000000E+00  0.00000000000E+00  0.13416397054E+03  0.13416397054E+03  0.00000000000E+00 0.  1.
         21   -1    0    0  501  503 -0.00000000000E+00 -0.00000000000E+00 -0.23917368331E+03  0.23917368331E+03  0.00000000000E+00 0.  1.
          6    2    1    2  501    0 -0.15748859867E+02  0.33857485788E+02 -0.20911902377E+02  0.17783377332E+03  0.17260703155E+03 0.  0.
         24    2    3    3    0    0 -0.60691558374E+02  0.32659554843E+02  0.29926122376E+02  0.10980527967E+03  0.80071935552E+02 0.  0.
         -6    2    1    2    0  502  0.15748859867E+02 -0.33857485788E+02 -0.84097810389E+02  0.19550388053E+03  0.17249628882E+03 0.  0.
        -24    2    5    5    0    0  0.73268761295E-01 -0.17108280689E+02 -0.12330021736E+03  0.14984012312E+03  0.83405157265E+02 0.  0.
          5    1    3    3  501    0  0.44942698506E+02  0.11979309450E+01 -0.50838024753E+02  0.68028493650E+02  0.47000000000E+01 0. -1.
        -13    1    4    4    0    0 -0.56654564045E+02  0.44992761445E+02  0.48534486896E+02  0.87118796065E+02  0.00000000000E+00 0.  1.
         14    1    4    4    0    0 -0.40369943285E+01 -0.12333206602E+02 -0.18608364521E+02  0.22686483606E+02  0.00000000000E+00 0. -1.
         -5    1    5    5    0  502  0.15675591106E+02 -0.16749205099E+02  0.39202406974E+02  0.45663757408E+02  0.47000000000E+01 0.  1.
         13    1    6    6    0    0 -0.25858714916E+01  0.26653204928E+02 -0.10401500209E+02  0.28727535065E+02  0.00000000000E+00 0. -1.
        -14    1    6    6    0    0  0.26591402529E+01 -0.43761485617E+02 -0.11289871715E+03  0.12111258806E+03  0.00000000000E+00 0.  1.
</event>
<event>
12    1  0.9017558E-003  0.1831231E+03  0.7818608E-02  0.1165574E+00
         21   -1    0    0  503  502  0.00000000000E+00  0.00000000000E+00  0.16802782533E+04  0.16802782533E+04  0.00000000000E+00 0.  1.
         21   -1    0    0  501  503 -0.00000000000E+00 -0.00000000000E+00 -0.19990503005E+02  0.19990503005E+02  0.00000000000E+00 0. -1.
          6    2    1    2  501    0  0.45483921357E+02 -0.45237912978E+02  0.70608770179E+03  0.72865577018E+03  0.16811940076E+03 0.  0.
         24    2    3    3    0    0  0.78209815637E+02 -0.71498462888E+02  0.44419752347E+03  0.46338391690E+03  0.78641014277E+02 0.  0.
         -6    2    1    2    0  502 -0.45483921357E+02  0.45237912978E+02  0.95420004852E+03  0.97161298615E+03  0.17151911376E+03 0.  0.
        -24    2    5    5    0    0 -0.48599421480E+02  0.86278502777E+02  0.51806167880E+03  0.53351162357E+03  0.80255003783E+02 0.  0.
          5    1    3    3  501    0 -0.32725894280E+02  0.26260549910E+02  0.26189017832E+03  0.26527185327E+03  0.47000000000E+01 0. -1.
        -13    1    4    4    0    0  0.33951688243E+02 -0.50503833050E+02  0.36661176648E+03  0.37162823037E+03  0.00000000000E+00 0.  1.
         14    1    4    4    0    0  0.44258127394E+02 -0.20994629838E+02  0.77585756990E+02  0.91755686527E+02  0.00000000000E+00 0. -1.
         -5    1    5    5    0  502  0.31155001226E+01 -0.41040589799E+02  0.43613836973E+03  0.43810136259E+03  0.47000000000E+01 0.  1.
         11    1    6    6    0    0 -0.53904136839E+02  0.56772767576E+02  0.21213467271E+03  0.22611926604E+03  0.00000000000E+00 0. -1.
        -12    1    6    6    0    0  0.53047153592E+01  0.29505735200E+02  0.30592700608E+03  0.30739235753E+03  0.00000000000E+00 0.  1.
</event>
<event>
12    1  0.9017558E-003  0.1800572E+03  0.7818608E-02  0.1168178E+00
         21   -1    0    0  501  502  0.00000000000E+00  0.00000000000E+00  0.14281557555E+04  0.14281557555E+04  0.00000000000E+00 0. -1.
         21   -1    0    0  502  503 -0.00000000000E+00 -0.00000000000E+00 -0.22484195911E+02  0.22484195911E+02  0.00000000000E+00 0. -1.
          6    2    1    2  501    0 -0.30046251543E+01 -0.47880175663E+02  0.68787905158E+03  0.71060840268E+03  0.17171247295E+03 0.  0.
         24    2    3    3    0    0 -0.53807728273E+02 -0.36897561265E+02  0.26079057426E+03  0.28034310015E+03  0.79522503282E+02 0.  0.
         -6    2    1    2    0  503  0.30046251543E+01  0.47880175663E+02  0.71779250796E+03  0.74003154868E+03  0.17354846460E+03 0.  0.
        -24    2    5    5    0    0  0.17381528521E+02  0.55098436008E+02  0.21540813615E+03  0.23736769910E+03  0.81269946927E+02 0.  0.
          5    1    3    3  501    0  0.50803103119E+02 -0.10982614398E+02  0.42708847732E+03  0.43026530254E+03  0.47000000000E+01 0. -1.
        -13    1    4    4    0    0 -0.10348182681E-01  0.15879844542E+02  0.10710636107E+02  0.19154302273E+02  0.00000000000E+00 0.  1.
         14    1    4    4    0    0 -0.53797380090E+02 -0.52777405807E+02  0.25007993815E+03  0.26118879787E+03  0.00000000000E+00 0. -1.
         -5    1    5    5    0  503 -0.14376903367E+02 -0.72182603453E+01  0.50238437181E+03  0.50266384958E+03  0.47000000000E+01 0.  1.
         11    1    6    6    0    0 -0.18738646630E+02  0.59266550595E+02  0.15293267705E+03  0.16508199359E+03  0.00000000000E+00 0. -1.
        -12    1    6    6    0    0  0.36120175152E+02 -0.41681145872E+01  0.62475459101E+02  0.72285705517E+02  0.00000000000E+00 0.  1.
</event>
<event>
12    1  0.9017558E-003  0.1885590E+03  0.7818608E-02  0.1159951E+00
         21   -1    0    0  501  502  0.00000000000E+00  0.00000000000E+00  0.90028160101E+02  0.90028160101E+02  0.00000000000E+00 0.  1.
         21   -1    0    0  502  503 -0.00000000000E+00 -0.00000000000E+00 -0.80631532018E+03  0.80631532018E+03  0.00000000000E+00 0. -1.
          6    2    1    2  501    0  0.76749742087E+02  0.35449119797E+01 -0.67854806236E+03  0.70404491547E+03  0.17131456670E+03 0.  0.
         24    2    3    3    0    0  0.33135885616E+02 -0.62445271620E+02 -0.36379722041E+03  0.37947280436E+03  0.81570784015E+02 0.  0.
         -6    2    1    2    0  503 -0.76749742087E+02 -0.35449119797E+01 -0.37739097723E+02  0.19229856481E+03  0.17219584554E+03 0.  0.
        -24    2    5    5    0    0  0.28740427578E+02 -0.16661849320E+02 -0.11596986558E+02  0.82727903055E+02  0.74871800075E+02 0.  0.
          5    1    3    3  501    0  0.43613856472E+02  0.65990183600E+02 -0.31475084195E+03  0.32457211112E+03  0.47000000000E+01 0. -1.
        -11    1    4    4    0    0  0.14018998202E+02 -0.23651040187E+02 -0.22725628377E+02  0.35670130328E+02  0.00000000000E+00 0.  1.
         12    1    4    4    0    0  0.19116887414E+02 -0.38794231433E+02 -0.34107159204E+03  0.34380267403E+03  0.00000000000E+00 0. -1.
         -5    1    5    5    0  503 -0.10549016967E+03  0.13116937340E+02 -0.26142111165E+02  0.10957066175E+03  0.47000000000E+01 0.  1.
         11    1    6    6    0    0 -0.22159640274E+01 -0.36122188996E+02 -0.24777942337E+02  0.43859656416E+02  0.00000000000E+00 0. -1.
        -12    1    6    6    0    0  0.30956391605E+02  0.19460339677E+02  0.13180955780E+02  0.38868246639E+02  0.00000000000E+00 0.  1.
</event>
<event>
12    1  0.9017558E-003  0.2355685E+03  0.7818608E-02  0.1122843E+00
         21   -1    0    0  501  502  0.00000000000E+00  0.00000000000E+00  0.27434414818E+03  0.27434414818E+03  0.00000000000E+00 0.  1.
         21   -1    0    0  502  503 -0.00000000000E+00 -0.00000000000E+00 -0.20741224003E+03  0.20741224003E+03  0.00000000000E+00 0.  1.
          6    2    1    2  501    0 -0.64565945323E+02 -0.14566037632E+03  0.72496618179E+02  0.24612217121E+03  0.17301634891E+03 0.  0.
         24    2    3    3    0    0 -0.96951585412E+02 -0.15446060953E+03  0.73411043535E+02  0.21222231926E+03  0.79946492526E+02 0.  0.
         -6    2    1    2    0  503  0.64565945323E+02  0.14566037632E+03 -0.55647100296E+01  0.23563421700E+03  0.17351314562E+03 0.  0.
        -24    2    5    5    0    0  0.37642007453E+02  0.22172378695E+01  0.14269870302E+02  0.88269591077E+02  0.78524229647E+02 0.  0.
          5    1    3    3  501    0  0.32385640090E+02  0.88002332134E+01 -0.91442535641E+00  0.33899851952E+02  0.47000000000E+01 0. -1.
        -11    1    4    4    0    0 -0.46138683650E+02 -0.11717519725E+02  0.17463078493E+02  0.50705399198E+02  0.00000000000E+00 0.  1.
         12    1    4    4    0    0 -0.50812901763E+02 -0.14274308980E+03  0.55947965042E+02  0.16151692006E+03  0.00000000000E+00 0. -1.
         -5    1    5    5    0  503  0.26923937870E+02  0.14344313845E+03 -0.19834580332E+02  0.14736462593E+03  0.47000000000E+01 0.  1.
         11    1    6    6    0    0 -0.22457632985E+02 -0.34770773904E+01 -0.77497761352E+01  0.24010297304E+02  0.00000000000E+00 0. -1.
        -12    1    6    6    0    0  0.60099640438E+02  0.56943152599E+01  0.22019646437E+02  0.64259293773E+02  0.00000000000E+00 0.  1.
</event>
<event>
12    1  0.9017558E-003  0.1752346E+03  0.7818608E-02  0.1172513E+00
         21   -1    0    0  501  502  0.00000000000E+00  0.00000000000E+00  0.27079248602E+02  0.27079248602E+02  0.00000000000E+00 0. -1.
         21   -1    0    0  502  503 -0.00000000000E+00 -0.00000000000E+00 -0.12507179061E+04  0.12507179061E+04  0.00000000000E+00 0. -1.
          6    2    1    2  501    0 -0.27238780612E+02 -0.13205709126E+02 -0.80746979962E+03  0.82626547320E+03  0.17260015350E+03 0.  0.
         24    2    3    3    0    0 -0.34186137844E+02 -0.53981653813E+01 -0.19483607594E+03  0.21352458759E+03  0.80211101526E+02 0.  0.
         -6    2    1    2    0  503  0.27238780612E+02  0.13205709126E+02 -0.41616885786E+03  0.45153168148E+03  0.17253405231E+03 0.  0.
        -24    2    5    5    0    0  0.22934318938E+02 -0.40273797397E+02 -0.36702646385E+03  0.37862317102E+03  0.80617111872E+02 0.  0.
          5    1    3    3  501    0  0.69473572322E+01 -0.78075437445E+01 -0.61263372368E+03  0.61274088561E+03  0.47000000000E+01 0. -1.
        -13    1    4    4    0    0 -0.38581713907E+02 -0.37782282477E+02 -0.10813549556E+03  0.12086908172E+03  0.00000000000E+00 0.  1.
         14    1    4    4    0    0  0.43955760627E+01  0.32384117095E+02 -0.86700580380E+02  0.92655505865E+02  0.00000000000E+00 0. -1.
         -5    1    5    5    0  503  0.43044616745E+01  0.53479506523E+02 -0.49142394009E+02  0.72908510458E+02  0.47000000000E+01 0.  1.
         13    1    6    6    0    0  0.38956964648E+02 -0.24456942794E+02 -0.93805237716E+02  0.10447588128E+03  0.00000000000E+00 0. -1.
        -14    1    6    6    0    0 -0.16022645710E+02 -0.15816854603E+02 -0.27322122613E+03  0.27414728975E+03  0.00000000000E+00 0.  1.
</event>
<event>
12    1  0.9017558E-003  0.1882212E+03  0.7818608E-02  0.1161278E+00
         21   -1    0    0  503  502  0.00000000000E+00  0.00000000000E+00  0.15154737536E+03  0.15154737536E+03  0.00000000000E+00 0.  1.
         21   -1    0    0  501  503 -0.00000000000E+00 -0.00000000000E+00 -0.29663449856E+03  0.29663449856E+03  0.00000000000E+00 0. -1.
          6    2    1    2  501    0  0.62673538388E+02  0.41909542841E+02 -0.18159975374E+03  0.26154478205E+03  0.17246106884E+03 0.  0.
         24    2    3    3    0    0  0.10046955478E+03 -0.42577914810E+01 -0.12260888021E+03  0.17750922545E+03  0.79776734628E+02 0.  0.
         -6    2    1    2    0  502 -0.62673538388E+02 -0.41909542841E+02  0.36512630530E+02  0.18663709187E+03  0.16678084326E+03 0.  0.
        -24    2    5    5    0    0 -0.17423888029E+02 -0.78261501838E+02 -0.51965543814E+01  0.11500789471E+03  0.82288256295E+02 0.  0.
          5    1    3    3  501    0 -0.37796016392E+02  0.46167334322E+02 -0.58990873528E+02  0.84035556600E+02  0.47000000000E+01 0. -1.
        -11    1    4    4    0    0  0.60830832469E+02  0.81865738943E+01 -0.16502459209E+02  0.63558959486E+02  0.00000000000E+00 0.  1.
         12    1    4    4    0    0  0.39638722311E+02 -0.12444365375E+02 -0.10610642100E+03  0.11395026596E+03  0.00000000000E+00 0. -1.
         -5    1    5    5    0  502 -0.45249650359E+02  0.36351958997E+02  0.41709184912E+02  0.71629197165E+02  0.47000000000E+01 0.  1.
         13    1    6    6    0    0 -0.22162717508E+01 -0.43643618911E+02 -0.43164821683E+02  0.61423767087E+02  0.00000000000E+00 0. -1.
        -14    1    6    6    0    0 -0.15207616278E+02 -0.34617882927E+02  0.37968267302E+02  0.53584127623E+02  0.00000000000E+00 0.  1.
</event>
<event>
12    1  0.9017558E-003  0.1963105E+03  0.7818608E-02  0.1153346E+00
         21   -1    0    0  501  502  0.00000000000E+00  0.00000000000E+00  0.18671872320E+03  0.18671872320E+03  0.00000000000E+00 0.  1.
         21   -1    0    0  502  503 -0.00000000000E+00 -0.00000000000E+00 -0.20431973380E+03  0.20431973380E+03  0.00000000000E+00 0.  1.
          6    2    1    2  501    0 -0.91396558024E+02  0.96756549808E+01 -0.13608987382E+02  0.19468739736E+03  0.17108778166E+03 0.  0.
         24    2    3    3    0    0 -0.34088210307E+02  0.49520181616E+02 -0.54928962540E+02  0.11343923819E+03  0.78974776773E+02 0.  0.
         -6    2    1    2    0  503  0.91396558024E+02 -0.96756549808E+01 -0.39920232187E+01  0.19635105964E+03  0.17346715324E+03 0.  0.
        -24    2    5    5    0    0  0.81729293737E+02 -0.88569222459E+01 -0.66789943392E+02  0.13263453823E+03  0.79830455764E+02 0.  0.
          5    1    3    3  501    0 -0.57308347717E+02 -0.39844526635E+02  0.41319975157E+02  0.81248159166E+02  0.47000000000E+01 0. -1.
        -13    1    4    4    0    0  0.18302030150E+02  0.33625054820E+02 -0.42686181255E+02  0.57338631736E+02  0.00000000000E+00 0.  1.
         14    1    4    4    0    0 -0.52390240456E+02  0.15895126796E+02 -0.12242781285E+02  0.56100606454E+02  0.00000000000E+00 0. -1.
         -5    1    5    5    0  503  0.96672642867E+01 -0.81873273491E+00  0.62797920173E+02  0.63716521406E+02  0.47000000000E+01 0.  1.
         11    1    6    6    0    0  0.29230281430E+02 -0.33866183045E+02 -0.88883419609E+00  0.44745030257E+02  0.00000000000E+00 0. -1.
        -12    1    6    6    0    0  0.52499012307E+02  0.25009260799E+02 -0.65901109196E+02  0.87889507975E+02  0.00000000000E+00 0.  1.
</event>
<event>
12    1  0.9017558E-003  0.3544822E+03  0.7818608E-02  0.1060803E+00
         21   -1    0    0  501  502  0.00000000000E+00  0.00000000000E+00  0.19086630430E+03  0.19086630430E+03  0.00000000000E+00 0. -1.
         21   -1    0    0  502  503 -0.00000000000E+00 -0.00000000000E+00 -0.73704922431E+03  0.73704922431E+03  0.00000000000E+00 0. -1.
          6    2    1    2  501    0  0.19578815731E+03  0.23996070768E+03 -0.12131274132E+03  0.37466572440E+03  0.17246298171E+03 0.  0.
         24    2    3    3    0    0  0.57943187706E+02  0.31701855497E+02 -0.48291400888E+02  0.11442124066E+03  0.79985875450E+02 0.  0.
         -6    2    1    2    0  503 -0.19578815731E+03 -0.23996070768E+03 -0.42487017868E+03  0.55324980421E+03  0.17221072366E+03 0.  0.
        -24    2    5    5    0    0 -0.18998475013E+03 -0.22419868297E+03 -0.43650584123E+03  0.53228317355E+03  0.80179627665E+02 0.  0.
          5    1    3    3  501    0  0.13784496960E+03  0.20825885219E+03 -0.73021340433E+02  0.26024448374E+03  0.47000000000E+01 0. -1.
        -13    1    4    4    0    0 -0.13190397646E+01  0.94933449961E+01  0.19470527298E+02  0.21701725700E+02  0.00000000000E+00 0.  1.
         14    1    4    4    0    0  0.59262227471E+02  0.22208510501E+02 -0.67761928186E+02  0.92719514963E+02  0.00000000000E+00 0. -1.
         -5    1    5    5    0  503 -0.58034071746E+01 -0.15762024716E+02  0.11635662547E+02  0.20966630652E+02  0.47000000000E+01 0.  1.
         11    1    6    6    0    0 -0.12232980355E+03 -0.10566713411E+03 -0.29032948359E+03  0.33229705553E+03  0.00000000000E+00 0. -1.
        -12    1    6    6    0    0 -0.67654946577E+02 -0.11853154886E+03 -0.14617635764E+03  0.19998611802E+03  0.00000000000E+00 0.  1.
</event>
<event>
12    1  0.9017558E-003  0.1744999E+03  0.7818608E-02  0.1173344E+00
         21   -1    0    0  503  502  0.00000000000E+00  0.00000000000E+00  0.16452910135E+03  0.16452910135E+03  0.00000000000E+00 0. -1.
         21   -1    0    0  501  503 -0.00000000000E+00 -0.00000000000E+00 -0.21072992179E+03  0.21072992179E+03  0.00000000000E+00 0. -1.
          6    2    1    2  501    0 -0.56157786183E+01 -0.24174297881E+02  0.42972955001E+02  0.17929427487E+03  0.17228995470E+03 0.  0.
         24    2    3    3    0    0  0.29894447602E+02 -0.41356564891E+02  0.80514821061E+02  0.12463452576E+03  0.80293742865E+02 0.  0.
         -6    2    1    2    0  502  0.56157786183E+01  0.24174297881E+02 -0.89173775438E+02  0.19596474827E+03  0.17272604520E+03 0.  0.
        -24    2    5    5    0    0 -0.20315121550E+02  0.45115047528E+01  0.16498102694E+02  0.85295543678E+02  0.81056058010E+02 0.  0.
          5    1    3    3  501    0 -0.35510226221E+02  0.17182267010E+02 -0.37541866060E+02  0.54659749113E+02  0.47000000000E+01 0. -1.
        -13    1    4    4    0    0 -0.16905764096E+02 -0.44774894264E+02  0.35293502443E+02  0.59466186449E+02  0.00000000000E+00 0.  1.
         14    1    4    4    0    0  0.46800211699E+02  0.34183293733E+01  0.45221318618E+02  0.65168339309E+02  0.00000000000E+00 0. -1.
         -5    1    5    5    0  502  0.25930900168E+02  0.19662793128E+02 -0.10567187813E+03  0.11066920459E+03  0.47000000000E+01 0.  1.
         11    1    6    6    0    0 -0.34771041189E+02 -0.26402027367E+02 -0.65041874999E+01  0.44140648041E+02  0.00000000000E+00 0. -1.
        -12    1    6    6    0    0  0.14455919639E+02  0.30913532120E+02  0.23002290194E+02  0.41154895637E+02  0.00000000000E+00 0.  1.
</event>
<event>
12    1  0.9017558E-003  0.2567279E+03  0.7818608E-02  0.1109594E+00
         21   -1    0    0  503  502  0.00000000000E+00  0.00000000000E+00  0.28973175502E+03  0.28973175502E+03  0.00000000000E+00 0. -1.
         21   -1    0    0  501  503 -0.00000000000E+00 -0.00000000000E+00 -0.22642233557E+03  0.22642233557E+03  0.00000000000E+00 0.  1.
          6    2    1    2  501    0  0.42527638673E+02 -0.18563266222E+03  0.53386608628E+02  0.25923446064E+03  0.16758368139E+03 0.  0.
         24    2    3    3    0    0  0.21363456577E+02 -0.18908654392E+03  0.45363958432E+01  0.20567808668E+03  0.77928031456E+02 0.  0.
         -6    2    1    2    0  502 -0.42527638673E+02  0.18563266222E+03  0.99228108212E+01  0.25691962994E+03  0.17216604991E+03 0.  0.
        -24    2    5    5    0    0 -0.72548576850E+02  0.14274888269E+03  0.55815621628E+02  0.18714488265E+03  0.79166179469E+02 0.  0.
          5    1    3    3  501    0  0.21164182096E+02  0.34538816976E+01  0.48850212784E+02  0.53556373959E+02  0.47000000000E+01 0. -1.
        -11    1    4    4    0    0 -0.23327498420E+02 -0.80509638885E+02 -0.18952190130E+02  0.85936951578E+02  0.00000000000E+00 0.  1.
         12    1    4    4    0    0  0.44690954997E+02 -0.10857690503E+03  0.23488585973E+02  0.11974113510E+03  0.00000000000E+00 0. -1.
         -5    1    5    5    0  502  0.30020938176E+02  0.42883779528E+02 -0.45892810807E+02  0.69774747290E+02  0.47000000000E+01 0.  1.
         13    1    6    6    0    0 -0.51289753290E+02  0.23531251398E+02  0.82046654848E+01  0.57023461142E+02  0.00000000000E+00 0. -1.
        -14    1    6    6    0    0 -0.21258823560E+02  0.11921763129E+03  0.47610956143E+02  0.13012142151E+03  0.00000000000E+00 0.  1.
</event>
<event>
12    1  0.9017558E-003  0.2118738E+03  0.7818608E-02  0.1140114E+00
         21   -1    0    0  501  502  0.00000000000E+00  0.00000000000E+00  0.36963004797E+03  0.36963004797E+03  0.00000000000E+00 0. -1.
         21   -1    0    0  502  503 -0.00000000000E+00 -0.00000000000E+00 -0.12424613252E+03  0.12424613252E+03  0.00000000000E+00 0.  1.
          6    2    1    2  501    0 -0.11466568748E+03 -0.47246911099E+02  0.16024154035E+03  0.26564609995E+03  0.17178477428E+03 0.  0.
         24    2    3    3    0    0 -0.62616939512E+02 -0.78208772459E+02  0.15891405158E+03  0.20488788034E+03  0.81779426004E+02 0.  0.
         -6    2    1    2    0  503  0.11466568748E+03  0.47246911099E+02  0.85142375101E+02  0.22823008054E+03  0.17163698649E+03 0.  0.
        -24    2    5    5    0    0  0.67499848496E+02  0.68864847770E+02  0.11213305469E+03  0.16955693219E+03  0.82928490243E+02 0.  0.
          5    1    3    3  501    0 -0.52048747968E+02  0.30961861359E+02  0.13274887634E+01  0.60758219611E+02  0.47000000000E+01 0. -1.
        -11    1    4    4    0    0 -0.18197180255E+02 -0.48669495783E+02  0.19298503928E+02  0.55428236873E+02  0.00000000000E+00 0.  1.
         12    1    4    4    0    0 -0.44419759257E+02 -0.29539276676E+02  0.13961554766E+03  0.14945964347E+03  0.00000000000E+00 0. -1.
         -5    1    5    5    0  503  0.47165838985E+02 -0.21617936670E+02 -0.26990679587E+02  0.58673148352E+02  0.47000000000E+01 0.  1.
         11    1    6    6    0    0  0.67378265239E+02  0.76990834568E+02  0.63860524182E+02  0.12060508191E+03  0.00000000000E+00 0. -1.
        -12    1    6    6    0    0  0.12158325634E+00 -0.81259867987E+01  0.48272530506E+02  0.48951850276E+02  0.00000000000E+00 0.  1.
</event>
<event>
12    1  0.9017558E-003  0.2749322E+03  0.7818608E-02  0.1098572E+00
         21   -1    0    0  503  502  0.00000000000E+00  0.00000000000E+00  0.21374899948E+03  0.21374899948E+03  0.00000000000E+00 0.  1.
         21   -1    0    0  501  503 -0.00000000000E+00 -0.00000000000E+00 -0.41591528154E+03  0.41591528154E+03  0.00000000000E+00 0. -1.
          6    2    1    2  501    0  0.17514727307E+03 -0.12589835629E+03 -0.22356285629E+03  0.35390074723E+03  0.16952411272E+03 0.  0.
         24    2    3    3    0    0  0.87946455055E+02 -0.14415690171E+03 -0.14394820643E+03  0.23432675501E+03  0.75313682090E+02 0.  0.
         -6    2    1    2    0  502 -0.17514727307E+03  0.12589835629E+03  0.21396574236E+02  0.27576353380E+03  0.17047213791E+03 0.  0.
        -24    2    5    5    0    0 -0.74112433602E+02  0.45091822152E+02 -0.51275285400E+02  0.12730133683E+03  0.77785282835E+02 0.  0.
          5    1    3    3  501    0  0.87200818018E+02  0.18258545415E+02 -0.79614649861E+02  0.11957399222E+03  0.47000000000E+01 0. -1.
        -11    1    4    4    0    0  0.87344250312E+02 -0.10888954886E+03 -0.78942178844E+02  0.16036776333E+03  0.00000000000E+00 0.  1.
         12    1    4    4    0    0  0.60220474295E+00 -0.35267352842E+02 -0.65006027587E+02  0.73958991676E+02  0.00000000000E+00 0. -1.
         -5    1    5    5    0  502 -0.10103483947E+03  0.80806534139E+02  0.72671859636E+02  0.14846219697E+03  0.47000000000E+01 0.  1.
         11    1    6    6    0    0 -0.35121954450E+02  0.46453211585E+02  0.54107180545E+01  0.58486993603E+02  0.00000000000E+00 0. -1.
        -12    1    6    6    0    0 -0.38990479152E+02 -0.13613894326E+01 -0.56686003454E+02  0.68814343224E+02  0.00000000000E+00 0.  1.
</event>
<event>
12    1  0.9017558E-003  0.2244327E+03  0.7818608E-02  0.1131088E+00
         21   -1    0    0  501  502  0.00000000000E+00  0.00000000000E+00  0.10878267139E+03  0.10878267139E+03  0.00000000000E+00 0.  1.
         21   -1    0    0  502  503 -0.00000000000E+00 -0.00000000000E+00 -0.56391889075E+03  0.56391889075E+03  0.00000000000E+00 0. -1.
          6    2    1    2  501    0 -0.42893402171E+02  0.13703290347E+03 -0.82699321061E+02  0.23918451905E+03  0.17248824849E+03 0.  0.
         24    2    3    3    0    0 -0.20274018130E+02  0.15553649703E+03 -0.28522706006E+02  0.17744947934E+03  0.77923906743E+02 0.  0.
         -6    2    1    2    0  503  0.42893402171E+02 -0.13703290347E+03 -0.37243689830E+03  0.43351704309E+03  0.16914468023E+03 0.  0.
        -24    2    5    5    0    0  0.40666287960E+02 -0.92371800320E+02 -0.11730989110E+03  0.17445825830E+03  0.80546737175E+02 0.  0.
          5    1    3    3  501    0 -0.22619384041E+02 -0.18503593560E+02 -0.54176615055E+02  0.61735039709E+02  0.47000000000E+01 0. -1.
        -11    1    4    4    0    0 -0.37976699956E+01  0.26803340596E+01  0.16587504859E+02  0.17226485582E+02  0.00000000000E+00 0.  1.
         12    1    4    4    0    0 -0.16476348134E+02  0.15285616297E+03 -0.45110210864E+02  0.16022299376E+03  0.00000000000E+00 0. -1.
         -5    1    5    5    0  503  0.22271142106E+01 -0.44661103147E+02 -0.25512700720E+03  0.25905878479E+03  0.47000000000E+01 0.  1.
         13    1    6    6    0    0  0.57067646666E+02 -0.61466733045E+02 -0.11064375868E+03  0.13884133716E+03  0.00000000000E+00 0. -1.
        -14    1    6    6    0    0 -0.16401358706E+02 -0.30905067275E+02 -0.66661324155E+01  0.35616921148E+02  0.00000000000E+00 0.  1.
</event>
<event>
12    1  0.9017558E-003  0.1949543E+03  0.7818608E-02  0.1154278E+00
         21   -1    0    0  503  502  0.00000000000E+00  0.00000000000E+00  0.11144663110E+03  0.11144663110E+03  0.00000000000E+00 0.  1.
         21   -1    0    0  501  503 -0.00000000000E+00 -0.00000000000E+00 -0.53904288838E+03  0.53904288838E+03  0.00000000000E+00 0. -1.
          6    2    1    2  501    0 -0.80668971961E+02 -0.35974299551E+02 -0.41209100699E+03  0.45587957786E+03  0.17379746316E+03 0.  0.
         24    2    3    3    0    0 -0.66863263696E+00 -0.73416078736E+02 -0.21464954055E+03  0.23952994465E+03  0.76875232926E+02 0.  0.
         -6    2    1    2    0  502  0.80668971961E+02  0.35974299551E+02 -0.15505250292E+02  0.19460994162E+03  0.17271648250E+03 0.  0.
        -24    2    5    5    0    0 -0.21631445512E+02  0.36321927611E+02  0.45198467320E+01  0.90261531135E+02  0.79621059577E+02 0.  0.
          5    1    3    3  501    0 -0.80000339324E+02  0.37441779185E+02 -0.19744146644E+03  0.21634963321E+03  0.47000000000E+01 0. -1.
        -11    1    4    4    0    0 -0.31692229872E+02 -0.44284743342E+02 -0.69636362145E+02  0.88401124766E+02  0.00000000000E+00 0.  1.
         12    1    4    4    0    0  0.31023597235E+02 -0.29131335394E+02 -0.14501317841E+03  0.15112881988E+03  0.00000000000E+00 0. -1.
         -5    1    5    5    0  502  0.10230041747E+03 -0.34762805935E+00 -0.20025097024E+02  0.10434841049E+03  0.47000000000E+01 0.  1.
         13    1    6    6    0    0 -0.15263520803E+02 -0.10281657944E+02  0.31171693504E+02  0.36198923096E+02  0.00000000000E+00 0. -1.
        -14    1    6    6    0    0 -0.63679247083E+01  0.46603585555E+02 -0.26651846772E+02  0.54062608039E+02  0.00000000000E+00 0.  1.
</event>
<event>
12    1  0.9017558E-003  0.3018066E+03  0.7818608E-02  0.1084387E+00
         21   -1    0    0  501  502  0.00000000000E+00  0.00000000000E+00  0.64397735484E+02  0.64397735484E+02  0.00000000000E+00 0.  1.
         21   -1    0    0  502  503 -0.00000000000E+00 -0.00000000000E+00 -0.14240860922E+04  0.14240860922E+04  0.00000000000E+00 0. -1.
          6    2    1    2  501    0  0.19710842052E+03  0.14920673007E+03 -0.74596048441E+03  0.80456194394E+03  0.17247753363E+03 0.  0.
         24    2    3    3    0    0  0.18997399960E+03  0.17723176816E+03 -0.65856745065E+03  0.71238854718E+03  0.79278842892E+02 0.  0.
         -6    2    1    2    0  503 -0.19710842052E+03 -0.14920673007E+03 -0.61372787226E+03  0.68392188369E+03  0.17312672833E+03 0.  0.
        -24    2    5    5    0    0 -0.19811183505E+03 -0.78353492265E+02 -0.50757770342E+03  0.55620682392E+03  0.79645069039E+02 0.  0.
          5    1    3    3  501    0  0.71344209233E+01 -0.28025038088E+02 -0.87393033761E+02  0.92173396767E+02  0.47000000000E+01 0. -1.
        -11    1    4    4    0    0  0.15718317162E+03  0.10278934466E+03 -0.50136986181E+03  0.53539138689E+03  0.00000000000E+00 0.  1.
         12    1    4    4    0    0  0.32790827971E+02  0.74442423504E+02 -0.15719758883E+03  0.17699716029E+03  0.00000000000E+00 0. -1.
         -5    1    5    5    0  503  0.10034145342E+01 -0.70853237809E+02 -0.10615016884E+03  0.12771505978E+03  0.47000000000E+01 0.  1.
         13    1    6    6    0    0 -0.61132946271E+01  0.13142200133E+02 -0.39482056578E+02  0.42058561401E+02  0.00000000000E+00 0. -1.
        -14    1    6    6    0    0 -0.19199854043E+03 -0.91495692398E+02 -0.46809564684E+03  0.51414826251E+03  0.00000000000E+00 0.  1.
</event>
<event>
12    1  0.9017558E-003  0.3541611E+03  0.7818608E-02  0.1060958E+00
         21   -1    0    0  501  502  0.00000000000E+00  0.00000000000E+00  0.99072676995E+03  0.99072676995E+03  0.00000000000E+00 0.  1.
         21   -1    0    0  502  503 -0.00000000000E+00 -0.00000000000E+00 -0.18555588373E+03  0.18555588373E+03  0.00000000000E+00 0.  1.
          6    2    1    2  501    0  0.30504026587E+03 -0.49474201336E+02  0.73432534112E+03  0.81510516219E+03  0.17223663491E+03 0.  0.
         24    2    3    3    0    0  0.27426393605E+03  0.23723293139E+01  0.53039247722E+03  0.60239421231E+03  0.79600707078E+02 0.  0.
         -6    2    1    2    0  503 -0.30504026587E+03  0.49474201336E+02  0.70845545091E+02  0.36117749150E+03  0.17301106527E+03 0.  0.
        -24    2    5    5    0    0 -0.11864739833E+03  0.66698477720E+02  0.36658858180E+02  0.17083622869E+03  0.96515558788E+02 0.  0.
          5    1    3    3  501    0  0.30776329821E+02 -0.51846530650E+02  0.20393286390E+03  0.21271094988E+03  0.47000000000E+01 0. -1.
        -11    1    4    4    0    0  0.47262923335E+02  0.24656445819E+02  0.64614778081E+02  0.83766304616E+02  0.00000000000E+00 0.  1.
         12    1    4    4    0    0  0.22700101272E+03 -0.22284116505E+02  0.46577769914E+03  0.51862790769E+03  0.00000000000E+00 0. -1.
         -5    1    5    5    0  503 -0.18639286754E+03 -0.17224276384E+02  0.34186686911E+02  0.19034126281E+03  0.47000000000E+01 0.  1.
         11    1    6    6    0    0  0.46514525743E+01  0.48261097237E+01  0.32117371092E+02  0.32809341231E+02  0.00000000000E+00 0. -1.
        -12    1    6    6    0    0 -0.12329885090E+03  0.61872367996E+02  0.45414870882E+01  0.13802688746E+03  0.00000000000E+00 0.  1.
</event>
<event>
12    1  0.9017558E-003  0.1799913E+03  0.7818608E-02  0.1168072E+00
         21   -1    0    0  501  502  0.00000000000E+00  0.00000000000E+00  0.29111097201E+03  0.29111097201E+03  0.00000000000E+00 0.  1.
         21   -1    0    0  502  503 -0.00000000000E+00 -0.00000000000E+00 -0.11588299670E+03  0.11588299670E+03  0.00000000000E+00 0.  1.
          6    2    1    2  501    0 -0.47945895525E+02 -0.14856931259E+02  0.13121644096E+03  0.22274341957E+03  0.17285062708E+03 0.  0.
         24    2    3    3    0    0  0.27586958985E+01  0.54145714034E+02  0.60765289989E+02  0.11175794610E+03  0.76537894521E+02 0.  0.
         -6    2    1    2    0  503  0.47945895525E+02  0.14856931259E+02  0.44011534347E+02  0.18425054914E+03  0.17173151254E+03 0.  0.
        -24    2    5    5    0    0  0.90330444196E+02  0.16457010010E+02  0.63242950035E+02  0.13744299027E+03  0.80377126834E+02 0.  0.
          5    1    3    3  501    0 -0.50704591423E+02 -0.69002645293E+02  0.70451150976E+02  0.11098547348E+03  0.47000000000E+01 0. -1.
        -13    1    4    4    0    0 -0.21945266125E+02  0.63360118707E+02  0.48007802248E+02  0.82467256681E+02  0.00000000000E+00 0.  1.
         14    1    4    4    0    0  0.24703962023E+02 -0.92144046731E+01  0.12757487741E+02  0.29290689418E+02  0.00000000000E+00 0. -1.
         -5    1    5    5    0  503 -0.42384548671E+02 -0.16000787509E+01 -0.19231415688E+02  0.46807558871E+02  0.47000000000E+01 0.  1.
         11    1    6    6    0    0  0.16646940134E+02  0.23931221153E+02  0.55866428665E+02  0.63014933258E+02  0.00000000000E+00 0. -1.
        -12    1    6    6    0    0  0.73683504062E+02 -0.74742111425E+01  0.73765213696E+01  0.74428057012E+02  0.00000000000E+00 0.  1.
</event>
<event>
12    1  0.9017558E-003  0.2395233E+03  0.7818608E-02  0.1121034E+00
         21   -1    0    0  503  502  0.00000000000E+00  0.00000000000E+00  0.84333805829E+03  0.84333805829E+03  0.00000000000E+00 0. -1.
         21   -1    0    0  501  503 -0.00000000000E+00 -0.00000000000E+00 -0.68348063311E+02  0.68348063311E+02  0.00000000000E+00 0. -1.
          6    2    1    2  501    0  0.86642773393E+02  0.13070975447E+03  0.31662379698E+03  0.39701640750E+03  0.18105079097E+03 0.  0.
         24    2    3    3    0    0  0.42756661486E+02 -0.66531193744E+01  0.95468397573E+02  0.13295893153E+03  0.81801384085E+02 0.  0.
         -6    2    1    2    0  502 -0.86642773393E+02 -0.13070975447E+03  0.45836619799E+03  0.51466971410E+03  0.17376228892E+03 0.  0.
        -24    2    5    5    0    0 -0.93786861064E+02 -0.25486920560E+02  0.28647877093E+03  0.31295144435E+03  0.80143383405E+02 0.  0.
          5    1    3    3  501    0  0.43886111907E+02  0.13736287385E+03  0.22115539941E+03  0.26405747598E+03  0.47000000000E+01 0. -1.
        -11    1    4    4    0    0 -0.84653172023E+00 -0.38522304095E+02  0.40106129484E+02  0.55616419796E+02  0.00000000000E+00 0.  1.
         12    1    4    4    0    0  0.43603193207E+02  0.31869184721E+02  0.55362268089E+02  0.77342511729E+02  0.00000000000E+00 0. -1.
         -5    1    5    5    0  502  0.71440876708E+01 -0.10522283391E+03  0.17188742707E+03  0.20171826975E+03  0.47000000000E+01 0.  1.
         11    1    6    6    0    0 -0.36780237610E+02 -0.42395883631E+02  0.77575305887E+02  0.95750325905E+02  0.00000000000E+00 0. -1.
        -12    1    6    6    0    0 -0.57006623454E+02  0.16908963070E+02  0.20890346504E+03  0.21720111845E+03  0.00000000000E+00 0.  1.
</event>
<event>
12    1  0.9017558E-003  0.1937354E+03  0.7818608E-02  0.1155449E+00
         21   -1    0    0  503  502  0.00000000000E+00  0.00000000000E+00  0.68434453599E+02  0.68434453599E+02  0.00000000000E+00 0. -1.
         21   -1    0    0  501  503 -0.00000000000E+00 -0.00000000000E+00 -0.80340194499E+03  0.80340194499E+03  0.00000000000E+00 0. -1.
          6    2    1    2  501    0  0.28632338272E+02 -0.79673719830E+02 -0.61405748779E+03  0.64346685416E+03  0.17267102149E+03 0.  0.
         24    2    3    3    0    0  0.63349028889E+01 -0.30767965093E+02 -0.12560453130E+03  0.15204307657E+03  0.79710728137E+02 0.  0.
         -6    2    1    2    0  502 -0.28632338272E+02  0.79673719830E+02 -0.12091000359E+03  0.22836954443E+03  0.17425758929E+03 0.  0.
        -24    2    5    5    0    0 -0.84174230398E+02  0.55504705267E+02 -0.57167132510E+02  0.14031111689E+03  0.79076261380E+02 0.  0.
          5    1    3    3  501    0  0.22297435383E+02 -0.48905754737E+02 -0.48845295649E+03  0.49142377759E+03  0.47000000000E+01 0. -1.
        -13    1    4    4    0    0 -0.31260259399E+02 -0.34691290029E+02 -0.81741354082E+02  0.94139993567E+02  0.00000000000E+00 0.  1.
         14    1    4    4    0    0  0.37595162287E+02  0.39233249361E+01 -0.43863177216E+02  0.57903083005E+02  0.00000000000E+00 0. -1.
         -5    1    5    5    0  502  0.55541892126E+02  0.24169014564E+02 -0.63742871084E+02  0.88058427535E+02  0.47000000000E+01 0.  1.
         11    1    6    6    0    0 -0.13777402604E+01  0.40045256261E+02 -0.30247716329E+01  0.40182956097E+02  0.00000000000E+00 0. -1.
        -12    1    6    6    0    0 -0.82796490137E+02  0.15459449006E+02 -0.54142360877E+02  0.10012816079E+03  0.00000000000E+00 0.  1.
</event>
<event>
12    1  0.9017558E-003  0.1947372E+03  0.7818608E-02  0.1154692E+00
         21   -1    0    0  501  502  0.00000000000E+00  0.00000000000E+00  0.16607826020E+03  0.16607826020E+03  0.00000000000E+00 0. -1.
         21   -1    0    0  502  503 -0.00000000000E+00 -0.00000000000E+00 -0.22818446454E+03  0.22818446454E+03  0.00000000000E+00 0. -1.
          6    2    1    2  501    0  0.24402057762E+02  0.85592533961E+02 -0.50387648925E+02  0.20115043980E+03  0.17320808865E+03 0.  0.
         24    2    3    3    0    0  0.20505892231E+02 -0.17832673994E+02 -0.53390905795E+02  0.97501690179E+02  0.76925255205E+02 0.  0.
         -6    2    1    2    0  503 -0.24402057762E+02 -0.85592533961E+02 -0.11718555422E+02  0.19311228494E+03  0.17097803297E+03 0.  0.
        -24    2    5    5    0    0 -0.20136806424E+02 -0.50406665906E+02  0.59594804951E+02  0.11333808455E+03  0.79672188945E+02 0.  0.
          5    1    3    3  501    0  0.38961655314E+01  0.10342520795E+03  0.30032568705E+01  0.10364874962E+03  0.47000000000E+01 0. -1.
        -11    1    4    4    0    0  0.16227282269E+02  0.26894342082E+02 -0.55997714367E+01  0.31905920548E+02  0.00000000000E+00 0.  1.
         12    1    4    4    0    0  0.42786099614E+01 -0.44727016076E+02 -0.47791134358E+02  0.65595769631E+02  0.00000000000E+00 0. -1.
         -5    1    5    5    0  503 -0.42652513378E+01 -0.35185868055E+02 -0.71313360374E+02  0.79774200388E+02  0.47000000000E+01 0.  1.
         13    1    6    6    0    0  0.13702831468E+01 -0.23890254368E+02 -0.17083725407E+02  0.29401965979E+02  0.00000000000E+00 0. -1.
        -14    1    6    6    0    0 -0.21507089571E+02 -0.26516411538E+02  0.76678530358E+02  0.83936118569E+02  0.00000000000E+00 0.  1.
</event>
<event>
12    1  0.9017558E-003  0.2243179E+03  0.7818608E-02  0.1130869E+00
         21   -1    0    0  501  502  0.00000000000E+00  0.00000000000E+00  0.13563496234E+04  0.13563496234E+04  0.00000000000E+00 0.  1.
         21   -1    0    0  502  503 -0.00000000000E+00 -0.00000000000E+00 -0.39103114785E+02  0.39103114785E+02  0.00000000000E+00 0.  1.
          6    2    1    2  501    0  0.13797183706E+03 -0.41061177305E+02  0.82365567095E+03  0.85365520276E+03  0.17203573120E+03 0.  0.
         24    2    3    3    0    0  0.13100740579E+03 -0.29346619621E+02  0.38658598158E+03  0.41634783085E+03  0.76633091040E+02 0.  0.
         -6    2    1    2    0  503 -0.13797183706E+03  0.41061177305E+02  0.49359083765E+03  0.54179753541E+03  0.17085200104E+03 0.  0.
        -24    2    5    5    0    0 -0.42711715998E+02  0.70286580107E+02  0.19140003165E+03  0.22356807721E+03  0.81143200616E+02 0.  0.
          5    1    3    3  501    0  0.69644312691E+01 -0.11714557684E+02  0.43706968937E+03  0.43730737192E+03  0.47000000000E+01 0. -1.
        -11    1    4    4    0    0  0.74429552885E+02 -0.61374646766E+00  0.29940703403E+03  0.30852018905E+03  0.00000000000E+00 0.  1.
         12    1    4    4    0    0  0.56577852902E+02 -0.28732873153E+02  0.87178947551E+02  0.10782764179E+03  0.00000000000E+00 0. -1.
         -5    1    5    5    0  503 -0.95260121058E+02 -0.29225402802E+02  0.30219080600E+03  0.31822945820E+03  0.47000000000E+01 0.  1.
         11    1    6    6    0    0 -0.47962771153E+02  0.34461452612E+02  0.49312971810E+02  0.76940160654E+02  0.00000000000E+00 0. -1.
        -12    1    6    6    0    0  0.52510551548E+01  0.35825127495E+02  0.14208705984E+03  0.14662791655E+03  0.00000000000E+00 0.  1.
</event>
<event>
12    1  0.9017558E-003  0.2209186E+03  0.7818608E-02  0.1133260E+00
         21   -1    0    0  501  502  0.00000000000E+00  0.00000000000E+00  0.64577986301E+03  0.64577986301E+03  0.00000000000E+00 0.  1.
         21   -1    0    0  502  503 -0.00000000000E+00 -0.00000000000E+00 -0.79820445220E+02  0.79820445220E+02  0.00000000000E+00 0. -1.
          6    2    1    2  501    0  0.65769077986E+02 -0.12162414993E+03  0.36753187166E+03  0.42865160621E+03  0.17188518653E+03 0.  0.
         24    2    3    3    0    0  0.24945026124E+02 -0.70750858525E+02  0.84410423378E+02  0.13807538648E+03  0.79446551010E+02 0.  0.
         -6    2    1    2    0  503 -0.65769077986E+02  0.12162414993E+03  0.19842754613E+03  0.29694870202E+03  0.17229926031E+03 0.  0.
        -24    2    5    5    0    0  0.63009179719E+01  0.14040121887E+02  0.35456385901E+02  0.88741842209E+02  0.79881992136E+02 0.  0.
          5    1    3    3  501    0  0.40824051862E+02 -0.50873291409E+02  0.28312144828E+03  0.29057621972E+03  0.47000000000E+01 0. -1.
        -11    1    4    4    0    0  0.27936399246E+02  0.90086587061E+01  0.20108616591E+02  0.35580258511E+02  0.00000000000E+00 0.  1.
         12    1    4    4    0    0 -0.29913731221E+01 -0.79759517231E+02  0.64301806787E+02  0.10249512797E+03  0.00000000000E+00 0. -1.
         -5    1    5    5    0  503 -0.72069995958E+02  0.10758402805E+03  0.16297116022E+03  0.20820685981E+03  0.47000000000E+01 0.  1.
         13    1    6    6    0    0  0.27203305838E+02  0.23391371861E+02  0.50055455874E+02  0.61585102003E+02  0.00000000000E+00 0. -1.
        -14    1    6    6    0    0 -0.20902387866E+02 -0.93512499738E+01 -0.14599069972E+02  0.27156740206E+02  0.00000000000E+00 0.  1.
</event>
<event>
12    1  0.9017558E-003  0.2234592E+03  0.7818608E-02  0.1131591E+00
         21   -1    0    0  503  502  0.00000000000E+00  0.00000000000E+00  0.22663816183E+03  0.22663816183E+03  0.00000000000E+00 0.  1.
         21   -1    0    0  501  503 -0.00000000000E+00 -0.00000000000E+00 -0.23056646226E+03  0.23056646226E+03  0.00000000000E+00 0. -1.
          6    2    1    2  501    0  0.12214611385E+03 -0.72888270962E+02 -0.53343472418E+02  0.22973798940E+03  0.17234165066E+03 0.  0.
         24    2    3    3    0    0  0.19346621434E+02 -0.34438676189E+02 -0.73822709260E+02  0.11799007613E+03  0.83135741312E+02 0.  0.
         -6    2    1    2    0  502 -0.12214611385E+03  0.72888270962E+02  0.49415171982E+02  0.22746663469E+03  0.17048999239E+03 0.  0.
        -24    2    5    5    0    0 -0.94132143475E+02  0.85288818184E+02  0.90974301527E+02  0.17562256699E+03  0.80199249095E+02 0.  0.
          5    1    3    3  501    0  0.10279949242E+03 -0.38449594773E+02  0.20479236842E+02  0.11174791327E+03  0.47000000000E+01 0. -1.
        -11    1    4    4    0    0  0.30393378323E+00  0.13768570944E+02 -0.63708970094E+02  0.65180509295E+02  0.00000000000E+00 0.  1.
         12    1    4    4    0    0  0.19042687651E+02 -0.48207247133E+02 -0.10113739166E+02  0.52809566832E+02  0.00000000000E+00 0. -1.
         -5    1    5    5    0  502 -0.28013970375E+02 -0.12400547222E+02 -0.41559129545E+02  0.51844067704E+02  0.47000000000E+01 0.  1.
         11    1    6    6    0    0  0.93240904972E+01 -0.58491930568E+01  0.13686235100E+02  0.17563164699E+02  0.00000000000E+00 0. -1.
        -12    1    6    6    0    0 -0.10345623397E+03  0.91138011241E+02  0.77288066426E+02  0.15805940229E+03  0.00000000000E+00 0.  1.
</event>
<event>
12    1  0.9017558E-003  0.1894055E+03  0.7818608E-02  0.1160356E+00
         21   -1    0    0  503  502  0.00000000000E+00  0.00000000000E+00  0.51601299670E+02  0.51601299670E+02  0.00000000000E+00 0.  1.
         21   -1    0    0  501  503 -0.00000000000E+00 -0.00000000000E+00 -0.68115420760E+03  0.68115420760E+03  0.00000000000E+00 0. -1.
          6    2    1    2  501    0 -0.40024538065E+02 -0.51275139976E+02 -0.35786608138E+03  0.40489823470E+03  0.17788576289E+03 0.  0.
         24    2    3    3    0    0 -0.61331416878E+02 -0.92634546727E+02 -0.22797353245E+03  0.26684481070E+03  0.83015176671E+02 0.  0.
         -6    2    1    2    0  502  0.40024538065E+02  0.51275139976E+02 -0.27168682655E+03  0.32785727256E+03  0.17159707406E+03 0.  0.
        -24    2    5    5    0    0 -0.69492778071E+01  0.62650750314E+02 -0.77846726707E+02  0.12802729935E+03  0.79733729013E+02 0.  0.
          5    1    3    3  501    0  0.21306878813E+02  0.41359406751E+02 -0.12989254893E+03  0.13805342400E+03  0.47000000000E+01 0. -1.
        -11    1    4    4    0    0 -0.34330510546E+02 -0.78433320210E+02 -0.21885086583E+03  0.23500227902E+03  0.00000000000E+00 0.  1.
         12    1    4    4    0    0 -0.27000906332E+02 -0.14201226517E+02 -0.91226666224E+01  0.31842531678E+02  0.00000000000E+00 0. -1.
         -5    1    5    5    0  502  0.46973815872E+02 -0.11375610338E+02 -0.19384009984E+03  0.19982997322E+03  0.47000000000E+01 0.  1.
         13    1    6    6    0    0  0.27196384752E+02  0.35068102532E+02 -0.70817493848E+02  0.83573516102E+02  0.00000000000E+00 0. -1.
        -14    1    6    6    0    0 -0.34145662559E+02  0.27582647782E+02 -0.70292328593E+01  0.44453783245E+02  0.00000000000E+00 0.  1.
</event>
<event>
12    1  0.9017558E-003  0.1755107E+03  0.7818608E-02  0.1172426E+00
         21   -1    0    0  503  502  0.00000000000E+00  0.00000000000E+00  0.53361377192E+03  0.53361377192E+03  0.00000000000E+00 0.  1.
         21   -1    0    0  501  503 -0.00000000000E+00 -0.00000000000E+00 -0.72400869017E+02  0.72400869017E+02  0.00000000000E+00 0.  1.
          6    2    1    2  501    0 -0.18841495269E+02 -0.29304433682E+02  0.92514997363E+02  0.19767391052E+03  0.17117884912E+03 0.  0.
         24    2    3    3    0    0  0.13023664712E+02 -0.80278181341E+02  0.63335227332E+02  0.13068689424E+03  0.80333747970E+02 0.  0.
         -6    2    1    2    0  502  0.18841495269E+02  0.29304433682E+02  0.36869790554E+03  0.40834073042E+03  0.17201818157E+03 0.  0.
        -24    2    5    5    0    0 -0.23914878880E+02 -0.17604753662E+02  0.31164117305E+03  0.32286476824E+03  0.78991069412E+02 0.  0.
          5    1    3    3  501    0 -0.31865159982E+02  0.50973747659E+02  0.29179770031E+02  0.66987016280E+02  0.47000000000E+01 0. -1.
        -13    1    4    4    0    0  0.34721210763E+01 -0.37577241177E+02 -0.15281195414E+02  0.40713874939E+02  0.00000000000E+00 0.  1.
         14    1    4    4    0    0  0.95515436362E+01 -0.42700940164E+02  0.78616422746E+02  0.89973019301E+02  0.00000000000E+00 0. -1.
         -5    1    5    5    0  502  0.42756374149E+02  0.46909187344E+02  0.57056732486E+02  0.85475962174E+02  0.47000000000E+01 0.  1.
         13    1    6    6    0    0  0.11494154204E+02 -0.27209614910E+01  0.34725848509E+01  0.12311704100E+02  0.00000000000E+00 0. -1.
        -14    1    6    6    0    0 -0.35409033084E+02 -0.14883792171E+02  0.30816858820E+03  0.31055306414E+03  0.00000000000E+00 0.  1.
</event>
<event>
12    1  0.9017558E-003  0.1888810E+03  0.7818608E-02  0.1159832E+00
         21   -1    0    0  503  502  0.00000000000E+00  0.00000000000E+00  0.22922662586E+03  0.22922662586E+03  0.00000000000E+00 0. -1.
         21   -1    0    0  501  503 -0.00000000000E+00 -0.00000000000E+00 -0.15600379303E+03  0.15600379303E+03  0.00000000000E+00 0.  1.
          6    2    1    2  501    0 -0.54787034442E+02  0.52620134337E+02  0.56293080599E+02  0.19559223650E+03  0.17122182797E+03 0.  0.
         24    2    3    3    0    0 -0.84854390857E+02  0.76049790505E+02  0.66433775981E+02  0.15586921531E+03  0.83053762138E+02 0.  0.
         -6    2    1    2    0  502  0.54787034442E+02 -0.52620134337E+02  0.16929752231E+02  0.18963818238E+03  0.17293214284E+03 0.  0.
        -24    2    5    5    0    0  0.22092854162E+02  0.11364489121E+02  0.62663418894E+02  0.10433519457E+03  0.79635940002E+02 0.  0.
          5    1    3    3  501    0  0.30067356415E+02 -0.23429656168E+02 -0.10140695383E+02  0.39723021194E+02  0.47000000000E+01 0. -1.
        -13    1    4    4    0    0 -0.30035157745E+02  0.65639161013E+02  0.42337296956E+01  0.72308606862E+02  0.00000000000E+00 0.  1.
         14    1    4    4    0    0 -0.54819233112E+02  0.10410629492E+02  0.62200046286E+02  0.83560608443E+02  0.00000000000E+00 0. -1.
         -5    1    5    5    0  502  0.32694180280E+02 -0.63984623459E+02 -0.45733666663E+02  0.85302987813E+02  0.47000000000E+01 0.  1.
         11    1    6    6    0    0  0.31349139922E+02 -0.21537660503E+02  0.64957903590E+01  0.38585420643E+02  0.00000000000E+00 0. -1.
        -12    1    6    6    0    0 -0.92562857599E+01  0.32902149624E+02  0.56167628535E+02  0.65749773926E+02  0.00000000000E+00 0.  1.
</event>
<event>
12    1  0.9017558E-003  0.2246933E+03  0.7818608E-02  0.1130987E+00
         21   -1    0    0  503  502  0.00000000000E+00  0.00000000000E+00  0.71628076694E+02  0.71628076694E+02  0.00000000000E+00 0.  1.
         21   -1    0    0  501  503 -0.00000000000E+00 -0.00000000000E+00 -0.13263982079E+04  0.13263982079E+04  0.00000000000E+00 0.  1.
          6    2    1    2  501    0  0.12196889500E+03 -0.74579459696E+02 -0.11072876175E+04  0.11292547058E+04  0.16938658583E+03 0.  0.
         24    2    3    3    0    0  0.15297502122E+03 -0.66672782878E+02 -0.84537245132E+03  0.86535029186E+03  0.79560851394E+02 0.  0.
         -6    2    1    2    0  502 -0.12196889500E+03  0.74579459696E+02 -0.14748251364E+03  0.26877157877E+03  0.17334521213E+03 0.  0.
        -24    2    5    5    0    0 -0.96599359022E+02 -0.79255074120E+00 -0.14163366648E+03  0.18889134137E+03  0.79295517307E+02 0.  0.
          5    1    3    3  501    0 -0.31006126225E+02 -0.79066768184E+01 -0.26191516622E+03  0.26390441394E+03  0.47000000000E+01 0. -1.
        -13    1    4    4    0    0  0.33808763666E+02 -0.45139467294E+02 -0.39400556582E+03  0.39802134353E+03  0.00000000000E+00 0.  1.
         14    1    4    4    0    0  0.11916625756E+03 -0.21533315584E+02 -0.45136688549E+03  0.46732894832E+03  0.00000000000E+00 0. -1.
         -5    1    5    5    0  502 -0.25369535977E+02  0.75372010437E+02 -0.58488471601E+01  0.79880237394E+02  0.47000000000E+01 0.  1.
         11    1    6    6    0    0 -0.97175697230E+02  0.20643719408E+02 -0.94511514505E+02  0.13711931176E+03  0.00000000000E+00 0. -1.
        -12    1    6    6    0    0  0.57633820816E+00 -0.21436270149E+02 -0.47122151975E+02  0.51772029614E+02  0.00000000000E+00 0.  1.
</event>
<event>
12    1  0.9017558E-003  0.1846339E+03  0.7818608E-02  0.1164300E+00
         21   -1    0    0  501  502  0.00000000000E+00  0.00000000000E+00  0.41847026080E+03  0.41847026080E+03  0.00000000000E+00 0.  1.
         21   -1    0    0  502  503 -0.00000000000E+00 -0.00000000000E+00 -0.10070815889E+03  0.10070815889E+03  0.00000000000E+00 0.  1.
          6    2    1    2  501    0  0.26859813819E+02 -0.50656020714E+02  0.27589522563E+03  0.32985724261E+03  0.17146469884E+03 0.  0.
         24    2    3    3    0    0 -0.19965259705E+02  0.31993961197E+01  0.50847573359E+02  0.93718450325E+02  0.76084324825E+02 0.  0.
         -6    2    1    2    0  503 -0.26859813819E+02  0.50656020714E+02  0.41866876286E+02  0.18932117708E+03  0.17550552906E+03 0.  0.
        -24    2    5    5    0    0 -0.14255853639E+02  0.18594640610E+02  0.94642894559E+02  0.12612157257E+03  0.80002397173E+02 0.  0.
          5    1    3    3  501    0  0.46825073524E+02 -0.53855416833E+02  0.22504765227E+03  0.23613879229E+03  0.47000000000E+01 0. -1.
        -11    1    4    4    0    0  0.11815918188E+02 -0.22569253691E+02  0.45912398800E+02  0.52506528150E+02  0.00000000000E+00 0.  1.
         12    1    4    4    0    0 -0.31781177893E+02  0.25768649811E+02  0.49351745594E+01  0.41211922174E+02  0.00000000000E+00 0. -1.
         -5    1    5    5    0  503 -0.12603960180E+02  0.32061380104E+02 -0.52776018272E+02  0.63199604517E+02  0.47000000000E+01 0.  1.
         13    1    6    6    0    0 -0.34067974338E+02  0.40856351008E+02  0.54883535391E+02  0.76433440000E+02  0.00000000000E+00 0. -1.
        -14    1    6    6    0    0  0.19812120699E+02 -0.22261710398E+02  0.39759359167E+02  0.49688132565E+02  0.00000000000E+00 0.  1.
</event>
<event>
12    1  0.9017558E-003  0.1887359E+03  0.7818608E-02  0.1159636E+00
         21   -1    0    0  501  502  0.00000000000E+00  0.00000000000E+00  0.10553899898E+03  0.10553899898E+03  0.00000000000E+00 0.  1.
         21   -1    0    0  502  503 -0.00000000000E+00 -0.00000000000E+00 -0.34598240713E+03  0.34598240713E+03  0.00000000000E+00 0.  1.
          6    2    1    2  501    0  0.47166134827E+01  0.74887743813E+02 -0.15606457669E+03  0.24490284911E+03  0.17317861527E+03 0.  0.
         24    2    3    3    0    0 -0.27893921219E+02  0.10058332052E+03 -0.15445775091E+03  0.20308919673E+03  0.80578842159E+02 0.  0.
         -6    2    1    2    0  503 -0.47166134827E+01 -0.74887743813E+02 -0.84378831454E+02  0.20661855700E+03  0.17303473722E+03 0.  0.
        -24    2    5    5    0    0 -0.48784194633E+02 -0.38500217611E+02 -0.45314918660E+01  0.10831448074E+03  0.88596432866E+02 0.  0.
          5    1    3    3  501    0  0.32610534701E+02 -0.25695576709E+02 -0.16068257812E+01  0.41813652376E+02  0.47000000000E+01 0. -1.
        -13    1    4    4    0    0  0.27508468288E+02  0.21640010616E+02 -0.34196725198E+02  0.48932830505E+02  0.00000000000E+00 0.  1.
         14    1    4    4    0    0 -0.55402389506E+02  0.78943309906E+02 -0.12026102571E+03  0.15415636623E+03  0.00000000000E+00 0. -1.
         -5    1    5    5    0  503  0.44067581150E+02 -0.36387526202E+02 -0.79847339588E+02  0.98304076267E+02  0.47000000000E+01 0.  1.
         11    1    6    6    0    0 -0.18890754825E+02  0.53319714161E+01 -0.39957785989E+02  0.44518706160E+02  0.00000000000E+00 0. -1.
        -12    1    6    6    0    0 -0.29893439808E+02 -0.43832189028E+02  0.35426294123E+02  0.63795774576E+02  0.00000000000E+00 0.  1.
</event>
<event>
12    1  0.9017558E-003  0.2120478E+03  0.7818608E-02  0.1140290E+00
         21   -1    0    0  501  502  0.00000000000E+00  0.00000000000E+00  0.41821060916E+03  0.41821060916E+03  0.00000000000E+00 0.  1.
         21   -1    0    0  502  503 -0.00000000000E+00 -0.00000000000E+00 -0.14636516952E+03  0.14636516952E+03  0.00000000000E+00 0.  1.
          6    2    1    2  501    0 -0.44431250607E+01  0.12147322032E+03  0.28336461887E+03  0.35392058125E+03  0.17374920428E+03 0.  0.
         24    2    3    3    0    0 -0.20285718558E+02  0.15370901740E+03  0.21107284061E+03  0.27306066790E+03  0.77281381367E+02 0.  0.
         -6    2    1    2    0  503  0.44431250607E+01 -0.12147322032E+03 -0.11519179223E+02  0.21065519744E+03  0.17166081703E+03 0.  0.
        -24    2    5    5    0    0  0.12770060221E+02 -0.13231891621E+03 -0.54962483923E+02  0.16486898017E+03  0.80557656103E+02 0.  0.
          5    1    3    3  501    0  0.15842593497E+02 -0.32235797080E+02  0.72291778261E+02  0.80859913346E+02  0.47000000000E+01 0. -1.
        -11    1    4    4    0    0 -0.41657119212E+02  0.10144712352E+03  0.99789038864E+02  0.14827233973E+03  0.00000000000E+00 0.  1.
         12    1    4    4    0    0  0.21371400654E+02  0.52261893879E+02  0.11128380174E+03  0.12478832817E+03  0.00000000000E+00 0. -1.
         -5    1    5    5    0  503 -0.83269351602E+01  0.10845695895E+02  0.43443304700E+02  0.45786217270E+02  0.47000000000E+01 0.  1.
         11    1    6    6    0    0 -0.34169097680E+01 -0.37346383324E+02  0.20272581754E+02  0.42631035534E+02  0.00000000000E+00 0. -1.
        -12    1    6    6    0    0  0.16186969989E+02 -0.94972532887E+02 -0.75235065677E+02  0.12223794463E+03  0.00000000000E+00 0.  1.
</event>
<event>
12    1  0.9017558E-003  0.1892939E+03  0.7818608E-02  0.1160156E+00
         21   -1    0    0  503  502  0.00000000000E+00  0.00000000000E+00  0.40654666041E+03  0.40654666041E+03  0.00000000000E+00 0.  1.
         21   -1    0    0  501  503 -0.00000000000E+00 -0.00000000000E+00 -0.93726192376E+02  0.93726192376E+02  0.00000000000E+00 0. -1.
          6    2    1    2  501    0 -0.67578439374E+02 -0.11263549966E+02  0.22641528814E+03  0.29219106958E+03  0.17151683711E+03 0.  0.
         24    2    3    3    0    0 -0.68646695538E+02 -0.68633845717E+02  0.16553644368E+03  0.20840076162E+03  0.81274778806E+02 0.  0.
         -6    2    1    2    0  502  0.67578439374E+02  0.11263549966E+02  0.86405179899E+02  0.20808178321E+03  0.17646093155E+03 0.  0.
        -24    2    5    5    0    0  0.67598342968E+02  0.13754257610E+02 -0.15810030367E+02  0.10572826236E+03  0.78548028792E+02 0.  0.
          5    1    3    3  501    0  0.10682561638E+01  0.57370295750E+02  0.60878844453E+02  0.83790307958E+02  0.47000000000E+01 0. -1.
        -13    1    4    4    0    0 -0.62088815033E+02 -0.34844442486E+02  0.47847895317E+02  0.85782149720E+02  0.00000000000E+00 0.  1.
         14    1    4    4    0    0 -0.65578805047E+01 -0.33789403231E+02  0.11768854837E+03  0.12261861190E+03  0.00000000000E+00 0. -1.
         -5    1    5    5    0  502 -0.19903593835E-01 -0.24907076435E+01  0.10221521027E+03  0.10235352085E+03  0.47000000000E+01 0.  1.
         13    1    6    6    0    0  0.53821058756E+02  0.22408504068E+02  0.23751196029E+02  0.62952098718E+02  0.00000000000E+00 0. -1.
        -14    1    6    6    0    0  0.13777284212E+02 -0.86542464581E+01 -0.39561226396E+02  0.42776163642E+02  0.00000000000E+00 0.  1.
</event>
<event>
12    1  0.9017558E-003  0.2415088E+03  0.7818608E-02  0.1120019E+00
         21   -1    0    0  501  502  0.00000000000E+00  0.00000000000E+00  0.12021291122E+03  0.12021291122E+03  0.00000000000E+00 0.  1.
         21   -1    0    0  502  503 -0.00000000000E+00 -0.00000000000E+00 -0.47255594633E+03  0.47255594633E+03  0.00000000000E+00 0. -1.
          6    2    1    2  501    0 -0.13958441392E+03  0.77207423680E+02 -0.19244126031E+03  0.30312236813E+03  0.17147809339E+03 0.  0.
         24    2    3    3    0    0 -0.33575798758E+02  0.57168401808E+02 -0.30282712142E+02  0.10829712944E+03  0.80097847433E+02 0.  0.
         -6    2    1    2    0  503  0.13958441392E+03 -0.77207423680E+02 -0.15990177480E+03  0.28964648941E+03  0.18133316400E+03 0.  0.
        -24    2    5    5    0    0  0.11088822011E+03 -0.28469049359E+02 -0.18209345002E+03  0.22870831485E+03  0.77735349795E+02 0.  0.
          5    1    3    3  501    0 -0.10600861516E+03  0.20039021871E+02 -0.16215854817E+03  0.19482523869E+03  0.47000000000E+01 0. -1.
        -11    1    4    4    0    0 -0.32868333308E+02  0.76215772888E+02 -0.16122589869E+02  0.84552405498E+02  0.00000000000E+00 0.  1.
         12    1    4    4    0    0 -0.70746545003E+00 -0.19047371080E+02 -0.14160122273E+02  0.23744723945E+02  0.00000000000E+00 0. -1.
         -5    1    5    5    0  503  0.28696193807E+02 -0.48738374321E+02  0.22191675224E+02  0.60938174568E+02  0.47000000000E+01 0.  1.
         11    1    6    6    0    0 -0.51013559581E+01  0.20272209932E+01 -0.49967831346E+02  0.50268455586E+02  0.00000000000E+00 0. -1.
        -12    1    6    6    0    0  0.11598957607E+03 -0.30496270352E+02 -0.13212561868E+03  0.17843985926E+03  0.00000000000E+00 0.  1.
</event>
<event>
12    1  0.9017558E-003  0.2180631E+03  0.7818608E-02  0.1135860E+00
         21   -1    0    0  503  502  0.00000000000E+00  0.00000000000E+00  0.11317268696E+03  0.11317268696E+03  0.00000000000E+00 0. -1.
         21   -1    0    0  501  503 -0.00000000000E+00 -0.00000000000E+00 -0.63698803771E+03  0.63698803771E+03  0.00000000000E+00 0. -1.
          6    2    1    2  501    0 -0.77400168099E+02  0.10347066521E+03 -0.48448476032E+03  0.53129746147E+03  0.17565461848E+03 0.  0.
         24    2    3    3    0    0 -0.20499988217E+02 -0.64720147987E+01 -0.13549256627E+03  0.16096968116E+03  0.84207281426E+02 0.  0.
         -6    2    1    2    0  502  0.77400168099E+02 -0.10347066521E+03 -0.39330590426E+02  0.21886326321E+03  0.17221285683E+03 0.  0.
        -24    2    5    5    0    0 -0.98243463248E+01 -0.80275958843E+02 -0.55691369545E+02  0.12701624141E+03  0.80565809065E+02 0.  0.
          5    1    3    3  501    0 -0.56900179882E+02  0.10994268001E+03 -0.34899219405E+03  0.37032778031E+03  0.47000000000E+01 0. -1.
        -11    1    4    4    0    0  0.24357857996E+02 -0.27870763369E+02 -0.63181925296E+02  0.73225954286E+02  0.00000000000E+00 0.  1.
         12    1    4    4    0    0 -0.44857846213E+02  0.21398748571E+02 -0.72310640977E+02  0.87743726875E+02  0.00000000000E+00 0. -1.
         -5    1    5    5    0  502  0.87224514424E+02 -0.23194706367E+02  0.16360779119E+02  0.91847021799E+02  0.47000000000E+01 0.  1.
         13    1    6    6    0    0 -0.34844092677E+01  0.24499383392E+01  0.16497779064E+02  0.17038779882E+02  0.00000000000E+00 0. -1.
        -14    1    6    6    0    0 -0.63399370571E+01 -0.82725897182E+02 -0.72189148609E+02  0.10997746152E+03  0.00000000000E+00 0.  1.
</event>
<event>
12    1  0.9017558E-003  0.2238214E+03  0.7818608E-02  0.1131359E+00
         21   -1    0    0  503  502  0.00000000000E+00  0.00000000000E+00  0.92557373749E+02  0.92557373749E+02  0.00000000000E+00 0.  1.
         21   -1    0    0  501  503 -0.00000000000E+00 -0.00000000000E+00 -0.53737989549E+03  0.53737989549E+03  0.00000000000E+00 0.  1.
          6    2    1    2  501    0 -0.67183448444E+02  0.12170095199E+03 -0.22288430950E+03  0.31473482457E+03  0.17336625080E+03 0.  0.
         24    2    3    3    0    0 -0.10136679724E+03  0.67419403252E+02 -0.10234462806E+03  0.17810798727E+03  0.80171246220E+02 0.  0.
         -6    2    1    2    0  502  0.67183448444E+02 -0.12170095199E+03 -0.22193821224E+03  0.31520244467E+03  0.17541742676E+03 0.  0.
        -24    2    5    5    0    0 -0.15055454368E+02 -0.22478748074E+02 -0.44692061805E+02  0.96007164769E+02  0.80548336280E+02 0.  0.
          5    1    3    3  501    0  0.34183348792E+02  0.54281548739E+02 -0.12053968144E+03  0.13662683730E+03  0.47000000000E+01 0. -1.
        -13    1    4    4    0    0 -0.47455192437E+02  0.64379768278E+02 -0.25031710443E+02  0.83805348162E+02  0.00000000000E+00 0.  1.
         14    1    4    4    0    0 -0.53911604800E+02  0.30396349740E+01 -0.77312917616E+02  0.94302639110E+02  0.00000000000E+00 0. -1.
         -5    1    5    5    0  502  0.82238902812E+02 -0.99222203917E+02 -0.17724615043E+03  0.21919527990E+03  0.47000000000E+01 0.  1.
         11    1    6    6    0    0  0.21340923685E+02  0.18106742250E+02 -0.26484421113E+02  0.38531982823E+02  0.00000000000E+00 0. -1.
        -12    1    6    6    0    0 -0.36396378053E+02 -0.40585490323E+02 -0.18207640692E+02  0.57475181946E+02  0.00000000000E+00 0.  1.
</event>
<event>
12    1  0.9017558E-003  0.1777595E+03  0.7818608E-02  0.1170510E+00
         21   -1    0    0  503  502  0.00000000000E+00  0.00000000000E+00  0.12826676275E+04  0.12826676275E+04  0.00000000000E+00 0. -1.
         21   -1    0    0  501  503 -0.00000000000E+00 -0.00000000000E+00 -0.24415818092E+02  0.24415818092E+02  0.00000000000E+00 0. -1.
          6    2    1    2  501    0  0.15651361336E+02  0.44431786752E+02  0.59003347144E+03  0.61562543357E+03  0.16922183147E+03 0.  0.
         24    2    3    3    0    0 -0.64313949506E+01 -0.18215460464E+02  0.17105934713E+03  0.19139232247E+03  0.83645412418E+02 0.  0.
         -6    2    1    2    0  502 -0.15651361336E+02 -0.44431786752E+02  0.66821833795E+03  0.69145801201E+03  0.17140386931E+03 0.  0.
        -24    2    5    5    0    0 -0.33818772261E+02  0.28882429212E+02  0.47779100805E+03  0.48654415924E+03  0.80393205228E+02 0.  0.
          5    1    3    3  501    0  0.22082756287E+02  0.62647247216E+02  0.41897412431E+03  0.42423311109E+03  0.47000000000E+01 0. -1.
        -11    1    4    4    0    0  0.18265649838E+02  0.22728453854E+02  0.27505568685E+02  0.40084571686E+02  0.00000000000E+00 0.  1.
         12    1    4    4    0    0 -0.24697044789E+02 -0.40943914318E+02  0.14355377845E+03  0.15130775079E+03  0.00000000000E+00 0. -1.
         -5    1    5    5    0  502  0.18167410924E+02 -0.73314215964E+02  0.19042732990E+03  0.20491385277E+03  0.47000000000E+01 0.  1.
         13    1    6    6    0    0 -0.21728137400E+02  0.54320822447E+02  0.23713286009E+03  0.24424343807E+03  0.00000000000E+00 0. -1.
        -14    1    6    6    0    0 -0.12090634861E+02 -0.25438393235E+02  0.24065814795E+03  0.24230072117E+03  0.00000000000E+00 0.  1.
</event>
<event>
12    1  0.9017558E-003  0.2585485E+03  0.7818608E-02  0.1108027E+00
         21   -1    0    0  503  502  0.00000000000E+00  0.00000000000E+00  0.13638355275E+03  0.13638355275E+03  0.00000000000E+00 0. -1.
         21   -1    0    0  501  503 -0.00000000000E+00 -0.00000000000E+00 -0.52986699550E+03  0.52986699550E+03  0.00000000000E+00 0.  1.
          6    2    1    2  501    0 -0.31846268458E+02 -0.19067248746E+03 -0.28809020897E+03  0.38709596048E+03  0.17168905563E+03 0.  0.
         24    2    3    3    0    0 -0.26343602391E+02 -0.21573309560E+03 -0.26935978166E+03  0.35498315428E+03  0.78889758021E+02 0.  0.
         -6    2    1    2    0  502  0.31846268458E+02  0.19067248746E+03 -0.10539323378E+03  0.27915458777E+03  0.17160818121E+03 0.  0.
        -24    2    5    5    0    0 -0.11321549330E+02  0.18516543437E+03 -0.83509723205E+02  0.23021823971E+03  0.10775967920E+03 0.  0.
          5    1    3    3  501    0 -0.55026660668E+01  0.25060608148E+02 -0.18730427312E+02  0.32112806197E+02  0.47000000000E+01 0. -1.
        -11    1    4    4    0    0 -0.40099005004E+02 -0.17675307184E+03 -0.25138160592E+03  0.30990690602E+03  0.00000000000E+00 0.  1.
         12    1    4    4    0    0  0.13755402613E+02 -0.38980023768E+02 -0.17978175741E+02  0.45076248258E+02  0.00000000000E+00 0. -1.
         -5    1    5    5    0  502  0.43167817789E+02  0.55070530867E+01 -0.21883510580E+02  0.48936348062E+02  0.47000000000E+01 0.  1.
         13    1    6    6    0    0  0.34258469251E+02  0.17480979338E+02 -0.26347032332E+01  0.38550862703E+02  0.00000000000E+00 0. -1.
        -14    1    6    6    0    0 -0.45580018581E+02  0.16768445503E+03 -0.80875019972E+02  0.19166737701E+03  0.00000000000E+00 0.  1.
</event>
<event>
12    1  0.9017558E-003  0.1849108E+03  0.7818608E-02  0.1163424E+00
         21   -1    0    0  501  502  0.00000000000E+00  0.00000000000E+00  0.11427399373E+03  0.11427399373E+03  0.00000000000E+00 0. -1.
         21   -1    0    0  502  503 -0.00000000000E+00 -0.00000000000E+00 -0.30155292444E+03  0.30155292444E+03  0.00000000000E+00 0. -1.
          6    2    1    2  501    0 -0.62536213235E+02  0.28367340697E+02 -0.68984659250E+02  0.19735975581E+03  0.17168723312E+03 0.  0.
         24    2    3    3    0    0 -0.12722812934E+02 -0.27770074940E+02 -0.84584326096E+02  0.12055986070E+03  0.80293989556E+02 0.  0.
         -6    2    1    2    0  503  0.62536213235E+02 -0.28367340697E+02 -0.11829427146E+03  0.21846716236E+03  0.17034929523E+03 0.  0.
        -24    2    5    5    0    0 -0.16586805366E+02 -0.46855093070E+02 -0.29932792605E+02  0.98333528413E+02  0.79391365262E+02 0.  0.
          5    1    3    3  501    0 -0.49813400301E+02  0.56137415637E+02  0.15599666846E+02  0.76799895115E+02  0.47000000000E+01 0. -1.
        -13    1    4    4    0    0 -0.45724849873E+02 -0.74310204223E+01 -0.54239712509E+02  0.71329715922E+02  0.00000000000E+00 0.  1.
         14    1    4    4    0    0  0.33002036939E+02 -0.20339054518E+02 -0.30344613587E+02  0.49230144775E+02  0.00000000000E+00 0. -1.
         -5    1    5    5    0  503  0.79123018601E+02  0.18487752373E+02 -0.88361478854E+02  0.12013363395E+03  0.47000000000E+01 0.  1.
         13    1    6    6    0    0  0.20611190370E+02 -0.50347098742E+02 -0.79386166796E+01  0.54978842795E+02  0.00000000000E+00 0. -1.
        -14    1    6    6    0    0 -0.37197995736E+02  0.34920056727E+01 -0.21994175925E+02  0.43354685618E+02  0.00000000000E+00 0.  1.
</event>
<event>
12    1  0.9017558E-003  0.2358364E+03  0.7818608E-02  0.1125743E+00
         21   -1    0    0  501  502  0.00000000000E+00  0.00000000000E+00  0.70145105825E+02  0.70145105825E+02  0.00000000000E+00 0.  1.
         21   -1    0    0  502  503 -0.00000000000E+00 -0.00000000000E+00 -0.81304032366E+03  0.81304032366E+03  0.00000000000E+00 0.  1.
          6    2    1    2  501    0 -0.33111253793E+02  0.12966839466E+03 -0.22119034296E+03  0.31065179504E+03  0.17224727064E+03 0.  0.
         24    2    3    3    0    0 -0.30754780090E+02  0.10466879511E+03 -0.24247007689E+03  0.27740348647E+03  0.79117273405E+02 0.  0.
         -6    2    1    2    0  503  0.33111253793E+02 -0.12966839466E+03 -0.52170487488E+03  0.57253363444E+03  0.19418686464E+03 0.  0.
        -24    2    5    5    0    0  0.22887363583E+02 -0.62561085443E+01 -0.90257477146E+02  0.12364159029E+03  0.81104009537E+02 0.  0.
          5    1    3    3  501    0 -0.23564737029E+01  0.24999599550E+02  0.21279733940E+02  0.33248308566E+02  0.47000000000E+01 0. -1.
        -13    1    4    4    0    0 -0.44482407616E+02  0.19958503804E+02 -0.95066310718E+02  0.10683927131E+03  0.00000000000E+00 0.  1.
         14    1    4    4    0    0  0.13727627525E+02  0.84710291302E+02 -0.14740376618E+03  0.17056421516E+03  0.00000000000E+00 0. -1.
         -5    1    5    5    0  503  0.10223890210E+02 -0.12341228611E+03 -0.43144739773E+03  0.44889204415E+03  0.47000000000E+01 0.  1.
         13    1    6    6    0    0 -0.14691059792E+02 -0.33971947977E+02 -0.31591066088E+02  0.48661236562E+02  0.00000000000E+00 0. -1.
        -14    1    6    6    0    0  0.37578423375E+02  0.27715839433E+02 -0.58666411058E+02  0.74980353728E+02  0.00000000000E+00 0.  1.
</event>
<event>
12    1  0.9017558E-003  0.1750954E+03  0.7818608E-02  0.1173098E+00
         21   -1    0    0  503  502  0.00000000000E+00  0.00000000000E+00  0.74621328298E+02  0.74621328298E+02  0.00000000000E+00 0. -1.
         21   -1    0    0  501  503 -0.00000000000E+00 -0.00000000000E+00 -0.45244397764E+03  0.45244397764E+03  0.00000000000E+00 0. -1.
          6    2    1    2  501    0  0.24161162399E+02 -0.58746458204E+01 -0.10589080049E+03  0.20462465595E+03  0.17332084399E+03 0.  0.
         24    2    3    3    0    0 -0.22796878183E+02 -0.17764503490E+02 -0.12576501215E+03  0.15205564816E+03  0.80428891685E+02 0.  0.
         -6    2    1    2    0  502 -0.24161162399E+02  0.58746458204E+01 -0.27193184885E+03  0.32244064999E+03  0.17147235670E+03 0.  0.
        -24    2    5    5    0    0 -0.29222224709E+02 -0.17390462734E+02 -0.28282694518E+03  0.29583853067E+03  0.79831000867E+02 0.  0.
          5    1    3    3  501    0  0.46958040582E+02  0.11889857669E+02  0.19874211659E+02  0.52569007788E+02  0.47000000000E+01 0. -1.
        -11    1    4    4    0    0 -0.50496098882E+02 -0.23282407594E+02 -0.68696574745E+02  0.88380687299E+02  0.00000000000E+00 0.  1.
         12    1    4    4    0    0  0.27699220700E+02  0.55179041048E+01 -0.57068437403E+02  0.63674960862E+02  0.00000000000E+00 0. -1.
         -5    1    5    5    0  502  0.50610623090E+01  0.23265108554E+02  0.10895096334E+02  0.26602119311E+02  0.47000000000E+01 0.  1.
         11    1    6    6    0    0  0.70765623485E+01  0.19678482279E+02 -0.17427793362E+03  0.17552811326E+03  0.00000000000E+00 0. -1.
        -12    1    6    6    0    0 -0.36298787057E+02 -0.37068945013E+02 -0.10854901157E+03  0.12031041741E+03  0.00000000000E+00 0.  1.
</event>
<event>
12    1  0.9017558E-003  0.2038546E+03  0.7818608E-02  0.1148047E+00
         21   -1    0    0  503  502  0.00000000000E+00  0.00000000000E+00  0.30489759496E+02  0.30489759496E+02  0.00000000000E+00 0.  1.
         21   -1    0    0  501  503 -0.00000000000E+00 -0.00000000000E+00 -0.13654887532E+04  0.13654887532E+04  0.00000000000E+00 0.  1.
          6    2    1    2  501    0  0.70398593959E+02  0.83982859257E+02 -0.54489583636E+03  0.58178017387E+03  0.17189419869E+03 0.  0.
         24    2    3    3    0    0  0.15599504926E+02 -0.13582924496E+02 -0.17070965826E+03  0.19119163308E+03  0.83573995612E+02 0.  0.
         -6    2    1    2    0  502 -0.70398593959E+02 -0.83982859257E+02 -0.79010315731E+03  0.81419833879E+03  0.16323863827E+03 0.  0.
        -24    2    5    5    0    0 -0.10150706317E+03 -0.65219200448E+02 -0.46264750864E+03  0.48470007841E+03  0.79587818050E+02 0.  0.
          5    1    3    3  501    0  0.54799089033E+02  0.97565783753E+02 -0.37418617810E+03  0.39058854079E+03  0.47000000000E+01 0. -1.
        -11    1    4    4    0    0  0.47531842092E+02 -0.22473583934E+02 -0.11317922980E+03  0.12479533664E+03  0.00000000000E+00 0.  1.
         12    1    4    4    0    0 -0.31932337167E+02  0.88906594379E+01 -0.57530428459E+02  0.66396296439E+02  0.00000000000E+00 0. -1.
         -5    1    5    5    0  502  0.31108469212E+02 -0.18763658810E+02 -0.32745564867E+03  0.32949826038E+03  0.47000000000E+01 0.  1.
         11    1    6    6    0    0 -0.31284294037E+02  0.80165411789E+01 -0.20952518909E+03  0.21199947370E+03  0.00000000000E+00 0. -1.
        -12    1    6    6    0    0 -0.70222769134E+02 -0.73235741627E+02 -0.25312231955E+03  0.27270060471E+03  0.00000000000E+00 0.  1.
</event>
<event>
12    1  0.9017558E-003  0.2386386E+03  0.7818608E-02  0.1120855E+00
         21   -1    0    0  501  502  0.00000000000E+00  0.00000000000E+00  0.13805707949E+03  0.13805707949E+03  0.00000000000E+00 0. -1.
         21   -1    0    0  502  503 -0.00000000000E+00 -0.00000000000E+00 -0.41173882045E+03  0.41173882045E+03  0.00000000000E+00 0. -1.
          6    2    1    2  501    0  0.14980800451E+03 -0.66596334246E+02 -0.12443640795E+03  0.26833090969E+03  0.17216139963E+03 0.  0.
         24    2    3    3    0    0  0.31735057983E+02 -0.24598104178E+02  0.44742566908E+01  0.88483414609E+02  0.78721757180E+02 0.  0.
         -6    2    1    2    0  503 -0.14980800451E+03  0.66596334246E+02 -0.14924533301E+03  0.28146499025E+03  0.17340951923E+03 0.  0.
        -24    2    5    5    0    0 -0.10315312079E+03 -0.10769250249E+02 -0.34190687359E+02  0.13510320109E+03  0.79544508068E+02 0.  0.
          5    1    3    3  501    0  0.11807294653E+03 -0.41998230068E+02 -0.12891066464E+03  0.17984749509E+03  0.47000000000E+01 0. -1.
        -11    1    4    4    0    0 -0.14979538219E+02  0.17105403620E+02  0.11480677838E+02  0.25471304675E+02  0.00000000000E+00 0.  1.
         12    1    4    4    0    0  0.46714596202E+02 -0.41703507798E+02 -0.70064211474E+01  0.63012109933E+02  0.00000000000E+00 0. -1.
         -5    1    5    5    0  503 -0.46654883723E+02  0.77365584495E+02 -0.11505464565E+03  0.14636178916E+03  0.47000000000E+01 0.  1.
         13    1    6    6    0    0 -0.68575572821E+02 -0.19018384500E+02 -0.58429627732E+02  0.92077844966E+02  0.00000000000E+00 0. -1.
        -14    1    6    6    0    0 -0.34577547966E+02  0.82491342507E+01  0.24238940373E+02  0.43025356124E+02  0.00000000000E+00 0.  1.
</event>
<event>
12    1  0.9017558E-003  0.1792282E+03  0.7818608E-02  0.1168638E+00
         21   -1    0    0  503  502  0.00000000000E+00  0.00000000000E+00  0.44430245965E+03  0.44430245965E+03  0.00000000000E+00 0. -1.
         21   -1    0    0  501  503 -0.00000000000E+00 -0.00000000000E+00 -0.75831594443E+02  0.75831594443E+02  0.00000000000E+00 0. -1.
          6    2    1    2  501    0  0.45350725155E+02  0.11020581080E+02  0.12681910191E+03  0.21927140494E+03  0.17268098603E+03 0.  0.
         24    2    3    3    0    0  0.29757022423E+02  0.74638389933E+02  0.77474144832E+02  0.13712882185E+03  0.79659908548E+02 0.  0.
         -6    2    1    2    0  502 -0.45350725155E+02 -0.11020581080E+02  0.24165176331E+03  0.30086264916E+03  0.17304513131E+03 0.  0.
        -24    2    5    5    0    0 -0.53639759151E+02  0.48457060969E+02  0.10412633758E+03  0.15072394426E+03  0.81548161686E+02 0.  0.
          5    1    3    3  501    0  0.15593702732E+02 -0.63617808852E+02  0.49344957074E+02  0.82142583090E+02  0.47000000000E+01 0. -1.
        -13    1    4    4    0    0 -0.12890125826E+02  0.48856033399E+02  0.72895117731E+01  0.51050997299E+02  0.00000000000E+00 0.  1.
         14    1    4    4    0    0  0.42647148249E+02  0.25782356534E+02  0.70184633059E+02  0.86077824553E+02  0.00000000000E+00 0. -1.
         -5    1    5    5    0  502  0.82890339964E+01 -0.59477642050E+02  0.13752542572E+03  0.15013870490E+03  0.47000000000E+01 0.  1.
         13    1    6    6    0    0 -0.64114673161E+02  0.71048514741E+01  0.75725073386E+02  0.99475911498E+02  0.00000000000E+00 0. -1.
        -14    1    6    6    0    0  0.10474914010E+02  0.41352209495E+02  0.28401264196E+02  0.51248032758E+02  0.00000000000E+00 0.  1.
</event>
<event>
12    1  0.9017558E-003  0.2501996E+03  0.7818608E-02  0.1113236E+00
         21   -1    0    0  503  502  0.00000000000E+00  0.00000000000E+00  0.49344356572E+03  0.49344356572E+03  0.00000000000E+00 0. -1.
         21   -1    0    0  501  503 -0.00000000000E+00 -0.00000000000E+00 -0.13382258653E+03  0.13382258653E+03  0.00000000000E+00 0.  1.
          6    2    1    2  501    0  0.16007305391E+03  0.85153888588E+02  0.10747303419E+03  0.27230550432E+03  0.17241017161E+03 0.  0.
         24    2    3    3    0    0  0.98450774864E+02  0.24582059984E+02 -0.67690349029E+01  0.12898909896E+03  0.79344407946E+02 0.  0.
         -6    2    1    2    0  502 -0.16007305391E+03 -0.85153888588E+02  0.25214794500E+03  0.35496064793E+03  0.17188341421E+03 0.  0.
        -24    2    5    5    0    0 -0.51326083581E+02 -0.80587353771E+02  0.19720301773E+03  0.23294510864E+03  0.79029772815E+02 0.  0.
          5    1    3    3  501    0  0.61622279050E+02  0.60571828604E+02  0.11424206909E+03  0.14331640536E+03  0.47000000000E+01 0. -1.
        -13    1    4    4    0    0  0.90887439939E+02  0.11676868365E+02  0.24044691695E+02  0.94736599011E+02  0.00000000000E+00 0.  1.
         14    1    4    4    0    0  0.75633349258E+01  0.12905191618E+02 -0.30813726597E+02  0.34252499949E+02  0.00000000000E+00 0. -1.
         -5    1    5    5    0  502 -0.10874697033E+03 -0.45665348171E+01  0.54944927265E+02  0.12201553929E+03  0.47000000000E+01 0.  1.
         13    1    6    6    0    0 -0.43870991905E+02 -0.24480150666E+02  0.15327471799E+03  0.16129811184E+03  0.00000000000E+00 0. -1.
        -14    1    6    6    0    0 -0.74550916759E+01 -0.56107203105E+02  0.43928299745E+02  0.71646996801E+02  0.00000000000E+00 0.  1.
</event>
<event>
12    1  0.9017558E-003  0.2104786E+03  0.7818608E-02  0.1141322E+00
         21   -1    0    0  501  502  0.00000000000E+00  0.00000000000E+00  0.20158806544E+03  0.20158806544E+03  0.00000000000E+00 0.  1.
         21   -1    0    0  502  503 -0.00000000000E+00 -0.00000000000E+00 -0.23638585358E+03  0.23638585358E+03  0.00000000000E+00 0.  1.
          6    2    1    2  501    0 -0.84209885190E+02 -0.86209252059E+02  0.41926084636E+02  0.21394760292E+03  0.17173363187E+03 0.  0.
         24    2    3    3    0    0 -0.43382799127E+02 -0.71881684478E+02 -0.39031080343E+02  0.12203306266E+03  0.79495907605E+02 0.  0.
         -6    2    1    2    0  503  0.84209885190E+02  0.86209252059E+02 -0.76723872770E+02  0.22402631610E+03  0.17256273569E+03 0.  0.
        -24    2    5    5    0    0  0.28586229010E+02  0.53085981365E+02  0.24866251544E+02  0.10347016509E+03  0.80327147908E+02 0.  0.
          5    1    3    3  501    0 -0.40827086064E+02 -0.14327567580E+02  0.80957164979E+02  0.91914540257E+02  0.47000000000E+01 0. -1.
        -11    1    4    4    0    0 -0.40096305649E+02  0.15730202916E+01 -0.32433027237E+01  0.40258007056E+02  0.00000000000E+00 0.  1.
         12    1    4    4    0    0 -0.32864934779E+01 -0.73454704770E+02 -0.35787777619E+02  0.81775055605E+02  0.00000000000E+00 0. -1.
         -5    1    5    5    0  503  0.55623656180E+02  0.33123270694E+02 -0.10159012431E+03  0.12055615101E+03  0.47000000000E+01 0.  1.
         13    1    6    6    0    0 -0.39802585563E+00  0.18934865297E+01 -0.25774921758E+02  0.25847442958E+02  0.00000000000E+00 0. -1.
        -14    1    6    6    0    0  0.28984254866E+02  0.51192494835E+02  0.50641173302E+02  0.77622722131E+02  0.00000000000E+00 0.  1.
</event>
<event>
12    1  0.9017558E-003  0.2279743E+03  0.7818608E-02  0.1129140E+00
         21   -1    0    0  503  502  0.00000000000E+00  0.00000000000E+00  0.17188916981E+04  0.17188916981E+04  0.00000000000E+00 0.  1.
         21   -1    0    0  501  503 -0.00000000000E+00 -0.00000000000E+00 -0.30214035047E+02  0.30214035047E+02  0.00000000000E+00 0.  1.
          6    2    1    2  501    0 -0.31181517501E+02 -0.14447168650E+03  0.99355113872E+03  0.10193704588E+04  0.17357393735E+03 0.  0.
         24    2    3    3    0    0 -0.65752959969E+02 -0.38717308618E+02  0.34700794659E+03  0.36330692346E+03  0.75861214762E+02 0.  0.
         -6    2    1    2    0  502  0.31181517501E+02  0.14447168650E+03  0.69512652436E+03  0.72973527441E+03  0.16573572520E+03 0.  0.
        -24    2    5    5    0    0  0.65553118904E+02  0.14259560032E+03  0.64671766997E+03  0.67014975716E+03  0.78906499957E+02 0.  0.
          5    1    3    3  501    0  0.34571442468E+02 -0.10575437788E+03  0.64654319213E+03  0.65606353531E+03  0.47000000000E+01 0. -1.
        -11    1    4    4    0    0 -0.60354136147E+02 -0.45632310849E+02  0.16995358316E+03  0.18603534603E+03  0.00000000000E+00 0.  1.
         12    1    4    4    0    0 -0.53988238217E+01  0.69150022310E+01  0.17705436343E+03  0.17727157743E+03  0.00000000000E+00 0. -1.
         -5    1    5    5    0  502 -0.34371601403E+02  0.18760861783E+01  0.48408854389E+02  0.59585517247E+02  0.47000000000E+01 0.  1.
         13    1    6    6    0    0  0.24283852144E+02 -0.21891773552E+01  0.70870671778E+02  0.74947649000E+02  0.00000000000E+00 0. -1.
        -14    1    6    6    0    0  0.41269266760E+02  0.14478477768E+03  0.57584699820E+03  0.59520210816E+03  0.00000000000E+00 0.  1.
</event>
<event>
12    1  0.9017558E-003  0.1908313E+03  0.7818608E-02  0.1158211E+00
         21   -1    0    0  503  502  0.00000000000E+00  0.00000000000E+00  0.30555656904E+03  0.30555656904E+03  0.00000000000E+00 0. -1.
         21   -1    0    0  501  503 -0.00000000000E+00 -0.00000000000E+00 -0.12271038633E+03  0.12271038633E+03  0.00000000000E+00 0. -1.
          6    2    1    2  501    0  0.81536068368E+02 -0.82559307313E+01  0.13371450320E+03  0.23121238943E+03  0.16989205344E+03 0.  0.
         24    2    3    3    0    0 -0.17290919625E+02  0.30021676071E+01  0.95472034945E+02  0.12454423714E+03  0.78027999061E+02 0.  0.
         -6    2    1    2    0  502 -0.81536068368E+02  0.82559307313E+01  0.49131679517E+02  0.19705456594E+03  0.17233771842E+03 0.  0.
        -24    2    5    5    0    0 -0.65153345241E+02  0.41272658395E+02  0.88885794302E+02  0.14263970065E+03  0.80604026232E+02 0.  0.
          5    1    3    3  501    0  0.98826987993E+02 -0.11258098338E+02  0.38242468251E+02  0.10666815228E+03  0.47000000000E+01 0. -1.
        -11    1    4    4    0    0  0.11801027323E+02  0.22762654750E+02  0.32511717029E+01  0.25845170044E+02  0.00000000000E+00 0.  1.
         12    1    4    4    0    0 -0.29091946949E+02 -0.19760487142E+02  0.92220863242E+02  0.98699067101E+02  0.00000000000E+00 0. -1.
         -5    1    5    5    0  502 -0.16382723127E+02 -0.33016727664E+02 -0.39754114785E+02  0.54414865295E+02  0.47000000000E+01 0.  1.
         13    1    6    6    0    0 -0.51510429631E+02  0.35419017501E+01  0.78632920937E+01  0.52227395027E+02  0.00000000000E+00 0. -1.
        -14    1    6    6    0    0 -0.13642915610E+02  0.37730756645E+02  0.81022502209E+02  0.90412305620E+02  0.00000000000E+00 0.  1.
</event>
<event>
12    1  0.9017558E-003  0.1733321E+03  0.7818608E-02  0.1174478E+00
         21   -1    0    0  501  502  0.00000000000E+00  0.00000000000E+00  0.59163512451E+03  0.59163512451E+03  0.00000000000E+00 0.  1.
         21   -1    0    0  502  503 -0.00000000000E+00 -0.00000000000E+00 -0.56665332388E+02  0.56665332388E+02  0.00000000000E+00 0.  1.
          6    2    1    2  501    0  0.16225863667E+02  0.15253861979E+02  0.37239407253E+03  0.41065599555E+03  0.17165384490E+03 0.  0.
         24    2    3    3    0    0  0.52011877766E+02 -0.43300523619E+02  0.22521672610E+03  0.24819825895E+03  0.79370216445E+02 0.  0.
         -6    2    1    2    0  503 -0.16225863667E+02 -0.15253861979E+02  0.16257571960E+03  0.23764446135E+03  0.17189551027E+03 0.  0.
        -24    2    5    5    0    0 -0.52801377569E+02 -0.60433157216E+02  0.91288881078E+02  0.14554212543E+03  0.80054347184E+02 0.  0.
          5    1    3    3  501    0 -0.35786014099E+02  0.58554385598E+02  0.14717734643E+03  0.16245773659E+03  0.47000000000E+01 0. -1.
        -11    1    4    4    0    0  0.46582112162E+01  0.22454973472E+02  0.41758325167E+02  0.47641184768E+02  0.00000000000E+00 0.  1.
         12    1    4    4    0    0  0.47353666550E+02 -0.65755497091E+02  0.18345840093E+03  0.20055707419E+03  0.00000000000E+00 0. -1.
         -5    1    5    5    0  503  0.36575513902E+02  0.45179295237E+02  0.71286838519E+02  0.92102335917E+02  0.47000000000E+01 0.  1.
         11    1    6    6    0    0 -0.35307956037E+02  0.68772906237E+01  0.76672210556E+01  0.36779548184E+02  0.00000000000E+00 0. -1.
        -12    1    6    6    0    0 -0.17493421532E+02 -0.67310447840E+02  0.83621660022E+02  0.10876257725E+03  0.00000000000E+00 0.  1.
</event>
<event>
12    1  0.9017558E-003  0.1815676E+03  0.7818608E-02  0.1166297E+00
         21   -1    0    0  503  502  0.00000000000E+00  0.00000000000E+00  0.15070890471E+04  0.15070890471E+04  0.00000000000E+00 0. -1.
         21   -1    0    0  501  503 -0.00000000000E+00 -0.00000000000E+00 -0.27308754278E+02  0.27308754278E+02  0.00000000000E+00 0. -1.
          6    2    1    2  501    0 -0.38210738357E+02  0.44292654173E+02  0.39758637262E+03  0.43707812952E+03  0.17187340653E+03 0.  0.
         24    2    3    3    0    0 -0.57116869817E+02 -0.29582908228E+02  0.26760073806E+03  0.28630215094E+03  0.78875099627E+02 0.  0.
         -6    2    1    2    0  502  0.38210738357E+02 -0.44292654173E+02  0.10821939202E+04  0.10973196719E+04  0.17188624607E+03 0.  0.
        -24    2    5    5    0    0  0.58855410176E+02 -0.86410675365E+02  0.83043294927E+03  0.84118336699E+03  0.83903572971E+02 0.  0.
          5    1    3    3  501    0  0.18906131460E+02  0.73875562401E+02  0.12998563456E+03  0.15077597859E+03  0.47000000000E+01 0. -1.
        -11    1    4    4    0    0 -0.29786897169E+02 -0.50771654584E+02  0.21819754488E+03  0.22599820518E+03  0.00000000000E+00 0.  1.
         12    1    4    4    0    0 -0.27329972648E+02  0.21188746356E+02  0.49403193181E+02  0.60303945755E+02  0.00000000000E+00 0. -1.
         -5    1    5    5    0  502 -0.20644671819E+02  0.42118021192E+02  0.25176097093E+03  0.25613630486E+03  0.47000000000E+01 0.  1.
         13    1    6    6    0    0  0.79203409556E+02 -0.74364470258E+02  0.62240859126E+03  0.63181936422E+03  0.00000000000E+00 0. -1.
        -14    1    6    6    0    0 -0.20347999380E+02 -0.12046205106E+02  0.20802435800E+03  0.20936400278E+03  0.00000000000E+00 0.  1.
</event>
<event>
12    1  0.9017558E-003  0.1820295E+03  0.7818608E-02  0.1166210E+00
         21   -1    0    0  503  502  0.00000000000E+00  0.00000000000E+00  0.97988443478E+02  0.97988443478E+02  0.00000000000E+00 0. -1.
         21   -1    0    0  501  503 -0.00000000000E+00 -0.00000000000E+00 -0.39878135740E+03  0.39878135740E+03  0.00000000000E+00 0. -1.
          6    2    1    2  501    0  0.45192078350E+02 -0.38745259684E+02 -0.24994853356E+03  0.30920707790E+03  0.17202101181E+03 0.  0.
         24    2    3    3    0    0  0.40946853203E+02  0.27801410652E+02 -0.21214628691E+03  0.23241136760E+03  0.80990329784E+02 0.  0.
         -6    2    1    2    0  502 -0.45192078350E+02  0.38745259684E+02 -0.50844380361E+02  0.18756272297E+03  0.17044384688E+03 0.  0.
        -24    2    5    5    0    0 -0.51162899914E+02  0.61627674788E+01  0.28975403525E+02  0.10101471659E+03  0.81907123794E+02 0.  0.
          5    1    3    3  501    0  0.42452251473E+01 -0.66546670336E+02 -0.37802246647E+02  0.76795710303E+02  0.47000000000E+01 0. -1.
        -11    1    4    4    0    0  0.65407163842E+02  0.20383116638E+02 -0.16744550049E+03  0.18091866725E+03  0.00000000000E+00 0.  1.
         12    1    4    4    0    0 -0.24460310639E+02  0.74182940139E+01 -0.44700786424E+02  0.51492700352E+02  0.00000000000E+00 0. -1.
         -5    1    5    5    0  502  0.59708215636E+01  0.32582492206E+02 -0.79819783886E+02  0.86548006378E+02  0.47000000000E+01 0.  1.
         13    1    6    6    0    0 -0.67841131538E+02 -0.33279547185E+01  0.20534647799E+01  0.67953742564E+02  0.00000000000E+00 0. -1.
        -14    1    6    6    0    0  0.16678231624E+02  0.94907221972E+01  0.26921938745E+02  0.33060974028E+02  0.00000000000E+00 0.  1.
</event>
<event>
12    1  0.9017558E-003  0.2503341E+03  0.7818608E-02  0.1113524E+00
         21   -1    0    0  503  502  0.00000000000E+00  0.00000000000E+00  0.10451262552E+04  0.10451262552E+04  0.00000000000E+00 0.  1.
         21   -1    0    0  501  503 -0.00000000000E+00 -0.00000000000E+00 -0.59901452196E+02  0.59901452196E+02  0.00000000000E+00 0. -1.
          6    2    1    2  501    0  0.81961571654E+02  0.15837008532E+03  0.54999093838E+03  0.60428238064E+03  0.17569399564E+03 0.  0.
         24    2    3    3    0    0  0.12431852503E+03  0.14352193461E+03  0.46583898455E+03  0.50879300735E+03  0.76228101247E+02 0.  0.
         -6    2    1    2    0  502 -0.81961571654E+02 -0.15837008532E+03  0.43523386462E+03  0.50074532675E+03  0.17180972672E+03 0.  0.
        -24    2    5    5    0    0 -0.26565142745E+02 -0.16993443038E+03  0.30973224654E+03  0.36299466594E+03  0.79042049048E+02 0.  0.
          5    1    3    3  501    0 -0.42356953376E+02  0.14848150713E+02  0.84151953824E+02  0.95489373290E+02  0.47000000000E+01 0. -1.
        -11    1    4    4    0    0  0.10459159425E+03  0.10017449704E+03  0.26097943943E+03  0.29847043279E+03  0.00000000000E+00 0.  1.
         12    1    4    4    0    0  0.19726930783E+02  0.43347437567E+02  0.20485954512E+03  0.21032257456E+03  0.00000000000E+00 0. -1.
         -5    1    5    5    0  502 -0.55396428909E+02  0.11564345054E+02  0.12550161808E+03  0.13775066081E+03  0.47000000000E+01 0.  1.
         13    1    6    6    0    0 -0.85932811751E+01 -0.14527759917E+03  0.29536083754E+03  0.32926805137E+03  0.00000000000E+00 0. -1.
        -14    1    6    6    0    0 -0.17971861570E+02 -0.24656831210E+02  0.14371408998E+02  0.33726614568E+02  0.00000000000E+00 0.  1.
</event>
<event>
12    1  0.9017558E-003  0.2727543E+03  0.7818608E-02  0.1099942E+00
         21   -1    0    0  501  502  0.00000000000E+00  0.00000000000E+00  0.31104219564E+03  0.31104219564E+03  0.00000000000E+00 0. -1.
         21   -1    0    0  502  503 -0.00000000000E+00 -0.00000000000E+00 -0.53986074997E+03  0.53986074997E+03  0.00000000000E+00 0.  1.
          6    2    1    2  501    0 -0.85508971442E+02 -0.19182248176E+03  0.20369943650E+03  0.34042381166E+03  0.17403236023E+03 0.  0.
         24    2    3    3    0    0 -0.10509890852E+03 -0.94548753633E+02  0.17163165867E+03  0.23603810290E+03  0.79191618086E+02 0.  0.
         -6    2    1    2    0  503  0.85508971442E+02  0.19182248176E+03 -0.43251799083E+03  0.51047913395E+03  0.17149193890E+03 0.  0.
        -24    2    5    5    0    0 -0.13137127446E+02  0.11340024518E+03 -0.27819163679E+03  0.31118083099E+03  0.80066991128E+02 0.  0.
          5    1    3    3  501    0  0.19589937082E+02 -0.97273728126E+02  0.32067777827E+02  0.10438570876E+03  0.47000000000E+01 0. -1.
        -11    1    4    4    0    0  0.79964209316E+01 -0.31618136996E+02  0.34685265290E+02  0.47610051072E+02  0.00000000000E+00 0.  1.
         12    1    4    4    0    0 -0.11309532946E+03 -0.62930616636E+02  0.13694639338E+03  0.18842805183E+03  0.00000000000E+00 0. -1.
         -5    1    5    5    0  503  0.98646098888E+02  0.78422236574E+02 -0.15432635403E+03  0.19929830297E+03  0.47000000000E+01 0.  1.
         11    1    6    6    0    0 -0.44923940504E+01 -0.75687990166E+01 -0.67549021922E+02  0.68120031455E+02  0.00000000000E+00 0. -1.
        -12    1    6    6    0    0 -0.86447333959E+01  0.12096904420E+03 -0.21064261487E+03  0.24306079953E+03  0.00000000000E+00 0.  1.
</event>
<event>
12    1  0.9017558E-003  0.1774561E+03  0.7818608E-02  0.1170339E+00
         21   -1    0    0  503  502  0.00000000000E+00  0.00000000000E+00  0.48942716592E+03  0.48942716592E+03  0.00000000000E+00 0. -1.
         21   -1    0    0  501  503 -0.00000000000E+00 -0.00000000000E+00 -0.64610915368E+02  0.64610915368E+02  0.00000000000E+00 0.  1.
          6    2    1    2  501    0 -0.28104160298E+02 -0.32231182222E+02  0.23273699910E+03  0.29267246247E+03  0.17222649797E+03 0.  0.
         24    2    3    3    0    0 -0.33129594197E+02  0.28132335283E+02  0.60432192880E+02  0.10997039494E+03  0.80947140327E+02 0.  0.
         -6    2    1    2    0  502  0.28104160298E+02  0.32231182222E+02  0.19207925145E+03  0.26136561882E+03  0.17201411259E+03 0.  0.
        -24    2    5    5    0    0  0.47557318438E+02  0.18379115084E+02  0.21042274816E+03  0.23088810257E+03  0.80200327659E+02 0.  0.
          5    1    3    3  501    0  0.50254338986E+01 -0.60363517505E+02  0.17230480622E+03  0.18270206753E+03  0.47000000000E+01 0. -1.
        -11    1    4    4    0    0 -0.53159710552E+02  0.41781414540E+02  0.45606260352E+02  0.81557172648E+02  0.00000000000E+00 0.  1.
         12    1    4    4    0    0  0.20030116355E+02 -0.13649079257E+02  0.14825932528E+02  0.28413222294E+02  0.00000000000E+00 0. -1.
         -5    1    5    5    0  502 -0.19453158140E+02  0.13852067137E+02 -0.18343496706E+02  0.30477516254E+02  0.47000000000E+01 0.  1.
         11    1    6    6    0    0  0.65440451529E+02  0.26303291791E+02  0.12767850689E+03  0.14586335035E+03  0.00000000000E+00 0. -1.
        -12    1    6    6    0    0 -0.17883133091E+02 -0.79241767070E+01  0.82744241270E+02  0.85024752214E+02  0.00000000000E+00 0.  1.
</event>
<event>
12    1  0.9017558E-003  0.1735835E+03  0.7818608E-02  0.1174333E+00
         21   -1    0    0  503  502  0.00000000000E+00  0.00000000000E+00  0.13664724783E+04  0.13664724783E+04  0.00000000000E+00 0.  1.
         21   -1    0    0  501  503 -0.00000000000E+00 -0.00000000000E+00 -0.25279734463E+02  0.25279734463E+02  0.00000000000E+00 0.  1.
          6    2    1    2  501    0 -0.17713167519E+02 -0.90380608749E+01  0.41974190374E+03  0.45421854784E+03  0.17244065821E+03 0.  0.
         24    2    3    3    0    0  0.42221498204E+02 -0.28693052685E+02  0.15525963956E+03  0.18227840568E+03  0.80708830475E+02 0.  0.
         -6    2    1    2    0  502  0.17713167519E+02  0.90380608749E+01  0.92145084008E+03  0.93753366490E+03  0.17176227551E+03 0.  0.
        -24    2    5    5    0    0 -0.30461719781E+02  0.58088433724E+02  0.60130248958E+03  0.61005264992E+03  0.79355965098E+02 0.  0.
          5    1    3    3  501    0 -0.59934665724E+02  0.19654991811E+02  0.26448226417E+03  0.27194014216E+03  0.47000000000E+01 0. -1.
        -13    1    4    4    0    0 -0.50614398933E+01  0.22646492946E+02  0.22672756631E+02  0.32442806750E+02  0.00000000000E+00 0.  1.
         14    1    4    4    0    0  0.47282938098E+02 -0.51339545632E+02  0.13258688293E+03  0.14983559893E+03  0.00000000000E+00 0. -1.
         -5    1    5    5    0  502  0.48174887300E+02 -0.49050372849E+02  0.32014835050E+03  0.32748101498E+03  0.47000000000E+01 0.  1.
         13    1    6    6    0    0 -0.49434555864E+02  0.91027848697E+01  0.31087570317E+03  0.31491322428E+03  0.00000000000E+00 0. -1.
        -14    1    6    6    0    0  0.18972836083E+02  0.48985648854E+02  0.29042678641E+03  0.29513942564E+03  0.00000000000E+00 0.  1.
</event>
<event>
12    1  0.9017558E-003  0.2032601E+03  0.7818608E-02  0.1147656E+00
         21   -1    0    0  501  502  0.00000000000E+00  0.00000000000E+00  0.65914558876E+02  0.65914558876E+02  0.00000000000E+00 0. -1.
         21   -1    0    0  502  503 -0.00000000000E+00 -0.00000000000E+00 -0.66465622712E+03  0.66465622712E+03  0.00000000000E+00 0.  1.
          6    2    1    2  501    0 -0.10058938713E+03  0.31844777711E+02 -0.19981748039E+03  0.28284856652E+03  0.17012927861E+03 0.  0.
         24    2    3    3    0    0 -0.74225373832E+01  0.52729585576E+02 -0.13849181477E+03  0.16927407838E+03  0.81475318953E+02 0.  0.
         -6    2    1    2    0  503  0.10058938713E+03 -0.31844777711E+02 -0.39892418785E+03  0.44772221948E+03  0.17373072120E+03 0.  0.
        -24    2    5    5    0    0 -0.18420772364E-01  0.30953824358E+02 -0.15719619930E+03  0.17842664602E+03  0.78532053036E+02 0.  0.
          5    1    3    3  501    0 -0.93166849747E+02 -0.20884807865E+02 -0.61325665624E+02  0.11357448814E+03  0.47000000000E+01 0. -1.
        -13    1    4    4    0    0  0.94337317667E+00  0.17369507139E+02  0.74158840518E+01  0.18909919817E+02  0.00000000000E+00 0.  1.
         14    1    4    4    0    0 -0.83659105599E+01  0.35360078437E+02 -0.14590769882E+03  0.15036415857E+03  0.00000000000E+00 0. -1.
         -5    1    5    5    0  503  0.10060780790E+03 -0.62798602069E+02 -0.24172798855E+03  0.26929557346E+03  0.47000000000E+01 0.  1.
         11    1    6    6    0    0  0.15692599517E+02  0.10036504508E+02  0.44160729829E+00  0.18632877377E+02  0.00000000000E+00 0. -1.
        -12    1    6    6    0    0 -0.15711020289E+02  0.20917319850E+02 -0.15763780660E+03  0.15979376864E+03  0.00000000000E+00 0.  1.
</event>
<event>
12    1  0.9017558E-003  0.3413929E+03  0.7818608E-02  0.1066475E+00
         21   -1    0    0  503  502  0.00000000000E+00  0.00000000000E+00  0.13318100386E+03  0.13318100386E+03  0.00000000000E+00 0.  1.
         21   -1    0    0  501  503 -0.00000000000E+00 -0.00000000000E+00 -0.92060206255E+03  0.92060206255E+03  0.00000000000E+00 0.  1.
          6    2    1    2  501    0 -0.35950417506E+02  0.29064788094E+03 -0.52033216993E+03  0.62233005714E+03  0.17544375095E+03 0.  0.
         24    2    3    3    0    0 -0.68124372202E+02  0.18803300163E+03 -0.43251743061E+03  0.48341103304E+03  0.81348382224E+02 0.  0.
         -6    2    1    2    0  502  0.35950417506E+02 -0.29064788094E+03 -0.26708888876E+03  0.43145300927E+03  0.17043063544E+03 0.  0.
        -24    2    5    5    0    0 -0.14438047782E+02 -0.63547147892E+02 -0.55714297467E+02  0.11710439988E+03  0.79766285478E+02 0.  0.
          5    1    3    3  501    0  0.32173954696E+02  0.10261487931E+03 -0.87814739316E+02  0.13891902411E+03  0.47000000000E+01 0. -1.
        -11    1    4    4    0    0 -0.32616792496E+01  0.24956469304E+02 -0.12292881310E+02  0.28010334567E+02  0.00000000000E+00 0.  1.
         12    1    4    4    0    0 -0.64862692952E+02  0.16307653232E+03 -0.42022454930E+03  0.45540069847E+03  0.00000000000E+00 0. -1.
         -5    1    5    5    0  502  0.50388465288E+02 -0.22710073305E+03 -0.21137459129E+03  0.31434860940E+03  0.47000000000E+01 0.  1.
         11    1    6    6    0    0  0.29851629663E+02 -0.30848536040E+02 -0.42672015251E+02  0.60528116235E+02  0.00000000000E+00 0. -1.
        -12    1    6    6    0    0 -0.44289677445E+02 -0.32698611852E+02 -0.13042282216E+02  0.56576283641E+02  0.00000000000E+00 0.  1.
</event>
<event>
12    1  0.9017558E-003  0.1862350E+03  0.7818608E-02  0.1163714E+00
         21   -1    0    0  503  502  0.00000000000E+00  0.00000000000E+00  0.68502966367E+02  0.68502966367E+02  0.00000000000E+00 0. -1.
         21   -1    0    0  501  503 -0.00000000000E+00 -0.00000000000E+00 -0.48815662595E+03  0.48815662595E+03  0.00000000000E+00 0. -1.
          6    2    1    2  501    0  0.46926079170E+02 -0.53920497924E+02 -0.23394237647E+03  0.29901924968E+03  0.17197092536E+03 0.  0.
         24    2    3    3    0    0  0.27071032714E+02 -0.10312996559E+03 -0.18088928938E+03  0.22383604260E+03  0.77543589918E+02 0.  0.
         -6    2    1    2    0  502 -0.46926079170E+02  0.53920497924E+02 -0.18571128312E+03  0.25764034264E+03  0.16364714625E+03 0.  0.
        -24    2    5    5    0    0  0.35076875992E+02  0.36249610225E+02 -0.53846707468E+02  0.10128465442E+03  0.69387980549E+02 0.  0.
          5    1    3    3  501    0  0.19855046455E+02  0.49209467667E+02 -0.53053087083E+02  0.75183207081E+02  0.47000000000E+01 0. -1.
        -11    1    4    4    0    0  0.61197872812E+01 -0.42193575664E+02 -0.14269769339E+03  0.14893079374E+03  0.00000000000E+00 0.  1.
         12    1    4    4    0    0  0.20951245433E+02 -0.60936389928E+02 -0.38191595990E+02  0.74905248861E+02  0.00000000000E+00 0. -1.
         -5    1    5    5    0  502 -0.82002955162E+02  0.17670887699E+02 -0.13186457565E+03  0.15635568822E+03  0.47000000000E+01 0.  1.
         11    1    6    6    0    0  0.12111196105E+02  0.49890673001E+02 -0.54085531330E+02  0.74572146427E+02  0.00000000000E+00 0. -1.
        -12    1    6    6    0    0  0.22965679888E+02 -0.13641062776E+02  0.23882386113E+00  0.26712507992E+02  0.00000000000E+00 0.  1.
</event>
<event>
12    1  0.9017558E-003  0.1970419E+03  0.7818608E-02  0.1152803E+00
         21   -1    0    0  503  502  0.00000000000E+00  0.00000000000E+00  0.11398031835E+04  0.11398031835E+04  0.00000000000E+00 0. -1.
         21   -1    0    0  501  503 -0.00000000000E+00 -0.00000000000E+00 -0.38659327525E+02  0.38659327525E+02  0.00000000000E+00 0. -1.
          6    2    1    2  501    0 -0.95305470814E+01  0.93337123476E+02  0.33497916934E+03  0.38736591039E+03  0.17040731997E+03 0.  0.
         24    2    3    3    0    0 -0.35600516080E+02  0.77755762522E+02  0.33686896563E+03  0.35657494706E+03  0.79697161300E+02 0.  0.
         -6    2    1    2    0  502  0.95305470814E+01 -0.93337123476E+02  0.76616468659E+03  0.79109660059E+03  0.17327104355E+03 0.  0.
        -24    2    5    5    0    0  0.15623364945E+02  0.20767127811E+02  0.33497586671E+03  0.34499931189E+03  0.78360262870E+02 0.  0.
          5    1    3    3  501    0  0.26069968999E+02  0.15581360954E+02 -0.18897962899E+01  0.30790963330E+02  0.47000000000E+01 0. -1.
        -13    1    4    4    0    0  0.24586031018E+02  0.33724261144E+02  0.10420030742E+03  0.11224750677E+03  0.00000000000E+00 0.  1.
         14    1    4    4    0    0 -0.60186547098E+02  0.44031501378E+02  0.23266865821E+03  0.24432744029E+03  0.00000000000E+00 0. -1.
         -5    1    5    5    0  502 -0.60928178638E+01 -0.11410425129E+03  0.43118881988E+03  0.44609728870E+03  0.47000000000E+01 0.  1.
         11    1    6    6    0    0  0.42124573878E+00 -0.17878035370E+02  0.24772647972E+03  0.24837111417E+03  0.00000000000E+00 0. -1.
        -12    1    6    6    0    0  0.15202119206E+02  0.38645163181E+02  0.87249386987E+02  0.96628197723E+02  0.00000000000E+00 0.  1.
</event>
<event>
12    1  0.9017558E-003  0.2043815E+03  0.7818608E-02  0.1146216E+00
         21   -1    0    0  503  502  0.00000000000E+00  0.00000000000E+00  0.45015557619E+02  0.45015557619E+02  0.00000000000E+00 0.  1.
         21   -1    0    0  501  503 -0.00000000000E+00 -0.00000000000E+00 -0.95105588506E+03  0.95105588506E+03  0.00000000000E+00 0.  1.
          6    2    1    2  501    0  0.61909919065E+02  0.90223883204E+02 -0.37034586713E+03  0.42271260773E+03  0.17192062195E+03 0.  0.
         24    2    3    3    0    0 -0.20782648942E+02  0.68024633097E+02 -0.13303430239E+03  0.17038398020E+03  0.79204203751E+02 0.  0.
         -6    2    1    2    0  502 -0.61909919065E+02 -0.90223883204E+02 -0.53569446031E+03  0.57335883495E+03  0.17262274367E+03 0.  0.
        -24    2    5    5    0    0 -0.62405191292E+02 -0.95664354000E+02 -0.23839185247E+03  0.27596889792E+03  0.79259578421E+02 0.  0.
          5    1    3    3  501    0  0.82692568008E+02  0.22199250107E+02 -0.23731156475E+03  0.25232862753E+03  0.47000000000E+01 0. -1.
        -13    1    4    4    0    0  0.93502721907E+01  0.61737558616E+02 -0.44568197639E+02  0.76715565400E+02  0.00000000000E+00 0.  1.
         14    1    4    4    0    0 -0.30132921133E+02  0.62870744808E+01 -0.88466104751E+02  0.93668414801E+02  0.00000000000E+00 0. -1.
         -5    1    5    5    0  502  0.49527222653E+00  0.54404707958E+01 -0.29730260784E+03  0.29738993703E+03  0.47000000000E+01 0.  1.
         13    1    6    6    0    0 -0.43787076510E+02 -0.21506232743E+02 -0.39118863363E+02  0.62530885064E+02  0.00000000000E+00 0. -1.
        -14    1    6    6    0    0 -0.18618114782E+02 -0.74158121257E+02 -0.19927298911E+03  0.21343801286E+03  0.00000000000E+00 0.  1.
</event>
<event>
12    1  0.9017558E-003  0.2389179E+03  0.7818608E-02  0.1120702E+00
         21   -1    0    0  501  502  0.00000000000E+00  0.00000000000E+00  0.11497910615E+03  0.11497910615E+03  0.00000000000E+00 0.  1.
         21   -1    0    0  502  503 -0.00000000000E+00 -0.00000000000E+00 -0.52912427620E+03  0.52912427620E+03  0.00000000000E+00 0.  1.
          6    2    1    2  501    0  0.12718459853E+03  0.10479900786E+03 -0.28941680562E+03  0.37458730283E+03  0.17144913506E+03 0.  0.
         24    2    3    3    0    0  0.73153565752E+02  0.13193555514E+03 -0.22847132533E+03  0.28860947854E+03  0.91311826790E+02 0.  0.
         -6    2    1    2    0  503 -0.12718459853E+03 -0.10479900786E+03 -0.12472836443E+03  0.26951607952E+03  0.17298265253E+03 0.  0.
        -24    2    5    5    0    0  0.90957449888E-01 -0.32988241004E+02 -0.80055297121E+02  0.11663172346E+03  0.78140104952E+02 0.  0.
          5    1    3    3  501    0  0.54031032780E+02 -0.27136547283E+02 -0.60945480284E+02  0.85977824285E+02  0.47000000000E+01 0. -1.
        -13    1    4    4    0    0  0.55679360791E+02  0.37494902837E+02 -0.15088287490E+03  0.16514145723E+03  0.00000000000E+00 0.  1.
         14    1    4    4    0    0  0.17474204961E+02  0.94440652304E+02 -0.77588450432E+02  0.12346802131E+03  0.00000000000E+00 0. -1.
         -5    1    5    5    0  503 -0.12727555598E+03 -0.71810766853E+02 -0.44673067312E+02  0.15288435607E+03  0.47000000000E+01 0.  1.
         13    1    6    6    0    0  0.36799446260E+02 -0.15355237495E+02 -0.21483180832E+02  0.45293593611E+02  0.00000000000E+00 0. -1.
        -14    1    6    6    0    0 -0.36708488810E+02 -0.17633003509E+02 -0.58572116289E+02  0.71338129847E+02  0.00000000000E+00 0.  1.
</event>
<event>
12    1  0.9017558E-003  0.2565093E+03  0.7818608E-02  0.1109359E+00
         21   -1    0    0  503  502  0.00000000000E+00  0.00000000000E+00  0.32061902785E+03  0.32061902785E+03  0.00000000000E+00 0. -1.
         21   -1    0    0  501  503 -0.00000000000E+00 -0.00000000000E+00 -0.25948634931E+03  0.25948634931E+03  0.00000000000E+00 0. -1.
          6    2    1    2  501    0  0.18566954707E+03  0.34679138284E+02 -0.10274685695E+03  0.27571495784E+03  0.17258620461E+03 0.  0.
         24    2    3    3    0    0  0.17686475539E+03  0.26888398753E+02 -0.13652307959E+03  0.23964359531E+03  0.82379450249E+02 0.  0.
         -6    2    1    2    0  502 -0.18566954707E+03 -0.34679138284E+02  0.16387953549E+03  0.30439041932E+03  0.17355460778E+03 0.  0.
        -24    2    5    5    0    0 -0.54180459113E+02 -0.12335870250E+02  0.13714827270E+03  0.16828291663E+03  0.80136105979E+02 0.  0.
          5    1    3    3  501    0  0.88047916764E+01  0.77907395308E+01  0.33776222641E+02  0.36071362530E+02  0.47000000000E+01 0. -1.
        -11    1    4    4    0    0 -0.78449803299E+01 -0.45748989802E+01 -0.10256225597E+02  0.13699035753E+02  0.00000000000E+00 0.  1.
         12    1    4    4    0    0  0.18470973572E+03  0.31463297733E+02 -0.12626685400E+03  0.22594455956E+03  0.00000000000E+00 0. -1.
         -5    1    5    5    0  502 -0.13148908795E+03 -0.22343268034E+02  0.26731262792E+02  0.13610750269E+03  0.47000000000E+01 0.  1.
         11    1    6    6    0    0 -0.16430185460E+02  0.41657036139E+01 -0.70178449604E+01  0.18345414379E+02  0.00000000000E+00 0. -1.
        -12    1    6    6    0    0 -0.37750273652E+02 -0.16501573864E+02  0.14416611766E+03  0.14993750225E+03  0.00000000000E+00 0.  1.
</event>
<event>
12    1  0.9017558E-003  0.2873846E+03  0.7818608E-02  0.1092492E+00
         21   -1    0    0  501  502  0.00000000000E+00  0.00000000000E+00  0.20175166702E+03  0.20175166702E+03  0.00000000000E+00 0. -1.
         21   -1    0    0  502  503 -0.00000000000E+00 -0.00000000000E+00 -0.40610868871E+03  0.40610868871E+03  0.00000000000E+00 0. -1.
          6    2    1    2  501    0 -0.10873158469E+03  0.19429732837E+03 -0.13457706330E+03  0.31212540979E+03  0.17244499455E+03 0.  0.
         24    2    3    3    0    0 -0.83237373906E+02  0.39937924203E+02 -0.31031630412E+02  0.12445408243E+03  0.77474888472E+02 0.  0.
         -6    2    1    2    0  503  0.10873158469E+03 -0.19429732837E+03 -0.69779958386E+02  0.29573494595E+03  0.18170279674E+03 0.  0.
        -24    2    5    5    0    0  0.83305366948E+02 -0.21997466114E+03 -0.74310205503E+02  0.25901395596E+03  0.78978395976E+02 0.  0.
          5    1    3    3  501    0 -0.25494210785E+02  0.15435940417E+03 -0.10354543289E+03  0.18767132736E+03  0.47000000000E+01 0. -1.
        -13    1    4    4    0    0 -0.43409276084E+02  0.14977486732E+02  0.24218267030E+02  0.51915458361E+02  0.00000000000E+00 0.  1.
         14    1    4    4    0    0 -0.39828097822E+02  0.24960437471E+02 -0.55249897442E+02  0.72538624072E+02  0.00000000000E+00 0. -1.
         -5    1    5    5    0  503  0.25426217744E+02  0.25677332773E+02  0.45302471166E+01  0.36720989993E+02  0.47000000000E+01 0.  1.
         11    1    6    6    0    0  0.69717378777E+02 -0.15061506847E+03 -0.14814066339E+02  0.16662793378E+03  0.00000000000E+00 0. -1.
        -12    1    6    6    0    0  0.13587988170E+02 -0.69359592668E+02 -0.59496139164E+02  0.92386022173E+02  0.00000000000E+00 0.  1.
</event>
<event>
12    1  0.9017558E-003  0.2254622E+03  0.7818608E-02  0.1130139E+00
         21   -1    0    0  501  502  0.00000000000E+00  0.00000000000E+00  0.15238278933E+03  0.15238278933E+03  0.00000000000E+00 0. -1.
         21   -1    0    0  502  503 -0.00000000000E+00 -0.00000000000E+00 -0.62660511256E+03  0.62660511256E+03  0.00000000000E+00 0.  1.
          6    2    1    2  501    0 -0.11037282612E+03 -0.91504815108E+02  0.29804978583E+02  0.22742366839E+03  0.17400544895E+03 0.  0.
         24    2    3    3    0    0 -0.73397160767E+02 -0.73749319377E+00 -0.34853244083E+02  0.10991331858E+03  0.74016902614E+02 0.  0.
         -6    2    1    2    0  503  0.11037282612E+03  0.91504815108E+02 -0.50402730182E+03  0.55156423349E+03  0.17211708445E+03 0.  0.
        -24    2    5    5    0    0  0.61570736448E+02  0.78017134612E+02 -0.17580057127E+03  0.21942203785E+03  0.85805366709E+02 0.  0.
          5    1    3    3  501    0 -0.36975665352E+02 -0.90767321914E+02  0.64658222666E+02  0.11751034982E+03  0.47000000000E+01 0. -1.
        -13    1    4    4    0    0  0.13642446699E+02  0.40688711356E+01 -0.14655622187E+02  0.20431821405E+02  0.00000000000E+00 0.  1.
         14    1    4    4    0    0 -0.87039607466E+02 -0.48063643294E+01 -0.20197621897E+02  0.89481497172E+02  0.00000000000E+00 0. -1.
         -5    1    5    5    0  503  0.48802089670E+02  0.13487680496E+02 -0.32822673054E+03  0.33214219564E+03  0.47000000000E+01 0.  1.
         11    1    6    6    0    0  0.55680843006E+01 -0.14963938555E+02 -0.44321028085E+01  0.16570049944E+02  0.00000000000E+00 0. -1.
        -12    1    6    6    0    0  0.56002652148E+02  0.92981073167E+02 -0.17136846847E+03  0.20285198791E+03  0.00000000000E+00 0.  1.
</event>
<event>
12    1  0.9017558E-003  0.1976675E+03  0.7818608E-02  0.1151963E+00
         21   -1    0    0  501  502  0.00000000000E+00  0.00000000000E+00  0.38644567317E+02  0.38644567317E+02  0.00000000000E+00 0.  1.
         21   -1    0    0  502  503 -0.00000000000E+00 -0.00000000000E+00 -0.10139014324E+04  0.10139014324E+04  0.00000000000E+00 0. -1.
          6    2    1    2  501    0  0.59994939233E+02  0.69501827426E+02 -0.43789016860E+03  0.47997687577E+03  0.17378177339E+03 0.  0.
         24    2    3    3    0    0  0.87401089463E+01 -0.17334964003E+02 -0.11044857194E+03  0.13732869585E+03  0.79267857166E+02 0.  0.
         -6    2    1    2    0  503 -0.59994939233E+02 -0.69501827426E+02 -0.53736669647E+03  0.57256912394E+03  0.17505010273E+03 0.  0.
        -24    2    5    5    0    0  0.61582154802E+01 -0.59091494955E+02 -0.15200430102E+03  0.18140307131E+03  0.79196201671E+02 0.  0.
          5    1    3    3  501    0  0.51254830287E+02  0.86836791429E+02 -0.32744159667E+03  0.34264817992E+03  0.47000000000E+01 0. -1.
        -13    1    4    4    0    0 -0.30257521079E+02 -0.15156597384E+02 -0.21267179679E+02  0.39969150074E+02  0.00000000000E+00 0.  1.
         14    1    4    4    0    0  0.38997630026E+02 -0.21783666189E+01 -0.89181392258E+02  0.97359545776E+02  0.00000000000E+00 0. -1.
         -5    1    5    5    0  503 -0.66153154713E+02 -0.10410332471E+02 -0.38536239545E+03  0.39116605263E+03  0.47000000000E+01 0.  1.
         11    1    6    6    0    0  0.23414168860E+02 -0.13786166876E+02 -0.12063941450E+03  0.12366143308E+03  0.00000000000E+00 0. -1.
        -12    1    6    6    0    0 -0.17255953380E+02 -0.45305328079E+02 -0.31364886521E+02  0.57741638233E+02  0.00000000000E+00 0.  1.
</event>
<event>
12    1  0.9017558E-003  0.2174886E+03  0.7818608E-02  0.1137150E+00
         21   -1    0    0  501  502  0.00000000000E+00  0.00000000000E+00  0.35106883010E+03  0.35106883010E+03  0.00000000000E+00 0.  1.
         21   -1    0    0  502  503 -0.00000000000E+00 -0.00000000000E+00 -0.13391929182E+03  0.13391929182E+03  0.00000000000E+00 0. -1.
          6    2    1    2  501    0  0.48961537983E+01 -0.12100496480E+03  0.15002539640E+03  0.26421374372E+03  0.18065190001E+03 0.  0.
         24    2    3    3    0    0  0.67407551906E+02 -0.36541831187E+02  0.74535519030E+02  0.13474364131E+03  0.81983057978E+02 0.  0.
         -6    2    1    2    0  503 -0.48961537983E+01  0.12100496480E+03  0.67124141885E+02  0.22077437820E+03  0.17195784896E+03 0.  0.
        -24    2    5    5    0    0 -0.39690604478E+02  0.20865985169E+02 -0.60337878873E+01  0.91884340849E+02  0.79972445731E+02 0.  0.
          5    1    3    3  501    0 -0.62511398108E+02 -0.84463133614E+02  0.75489877367E+02  0.12947010241E+03  0.47000000000E+01 0. -1.
        -13    1    4    4    0    0  0.18068202457E+02 -0.21861520928E+02  0.78152574464E+02  0.83139707316E+02  0.00000000000E+00 0.  1.
         14    1    4    4    0    0  0.49339349450E+02 -0.14680310259E+02 -0.36170554337E+01  0.51603933992E+02  0.00000000000E+00 0. -1.
         -5    1    5    5    0  503  0.34794450680E+02  0.10013897963E+03  0.73157929773E+02  0.12889003735E+03  0.47000000000E+01 0.  1.
         11    1    6    6    0    0 -0.29419658509E+02  0.51535586204E+02 -0.37431733839E+01  0.59459602245E+02  0.00000000000E+00 0. -1.
        -12    1    6    6    0    0 -0.10270945969E+02 -0.30669601035E+02 -0.22906145034E+01  0.32424738604E+02  0.00000000000E+00 0.  1.
</event>
<event>
12    1  0.9017558E-003  0.1818714E+03  0.7818608E-02  0.1166753E+00
         21   -1    0    0  503  502  0.00000000000E+00  0.00000000000E+00  0.21302468151E+03  0.21302468151E+03  0.00000000000E+00 0.  1.
         21   -1    0    0  501  503 -0.00000000000E+00 -0.00000000000E+00 -0.22422918133E+03  0.22422918133E+03  0.00000000000E+00 0.  1.
          6    2    1    2  501    0 -0.13933152856E+02  0.49638095086E+02 -0.12917092990E+03  0.22307473199E+03  0.17441081873E+03 0.  0.
         24    2    3    3    0    0  0.36024115325E+02  0.85320651382E+02 -0.86160792665E+02  0.14796857131E+03  0.76770212092E+02 0.  0.
         -6    2    1    2    0  502  0.13933152856E+02 -0.49638095086E+02  0.11796643008E+03  0.21417913085E+03  0.17116818698E+03 0.  0.
        -24    2    5    5    0    0 -0.68503431301E+00  0.65867082710E+01  0.13172204921E+03  0.15429401612E+03  0.80075534118E+02 0.  0.
          5    1    3    3  501    0 -0.49957268181E+02 -0.35682556297E+02 -0.43010137236E+02  0.75106160686E+02  0.47000000000E+01 0. -1.
        -11    1    4    4    0    0  0.22275913166E+01  0.52406763809E+01  0.14141497882E+02  0.15244960294E+02  0.00000000000E+00 0.  1.
         12    1    4    4    0    0  0.33796524009E+02  0.80079975002E+02 -0.10030229055E+03  0.13272361101E+03  0.00000000000E+00 0. -1.
         -5    1    5    5    0  502  0.14618187169E+02 -0.56224803357E+02 -0.13755619130E+02  0.59885114730E+02  0.47000000000E+01 0.  1.
         11    1    6    6    0    0 -0.75694041596E+00 -0.19681392716E+02  0.12584425183E+03  0.12737623757E+03  0.00000000000E+00 0. -1.
        -12    1    6    6    0    0  0.71906102944E-01  0.26268100987E+02  0.58777973751E+01  0.26917778547E+02  0.00000000000E+00 0.  1.
</event>
<event>
12    1  0.9017558E-003  0.2507288E+03  0.7818608E-02  0.1113226E+00
         21   -1    0    0  503  502  0.00000000000E+00  0.00000000000E+00  0.91149827857E+03  0.91149827857E+03  0.00000000000E+00 0. -1.
         21   -1    0    0  501  503 -0.00000000000E+00 -0.00000000000E+00 -0.10442637703E+03  0.10442637703E+03  0.00000000000E+00 0.  1.
          6    2    1    2  501    0  0.10739120285E+03 -0.14397029637E+03  0.10607337215E+03  0.27224345757E+03  0.17494177095E+03 0.  0.
         24    2    3    3    0    0  0.98024167312E+02 -0.31011708191E+02  0.82522059713E+02  0.15638087381E+03  0.84110783682E+02 0.  0.
         -6    2    1    2    0  502 -0.10739120285E+03  0.14397029637E+03  0.70099852938E+03  0.74368119804E+03  0.17147148287E+03 0.  0.
        -24    2    5    5    0    0  0.52231196064E+01  0.59369790785E+02  0.29177659911E+03  0.31087187584E+03  0.89194654349E+02 0.  0.
          5    1    3    3  501    0  0.93670355353E+01 -0.11295858818E+03  0.23551312441E+02  0.11586258376E+03  0.47000000000E+01 0. -1.
        -11    1    4    4    0    0 -0.40579916284E+01 -0.22151562972E+02  0.39041999360E+02  0.45071462725E+02  0.00000000000E+00 0.  1.
         12    1    4    4    0    0  0.10208215894E+03 -0.88601452183E+01  0.43480060353E+02  0.11130941108E+03  0.00000000000E+00 0. -1.
         -5    1    5    5    0  502 -0.11261432245E+03  0.84600505581E+02  0.40922193028E+03  0.43280932220E+03  0.47000000000E+01 0.  1.
         13    1    6    6    0    0 -0.30745334797E+01  0.50111522276E+01  0.22178656704E+03  0.22186447603E+03  0.00000000000E+00 0. -1.
        -14    1    6    6    0    0  0.82976530862E+01  0.54358638557E+02  0.69990032065E+02  0.89007399810E+02  0.00000000000E+00 0.  1.
</event>
<event>
12    1  0.9017558E-003  0.2789632E+03  0.7818608E-02  0.1096348E+00
         21   -1    0    0  503  502  0.00000000000E+00  0.00000000000E+00  0.15367545163E+03  0.15367545163E+03  0.00000000000E+00 0. -1.
         21   -1    0    0  501  503 -0.00000000000E+00 -0.00000000000E+00 -0.51871015959E+03  0.51871015959E+03  0.00000000000E+00 0.  1.
          6    2    1    2  501    0 -0.21852169950E+03 -0.73326743402E+01 -0.23702051450E+03  0.36605899081E+03  0.17324825886E+03 0.  0.
         24    2    3    3    0    0 -0.22811711353E+03 -0.10533889063E+02 -0.25051014592E+03  0.34855527972E+03  0.81160763360E+02 0.  0.
         -6    2    1    2    0  502  0.21852169950E+03  0.73326743402E+01 -0.12801419347E+03  0.30632662041E+03  0.17217102945E+03 0.  0.
        -24    2    5    5    0    0  0.22108168482E+03 -0.28729277832E+02 -0.89780073306E+02  0.25349712237E+03  0.80609222294E+02 0.  0.
          5    1    3    3  501    0  0.95954140321E+01  0.32012147225E+01  0.13489631420E+02  0.17503711092E+02  0.47000000000E+01 0. -1.
        -11    1    4    4    0    0 -0.20163553977E+03  0.86279062510E+01 -0.17833232055E+03  0.26932090193E+03  0.00000000000E+00 0.  1.
         12    1    4    4    0    0 -0.26481573757E+02 -0.19161795314E+02 -0.72177825368E+02  0.79234377786E+02  0.00000000000E+00 0. -1.
         -5    1    5    5    0  502 -0.25599853200E+01  0.36061952172E+02 -0.38234120160E+02  0.52829498045E+02  0.47000000000E+01 0.  1.
         11    1    6    6    0    0  0.51862788291E+02 -0.13586381378E+02  0.12687461450E+02  0.55093649782E+02  0.00000000000E+00 0. -1.
        -12    1    6    6    0    0  0.16921889653E+03 -0.15142896453E+02 -0.10246753476E+03  0.19840347259E+03  0.00000000000E+00 0.  1.
</event>
<event>
12    1  0.9017558E-003  0.3315429E+03  0.7818608E-02  0.1070526E+00
         21   -1    0    0  503  502  0.00000000000E+00  0.00000000000E+00  0.19603533704E+03  0.19603533704E+03  0.00000000000E+00 0. -1.
         21   -1    0    0  501  503 -0.00000000000E+00 -0.00000000000E+00 -0.68440012142E+03  0.68440012142E+03  0.00000000000E+00 0. -1.
          6    2    1    2  501    0  0.10159487185E+03  0.26367826956E+03 -0.43194023920E+03  0.54412548236E+03  0.17219878772E+03 0.  0.
         24    2    3    3    0    0  0.11328215948E+03  0.21798429479E+03 -0.26220205797E+03  0.36789361184E+03  0.79030310593E+02 0.  0.
         -6    2    1    2    0  502 -0.10159487185E+03 -0.26367826956E+03 -0.56424545181E+02  0.33630997610E+03  0.17341546327E+03 0.  0.
        -24    2    5    5    0    0 -0.13017804988E+03 -0.20970097909E+03 -0.10000206752E+02  0.25944740295E+03  0.79322918880E+02 0.  0.
          5    1    3    3  501    0 -0.11687287628E+02  0.45693974763E+02 -0.16973818123E+03  0.17623187052E+03  0.47000000000E+01 0. -1.
        -11    1    4    4    0    0  0.42394675674E+02  0.41020077186E+02 -0.10653278689E+03  0.12177516142E+03  0.00000000000E+00 0.  1.
         12    1    4    4    0    0  0.70887483807E+02  0.17696421761E+03 -0.15566927109E+03  0.24611845041E+03  0.00000000000E+00 0. -1.
         -5    1    5    5    0  502  0.28583178028E+02 -0.53977290470E+02 -0.46424338428E+02  0.76862573149E+02  0.47000000000E+01 0.  1.
         13    1    6    6    0    0 -0.49275330850E+02 -0.22532919130E+02 -0.12162489533E+02  0.55531223889E+02  0.00000000000E+00 0. -1.
        -14    1    6    6    0    0 -0.80902719031E+02 -0.18716805996E+03  0.21622827803E+01  0.20391617906E+03  0.00000000000E+00 0.  1.
</event>
<event>
12    1  0.9017558E-003  0.1900298E+03  0.7818608E-02  0.1159473E+00
         21   -1    0    0  501  502  0.00000000000E+00  0.00000000000E+00  0.16662992341E+03  0.16662992341E+03  0.00000000000E+00 0. -1.
         21   -1    0    0  502  503 -0.00000000000E+00 -0.00000000000E+00 -0.21238605724E+03  0.21238605724E+03  0.00000000000E+00 0.  1.
          6    2    1    2  501    0  0.62229275055E+02  0.41274933355E+02 -0.10796067591E+02  0.18579715822E+03  0.16978788570E+03 0.  0.
         24    2    3    3    0    0  0.10526527139E+03  0.38308288517E+02  0.90414371101E+01  0.13808432394E+03  0.80232353830E+02 0.  0.
         -6    2    1    2    0  503 -0.62229275055E+02 -0.41274933355E+02 -0.34960066232E+02  0.19321882243E+03  0.17474325255E+03 0.  0.
        -24    2    5    5    0    0 -0.74850959030E+02 -0.57027187521E+01 -0.78336397314E+02  0.13552752797E+03  0.81215347228E+02 0.  0.
          5    1    3    3  501    0 -0.43035996339E+02  0.29666448375E+01 -0.19837504701E+02  0.47712834283E+02  0.47000000000E+01 0. -1.
        -11    1    4    4    0    0  0.41400349330E+02 -0.21062140178E+02 -0.12820981315E+02  0.48186930131E+02  0.00000000000E+00 0.  1.
         12    1    4    4    0    0  0.63864922064E+02  0.59370428695E+02  0.21862418425E+02  0.89897393806E+02  0.00000000000E+00 0. -1.
         -5    1    5    5    0  503  0.12621683975E+02 -0.35572214602E+02  0.43376331082E+02  0.57691294458E+02  0.47000000000E+01 0.  1.
         11    1    6    6    0    0 -0.38460479694E+02  0.12938245730E+02  0.67416268984E+01  0.41134611146E+02  0.00000000000E+00 0. -1.
        -12    1    6    6    0    0 -0.36390479335E+02 -0.18640964482E+02 -0.85078024213E+02  0.94392916826E+02  0.00000000000E+00 0.  1.
</event>
<event>
12    1  0.9017558E-003  0.1906302E+03  0.7818608E-02  0.1158110E+00
         21   -1    0    0  503  502  0.00000000000E+00  0.00000000000E+00  0.21149691965E+03  0.21149691965E+03  0.00000000000E+00 0.  1.
         21   -1    0    0  501  503 -0.00000000000E+00 -0.00000000000E+00 -0.20050462043E+03  0.20050462043E+03  0.00000000000E+00 0.  1.
          6    2    1    2  501    0  0.42598496027E+02  0.67204035521E+02 -0.73590139088E+02  0.20344926612E+03  0.17217746966E+03 0.  0.
         24    2    3    3    0    0  0.17345849848E+02  0.77523335810E+02  0.12779730946E+02  0.11275180999E+03  0.78986726932E+02 0.  0.
         -6    2    1    2    0  502 -0.42598496027E+02 -0.67204035521E+02  0.84582438309E+02  0.20855227396E+03  0.17323062042E+03 0.  0.
        -24    2    5    5    0    0 -0.56830311500E+02  0.82504245625E+01  0.56564585623E+01  0.98337391130E+02  0.79627213692E+02 0.  0.
          5    1    3    3  501    0  0.25252646179E+02 -0.10319300289E+02 -0.86369870034E+02  0.90697456123E+02  0.47000000000E+01 0. -1.
        -13    1    4    4    0    0  0.38032531988E+02  0.81532309590E+02  0.43968338033E+01  0.90073987055E+02  0.00000000000E+00 0.  1.
         14    1    4    4    0    0 -0.20686682140E+02 -0.40089737793E+01  0.83828971426E+01  0.22677822938E+02  0.00000000000E+00 0. -1.
         -5    1    5    5    0  502  0.14231815472E+02 -0.75454460083E+02  0.78925979747E+02  0.11021488283E+03  0.47000000000E+01 0.  1.
         11    1    6    6    0    0  0.92793064971E+01 -0.16988456893E+02 -0.15146856139E+02  0.24579268654E+02  0.00000000000E+00 0. -1.
        -12    1    6    6    0    0 -0.66109617997E+02  0.25238881455E+02  0.20803314701E+02  0.73758122477E+02  0.00000000000E+00 0.  1.
</event>
<event>
12    1  0.9017558E-003  0.4440774E+03  0.7818608E-02  0.1029613E+00
         21   -1    0    0  501  502  0.00000000000E+00  0.00000000000E+00  0.71160954328E+03  0.71160954328E+03  0.00000000000E+00 0.  1.
         21   -1    0    0  502  503 -0.00000000000E+00 -0.00000000000E+00 -0.29806487729E+03  0.29806487729E+03  0.00000000000E+00 0.  1.
          6    2    1    2  501    0  0.39794740508E+03  0.96242655442E+02  0.34373399175E+03  0.56156724590E+03  0.17198816426E+03 0.  0.
         24    2    3    3    0    0  0.11510848515E+03  0.38255399221E+02  0.16875328892E+03  0.22392732991E+03  0.83380679017E+02 0.  0.
         -6    2    1    2    0  503 -0.39794740508E+03 -0.96242655442E+02  0.69810674246E+02  0.44810717467E+03  0.16823116184E+03 0.  0.
        -24    2    5    5    0    0 -0.12231501978E+03  0.89155747349E+01  0.12053006768E+02  0.14745870327E+03  0.80983595015E+02 0.  0.
          5    1    3    3  501    0  0.28283891993E+03  0.57987256221E+02  0.17498070283E+03  0.33763991600E+03  0.47000000000E+01 0. -1.
        -13    1    4    4    0    0  0.90872014700E+02  0.25807769768E+02  0.60223146665E+02  0.11202942216E+03  0.00000000000E+00 0.  1.
         14    1    4    4    0    0  0.24236470452E+02  0.12447629453E+02  0.10853014226E+03  0.11189790774E+03  0.00000000000E+00 0. -1.
         -5    1    5    5    0  503 -0.27563238530E+03 -0.10515823018E+03  0.57757667479E+02  0.30064847140E+03  0.47000000000E+01 0.  1.
         11    1    6    6    0    0 -0.17884463450E+02 -0.88776259015E+01 -0.27840785967E+02  0.34260409189E+02  0.00000000000E+00 0. -1.
        -12    1    6    6    0    0 -0.10443055633E+03  0.17793200636E+02  0.39893792735E+02  0.11319829408E+03  0.00000000000E+00 0.  1.
</event>
<event>
12    1  0.9017558E-003  0.2522009E+03  0.7818608E-02  0.1112376E+00
         21   -1    0    0  503  502  0.00000000000E+00  0.00000000000E+00  0.59304935881E+03  0.59304935881E+03  0.00000000000E+00 0. -1.
         21   -1    0    0  501  503 -0.00000000000E+00 -0.00000000000E+00 -0.10638083687E+03  0.10638083687E+03  0.00000000000E+00 0.  1.
          6    2    1    2  501    0  0.16183573914E+03 -0.87702555587E+02  0.22449348223E+03  0.33764274062E+03  0.17240287703E+03 0.  0.
         24    2    3    3    0    0  0.18303709388E+03 -0.46491756737E+02  0.19419868618E+03  0.28207573555E+03  0.78673564132E+02 0.  0.
         -6    2    1    2    0  502 -0.16183573914E+03  0.87702555587E+02  0.26217503971E+03  0.36178745506E+03  0.16814239939E+03 0.  0.
        -24    2    5    5    0    0 -0.50343617163E+02  0.61234120292E+02  0.53290278193E+02  0.12348931213E+03  0.78266590465E+02 0.  0.
          5    1    3    3  501    0 -0.21201354733E+02 -0.41210798850E+02  0.30294796049E+02  0.55567005066E+02  0.47000000000E+01 0. -1.
        -13    1    4    4    0    0 -0.51418382194E+01  0.30002752049E+01 -0.14660943107E+01  0.61310345055E+01  0.00000000000E+00 0.  1.
         14    1    4    4    0    0  0.18817893210E+03 -0.49492031942E+02  0.19566478049E+03  0.27594470105E+03  0.00000000000E+00 0. -1.
         -5    1    5    5    0  502 -0.11149212198E+03  0.26468435295E+02  0.20888476152E+03  0.23829814293E+03  0.47000000000E+01 0.  1.
         13    1    6    6    0    0 -0.19459189182E+02  0.63752881946E+02  0.62280296268E+02  0.91224587164E+02  0.00000000000E+00 0. -1.
        -14    1    6    6    0    0 -0.30884427981E+02 -0.25187616544E+01 -0.89900180750E+01  0.32264724964E+02  0.00000000000E+00 0.  1.
</event>
<event>
12    1  0.9017558E-003  0.2099237E+03  0.7818608E-02  0.1142169E+00
         21   -1    0    0  503  502  0.00000000000E+00  0.00000000000E+00  0.21383402815E+02  0.21383402815E+02  0.00000000000E+00 0. -1.
         21   -1    0    0  501  503 -0.00000000000E+00 -0.00000000000E+00 -0.20397811610E+04  0.20397811610E+04  0.00000000000E+00 0. -1.
          6    2    1    2  501    0  0.10967366999E+03  0.35286404155E+02 -0.94893328697E+03  0.97129198937E+03  0.17222166322E+03 0.  0.
         24    2    3    3    0    0  0.94607532188E+02  0.71048257624E+02 -0.48198788292E+03  0.50271328836E+03  0.80061794611E+02 0.  0.
         -6    2    1    2    0  502 -0.10967366999E+03 -0.35286404155E+02 -0.10694644712E+04  0.10898725745E+04  0.17548370049E+03 0.  0.
        -24    2    5    5    0    0 -0.12190406921E+03  0.11635878610E+02 -0.60393667252E+03  0.62180259608E+03  0.83084103928E+02 0.  0.
          5    1    3    3  501    0  0.15066137805E+02 -0.35761853469E+02 -0.46694540405E+03  0.46857870101E+03  0.47000000000E+01 0. -1.
        -11    1    4    4    0    0 -0.72121709351E+01  0.32794321259E+02 -0.13266713884E+03  0.13685047550E+03  0.00000000000E+00 0.  1.
         12    1    4    4    0    0  0.10181970312E+03  0.38253936365E+02 -0.34932074408E+03  0.36586281287E+03  0.00000000000E+00 0. -1.
         -5    1    5    5    0  502  0.12230399217E+02 -0.46922282764E+02 -0.46552779873E+03  0.46806997840E+03  0.47000000000E+01 0.  1.
         11    1    6    6    0    0 -0.19613735991E+02 -0.31215688622E+02 -0.16555844490E+03  0.16961343265E+03  0.00000000000E+00 0. -1.
        -12    1    6    6    0    0 -0.10229033322E+03  0.42851567231E+02 -0.43837822761E+03  0.45218916344E+03  0.00000000000E+00 0.  1.
</event>
<event>
12    1  0.9017558E-003  0.2030076E+03  0.7818608E-02  0.1147574E+00
         21   -1    0    0  501  502  0.00000000000E+00  0.00000000000E+00  0.63346531161E+03  0.63346531161E+03  0.00000000000E+00 0.  1.
         21   -1    0    0  502  503 -0.00000000000E+00 -0.00000000000E+00 -0.65311540940E+02  0.65311540940E+02  0.00000000000E+00 0.  1.
          6    2    1    2  501    0 -0.80196212494E+02 -0.67493938953E+02  0.24683087496E+03  0.31958967944E+03  0.17385401370E+03 0.  0.
         24    2    3    3    0    0 -0.98742954673E+02 -0.23415582205E+01  0.12877856031E+03  0.18340137835E+03  0.85419517630E+02 0.  0.
         -6    2    1    2    0  503  0.80196212494E+02  0.67493938953E+02  0.32132289571E+03  0.37918717310E+03  0.17189428335E+03 0.  0.
        -24    2    5    5    0    0  0.44326722718E+02  0.13882940334E+02  0.63736056935E+02  0.11360511615E+03  0.81769450787E+02 0.  0.
          5    1    3    3  501    0  0.18546742178E+02 -0.65152380732E+02  0.11805231465E+03  0.13618830110E+03  0.47000000000E+01 0. -1.
        -11    1    4    4    0    0  0.14091190297E+02 -0.37363019843E+01  0.38980734816E+01  0.15090280759E+02  0.00000000000E+00 0.  1.
         12    1    4    4    0    0 -0.11283414497E+03  0.13947437638E+01  0.12488048683E+03  0.16831109759E+03  0.00000000000E+00 0. -1.
         -5    1    5    5    0  503  0.35869489777E+02  0.53610998619E+02  0.25758683877E+03  0.26558205696E+03  0.47000000000E+01 0.  1.
         11    1    6    6    0    0  0.50821917648E+01 -0.15275695475E+02  0.62667302726E+02  0.64702135794E+02  0.00000000000E+00 0. -1.
        -12    1    6    6    0    0  0.39244530953E+02  0.29158635809E+02  0.10687542098E+01  0.48902980354E+02  0.00000000000E+00 0.  1.
</event>
<event>
12    1  0.9017558E-003  0.1811051E+03  0.7818608E-02  0.1167040E+00
         21   -1    0    0  501  502  0.00000000000E+00  0.00000000000E+00  0.69843718448E+02  0.69843718448E+02  0.00000000000E+00 0.  1.
         21   -1    0    0  502  503 -0.00000000000E+00 -0.00000000000E+00 -0.86741156942E+03  0.86741156942E+03  0.00000000000E+00 0.  1.
          6    2    1    2  501    0 -0.35551670592E+02 -0.42780884240E+02 -0.79387912379E+02  0.19659242246E+03  0.17103220339E+03 0.  0.
         24    2    3    3    0    0 -0.23843240412E+02  0.10554190018E+02  0.16523907382E+02  0.86125754846E+02  0.80403451993E+02 0.  0.
         -6    2    1    2    0  503  0.35551670592E+02  0.42780884240E+02 -0.71817993859E+03  0.74066286541E+03  0.17235118410E+03 0.  0.
        -24    2    5    5    0    0 -0.46528706381E+02  0.16451835114E+02 -0.33171231784E+03  0.34467079604E+03  0.79556976070E+02 0.  0.
          5    1    3    3  501    0 -0.11708430180E+02 -0.53335074257E+02 -0.95911819761E+02  0.11046666761E+03  0.47000000000E+01 0. -1.
        -11    1    4    4    0    0  0.39636029829E+01 -0.32657331113E+02  0.96467372954E+01  0.34282225197E+02  0.00000000000E+00 0.  1.
         12    1    4    4    0    0 -0.27806843395E+02  0.43211521131E+02  0.68771700868E+01  0.51843529649E+02  0.00000000000E+00 0. -1.
         -5    1    5    5    0  503  0.82080376973E+02  0.26329049126E+02 -0.38646762075E+03  0.39599206937E+03  0.47000000000E+01 0.  1.
         13    1    6    6    0    0 -0.46453209736E+02 -0.13170457057E+02 -0.99716261194E+02  0.11079121978E+03  0.00000000000E+00 0. -1.
        -14    1    6    6    0    0 -0.75496645061E-01  0.29622292171E+02 -0.23199605664E+03  0.23387957626E+03  0.00000000000E+00 0.  1.
</event>
<event>
12    1  0.9017558E-003  0.2328953E+03  0.7818608E-02  0.1124690E+00
         21   -1    0    0  503  502  0.00000000000E+00  0.00000000000E+00  0.11179487120E+04  0.11179487120E+04  0.00000000000E+00 0. -1.
         21   -1    0    0  501  503 -0.00000000000E+00 -0.00000000000E+00 -0.49565135059E+02  0.49565135059E+02  0.00000000000E+00 0. -1.
          6    2    1    2  501    0 -0.15567874002E+03  0.21168814616E+02  0.62292760797E+03  0.66504060901E+03  0.17191921954E+03 0.  0.
         24    2    3    3    0    0 -0.49018053180E+02  0.38400955334E+02  0.14312609253E+03  0.17320218736E+03  0.75076736968E+02 0.  0.
         -6    2    1    2    0  502  0.15567874002E+03 -0.21168814616E+02  0.44545596895E+03  0.50247323803E+03  0.17136028087E+03 0.  0.
        -24    2    5    5    0    0  0.65967298179E+02 -0.74472781028E+02  0.25361723925E+03  0.28403870815E+03  0.80364196872E+02 0.  0.
          5    1    3    3  501    0 -0.10666068684E+03 -0.17232140719E+02  0.47980151545E+03  0.49183842165E+03  0.47000000000E+01 0. -1.
        -11    1    4    4    0    0 -0.64454124528E+02  0.40856848138E+02  0.90894326759E+02  0.11868190614E+03  0.00000000000E+00 0.  1.
         12    1    4    4    0    0  0.15436071348E+02 -0.24558928032E+01  0.52231765770E+02  0.54520281213E+02  0.00000000000E+00 0. -1.
         -5    1    5    5    0  502  0.89711441844E+02  0.53303966412E+02  0.19183872970E+03  0.21843452988E+03  0.47000000000E+01 0.  1.
         11    1    6    6    0    0  0.39694079016E+02  0.80410131513E+01  0.66633731864E+02  0.77976483786E+02  0.00000000000E+00 0. -1.
        -12    1    6    6    0    0  0.26273219162E+02 -0.82513794179E+02  0.18698350739E+03  0.20606222436E+03  0.00000000000E+00 0.  1.
</event>
<event>
12    1  0.9017558E-003  0.1832640E+03  0.7818608E-02  0.1165433E+00
         21   -1    0    0  503  502  0.00000000000E+00  0.00000000000E+00  0.53125339636E+03  0.53125339636E+03  0.00000000000E+00 0. -1.
         21   -1    0    0  501  503 -0.00000000000E+00 -0.00000000000E+00 -0.62138850194E+02  0.62138850194E+02  0.00000000000E+00 0.  1.
          6    2    1    2  501    0 -0.45935106197E+02  0.30858273160E+02  0.23797366469E+03  0.30036172614E+03  0.17470957169E+03 0.  0.
         24    2    3    3    0    0 -0.86072037139E+02  0.15507027213E+02  0.95781675232E+02  0.15174380716E+03  0.78760334116E+02 0.  0.
         -6    2    1    2    0  502  0.45935106197E+02 -0.30858273160E+02  0.23114088148E+03  0.29303052041E+03  0.17140160967E+03 0.  0.
        -24    2    5    5    0    0 -0.37700787731E+02  0.93969655302E+01  0.12008297027E+03  0.14821547756E+03  0.77706213922E+02 0.  0.
          5    1    3    3  501    0  0.40136930942E+02  0.15351245946E+02  0.14219198946E+03  0.14861791898E+03  0.47000000000E+01 0. -1.
        -11    1    4    4    0    0 -0.15062189033E+02 -0.15327990465E+02 -0.74183806176E+01  0.22734317697E+02  0.00000000000E+00 0.  1.
         12    1    4    4    0    0 -0.71009848106E+02  0.30835017679E+02  0.10320005585E+03  0.12900948946E+03  0.00000000000E+00 0. -1.
         -5    1    5    5    0  502  0.83635893929E+02 -0.40255238690E+02  0.11105791121E+03  0.14481504286E+03  0.47000000000E+01 0.  1.
         13    1    6    6    0    0 -0.21542063846E+02 -0.34541909408E+01  0.12508400037E+03  0.12697243440E+03  0.00000000000E+00 0. -1.
        -14    1    6    6    0    0 -0.16158723885E+02  0.12851156471E+02 -0.50010301031E+01  0.21243043151E+02  0.00000000000E+00 0.  1.
</event>
<event>
12    1  0.9017558E-003  0.1759954E+03  0.7818608E-02  0.1172036E+00
         21   -1    0    0  501  502  0.00000000000E+00  0.00000000000E+00  0.76101564651E+02  0.76101564651E+02  0.00000000000E+00 0.  1.
         21   -1    0    0  502  503 -0.00000000000E+00 -0.00000000000E+00 -0.42637114505E+03  0.42637114505E+03  0.00000000000E+00 0.  1.
          6    2    1    2  501    0 -0.33265029933E+02  0.10315345464E+02 -0.11847264364E+03  0.21215594800E+03  0.17251495707E+03 0.  0.
         24    2    3    3    0    0  0.41633459739E+02  0.55640224867E+01 -0.31565901842E+02  0.97233232254E+02  0.81814375140E+02 0.  0.
         -6    2    1    2    0  503  0.33265029933E+02 -0.10315345464E+02 -0.23179693676E+03  0.29031676170E+03  0.17129224636E+03 0.  0.
        -24    2    5    5    0    0  0.70371771777E+02 -0.24010609673E+02 -0.86140993219E+02  0.13931274042E+03  0.80368360016E+02 0.  0.
          5    1    3    3  501    0 -0.74898489671E+02  0.47513229770E+01 -0.86906741794E+02  0.11492271575E+03  0.47000000000E+01 0. -1.
        -11    1    4    4    0    0  0.35867881148E+02 -0.11910166586E+02  0.19803427670E+02  0.42667701058E+02  0.00000000000E+00 0.  1.
         12    1    4    4    0    0  0.57655785906E+01  0.17474189073E+02 -0.51369329511E+02  0.54565531196E+02  0.00000000000E+00 0. -1.
         -5    1    5    5    0  503 -0.37106741844E+02  0.13695264210E+02 -0.14565594354E+03  0.15100402127E+03  0.47000000000E+01 0.  1.
         11    1    6    6    0    0  0.39777165190E+02  0.24770774256E+02 -0.18241918871E+02  0.50285005040E+02  0.00000000000E+00 0. -1.
        -12    1    6    6    0    0  0.30594606587E+02 -0.48781383929E+02 -0.67899074347E+02  0.89027735383E+02  0.00000000000E+00 0.  1.
</event>
<event>
12    1  0.9017558E-003  0.1807774E+03  0.7818608E-02  0.1167245E+00
         21   -1    0    0  503  502  0.00000000000E+00  0.00000000000E+00  0.19443165774E+02  0.19443165774E+02  0.00000000000E+00 0.  1.
         21   -1    0    0  501  503 -0.00000000000E+00 -0.00000000000E+00 -0.17063355121E+04  0.17063355121E+04  0.00000000000E+00 0.  1.
          6    2    1    2  501    0 -0.24128709550E+02 -0.48775720805E+02 -0.72544743613E+03  0.74763256137E+03  0.17239257135E+03 0.  0.
         24    2    3    3    0    0 -0.43552126109E+02 -0.47686828992E+00 -0.20082968488E+03  0.22041730818E+03  0.79713313338E+02 0.  0.
         -6    2    1    2    0  502  0.24128709550E+02  0.48775720805E+02 -0.96144491015E+03  0.97814611646E+03  0.17155828263E+03 0.  0.
        -24    2    5    5    0    0 -0.59854563627E+02  0.22342963074E+02 -0.54145313877E+03  0.54899921984E+03  0.64396157624E+02 0.  0.
          5    1    3    3  501    0  0.19423416558E+02 -0.48298852515E+02 -0.52461775125E+03  0.52721525319E+03  0.47000000000E+01 0. -1.
        -13    1    4    4    0    0 -0.12382722659E+02 -0.25014248612E+02 -0.17722779546E+02  0.33062688471E+02  0.00000000000E+00 0.  1.
         14    1    4    4    0    0 -0.31169403450E+02  0.24537380322E+02 -0.18310690534E+03  0.18735461971E+03  0.00000000000E+00 0. -1.
         -5    1    5    5    0  502  0.83983273177E+02  0.26432757731E+02 -0.41999177138E+03  0.42914689662E+03  0.47000000000E+01 0.  1.
         13    1    6    6    0    0 -0.36956879559E+02  0.42001189943E+01 -0.10189611399E+03  0.10847243886E+03  0.00000000000E+00 0. -1.
        -14    1    6    6    0    0 -0.22897684068E+02  0.18142844079E+02 -0.43955702478E+03  0.44052678098E+03  0.00000000000E+00 0.  1.
</event>
<event>
12    1  0.9017558E-003  0.2100135E+03  0.7818608E-02  0.1142824E+00
         21   -1    0    0  503  502  0.00000000000E+00  0.00000000000E+00  0.49793346156E+03  0.49793346156E+03  0.00000000000E+00 0. -1.
         21   -1    0    0  501  503 -0.00000000000E+00 -0.00000000000E+00 -0.10372638016E+03  0.10372638016E+03  0.00000000000E+00 0. -1.
          6    2    1    2  501    0 -0.57144372942E+02  0.93177981512E+02  0.75024335443E+02  0.22301193549E+03  0.17932667639E+03 0.  0.
         24    2    3    3    0    0 -0.61674944818E+02  0.17436219060E+02 -0.16292095911E+02  0.10419223470E+03  0.80515643381E+02 0.  0.
         -6    2    1    2    0  502  0.57144372942E+02 -0.93177981512E+02  0.31918274596E+03  0.37864790623E+03  0.17189821401E+03 0.  0.
        -24    2    5    5    0    0  0.33404002753E+01 -0.10417836742E+03  0.14646877739E+03  0.19735234395E+03  0.81428216248E+02 0.  0.
          5    1    3    3  501    0  0.45305718767E+01  0.75741762452E+02  0.91316431354E+02  0.11881970079E+03  0.47000000000E+01 0. -1.
        -11    1    4    4    0    0  0.11320095954E+02 -0.11894171282E+01 -0.25859067481E+02  0.28253330008E+02  0.00000000000E+00 0.  1.
         12    1    4    4    0    0 -0.72995040773E+02  0.18625636189E+02  0.95669715698E+01  0.75938904692E+02  0.00000000000E+00 0. -1.
         -5    1    5    5    0  502  0.53803972666E+02  0.11000385904E+02  0.17271396857E+03  0.18129556228E+03  0.47000000000E+01 0.  1.
         11    1    6    6    0    0 -0.36577803174E+02 -0.62434613354E+02  0.98797343087E+02  0.12246195993E+03  0.00000000000E+00 0. -1.
        -12    1    6    6    0    0  0.39918203449E+02 -0.41743754061E+02  0.47671434305E+02  0.74890384018E+02  0.00000000000E+00 0.  1.
</event>
<event>
12    1  0.9017558E-003  0.2308287E+03  0.7818608E-02  0.1126332E+00
         21   -1    0    0  501  502  0.00000000000E+00  0.00000000000E+00  0.46464612418E+02  0.46464612418E+02  0.00000000000E+00 0. -1.
         21   -1    0    0  502  503 -0.00000000000E+00 -0.00000000000E+00 -0.13596428607E+04  0.13596428607E+04  0.00000000000E+00 0. -1.
          6    2    1    2  501    0  0.97764697099E+01  0.15181521652E+03 -0.37523164979E+03  0.44054586853E+03  0.17360423943E+03 0.  0.
         24    2    3    3    0    0 -0.19800180532E+01  0.11597363686E+03 -0.13629967490E+03  0.19860907418E+03  0.86105505344E+02 0.  0.
         -6    2    1    2    0  503 -0.97764697099E+01 -0.15181521652E+03 -0.93794659847E+03  0.96556160457E+03  0.17152828134E+03 0.  0.
        -24    2    5    5    0    0  0.59294473674E+02 -0.10478691627E+03 -0.62124485345E+03  0.63798788532E+03  0.81161822553E+02 0.  0.
          5    1    3    3  501    0  0.11756487763E+02  0.35841579657E+02 -0.23893197488E+03  0.24193679434E+03  0.47000000000E+01 0. -1.
        -11    1    4    4    0    0 -0.28259327615E+02  0.18431039961E+02 -0.68841868674E+01  0.34433774991E+02  0.00000000000E+00 0.  1.
         12    1    4    4    0    0  0.26279309562E+02  0.97542596902E+02 -0.12941548804E+03  0.16417529919E+03  0.00000000000E+00 0. -1.
         -5    1    5    5    0  503 -0.69070943384E+02 -0.47028300253E+02 -0.31670174502E+03  0.32757371925E+03  0.47000000000E+01 0.  1.
         11    1    6    6    0    0  0.26910473276E+02 -0.61709958487E+02 -0.15973798358E+03  0.17334507765E+03  0.00000000000E+00 0. -1.
        -12    1    6    6    0    0  0.32384000397E+02 -0.43076957780E+02 -0.46150686987E+03  0.46464280766E+03  0.00000000000E+00 0.  1.
</event>
<event>
12    1  0.9017558E-003  0.1772861E+03  0.7818608E-02  0.1171173E+00
         21   -1    0    0  501  502  0.00000000000E+00  0.00000000000E+00  0.81798594189E+02  0.81798594189E+02  0.00000000000E+00 0. -1.
         21   -1    0    0  502  503 -0.00000000000E+00 -0.00000000000E+00 -0.41624603422E+03  0.41624603422E+03  0.00000000000E+00 0. -1.
          6    2    1    2  501    0 -0.27000754872E+02 -0.13107116402E+02 -0.93006737809E+02  0.20020139342E+03  0.17472695094E+03 0.  0.
         24    2    3    3    0    0  0.25068513218E+02 -0.23101518623E+02 -0.11341910207E+03  0.14319392575E+03  0.80489111924E+02 0.  0.
         -6    2    1    2    0  503  0.27000754872E+02  0.13107116402E+02 -0.24144070222E+03  0.29784323499E+03  0.17180262710E+03 0.  0.
        -24    2    5    5    0    0  0.75224451622E+02  0.12688057574E+02 -0.21701029518E+03  0.24357874083E+03  0.80108862456E+02 0.  0.
          5    1    3    3  501    0 -0.52069268090E+02  0.99944022209E+01  0.20412364264E+02  0.57007467669E+02  0.47000000000E+01 0. -1.
        -11    1    4    4    0    0 -0.93731853837E+01 -0.44963432176E+02 -0.68953869506E+02  0.82850485557E+02  0.00000000000E+00 0.  1.
         12    1    4    4    0    0  0.34441698602E+02  0.21861913552E+02 -0.44465232567E+02  0.60343440190E+02  0.00000000000E+00 0. -1.
         -5    1    5    5    0  503 -0.48223696749E+02  0.41905882825E+00 -0.24430407046E+02  0.54264494164E+02  0.47000000000E+01 0.  1.
         11    1    6    6    0    0  0.34148399751E+02 -0.28873577999E+02 -0.13960985025E+03  0.14659709069E+03  0.00000000000E+00 0. -1.
        -12    1    6    6    0    0  0.41076051870E+02  0.41561635572E+02 -0.77400444929E+02  0.96981650140E+02  0.00000000000E+00 0.  1.
</event>
<event>
12    1  0.9017558E-003  0.1966840E+03  0.7818608E-02  0.1153165E+00
         21   -1    0    0  501  502  0.00000000000E+00  0.00000000000E+00  0.59117471584E+02  0.59117471584E+02  0.00000000000E+00 0. -1.
         21   -1    0    0  502  503 -0.00000000000E+00 -0.00000000000E+00 -0.88881729807E+03  0.88881729807E+03  0.00000000000E+00 0. -1.
          6    2    1    2  501    0  0.22108351904E+02  0.89161923447E+02 -0.16886073494E+03  0.25922680564E+03  0.17391366002E+03 0.  0.
         24    2    3    3    0    0  0.57197441505E+02  0.10420832257E+03 -0.16750247309E+03  0.22073559612E+03  0.80846787784E+02 0.  0.
         -6    2    1    2    0  503 -0.22108351904E+02 -0.89161923447E+02 -0.66083909155E+03  0.68870796402E+03  0.17079732714E+03 0.  0.
        -24    2    5    5    0    0 -0.15119481854E+02  0.16652323656E+02 -0.21169696426E+03  0.22719280749E+03  0.79341467615E+02 0.  0.
          5    1    3    3  501    0 -0.35089089601E+02 -0.15046399123E+02 -0.13582618514E+01  0.38491209527E+02  0.47000000000E+01 0. -1.
        -13    1    4    4    0    0  0.97225434041E+01 -0.97136484198E+01 -0.44160643269E+02  0.46249813295E+02  0.00000000000E+00 0.  1.
         14    1    4    4    0    0  0.47474898100E+02  0.11392197099E+03 -0.12334182982E+03  0.17448578282E+03  0.00000000000E+00 0. -1.
         -5    1    5    5    0  503 -0.69888700497E+01 -0.10581424710E+03 -0.44914212730E+03  0.46151515653E+03  0.47000000000E+01 0.  1.
         13    1    6    6    0    0 -0.38405762914E+02 -0.15228095728E+02 -0.13092329643E+03  0.13728731578E+03  0.00000000000E+00 0. -1.
        -14    1    6    6    0    0  0.23286281060E+02  0.31880419384E+02 -0.80773667826E+02  0.89905491711E+02  0.00000000000E+00 0.  1.
</event>
<event>
12    1  0.9017558E-003  0.1732790E+03  0.7818608E-02  0.1175032E+00
         21   -1    0    0  503  502  0.00000000000E+00  0.00000000000E+00  0.21262991445E+02  0.21262991445E+02  0.00000000000E+00 0.  1.
         21   -1    0    0  501  503 -0.00000000000E+00 -0.00000000000E+00 -0.14145356087E+04  0.14145356087E+04  0.00000000000E+00 0.  1.
          6    2    1    2  501    0 -0.11058164033E+02  0.31268621200E+01 -0.77813423458E+03  0.79672047758E+03  0.17070024052E+03 0.  0.
         24    2    3    3    0    0 -0.69993871581E+02  0.13791828611E+02 -0.58082987072E+03  0.59047242030E+03  0.78771719654E+02 0.  0.
         -6    2    1    2    0  502  0.11058164033E+02 -0.31268621200E+01 -0.61513838267E+03  0.63907812256E+03  0.17289753221E+03 0.  0.
        -24    2    5    5    0    0 -0.47082514937E+02 -0.16563730469E+02 -0.50895044761E+03  0.51718121721E+03  0.77166916035E+02 0.  0.
          5    1    3    3  501    0  0.58935707547E+02 -0.10664966491E+02 -0.19730436386E+03  0.20624805728E+03  0.47000000000E+01 0. -1.
        -13    1    4    4    0    0  0.27142160002E+01 -0.20482124666E+02 -0.21093671544E+03  0.21194617788E+03  0.00000000000E+00 0.  1.
         14    1    4    4    0    0 -0.72708087581E+02  0.34273953277E+02 -0.36989315528E+03  0.37852624242E+03  0.00000000000E+00 0. -1.
         -5    1    5    5    0  502  0.58140678971E+02  0.13436868349E+02 -0.10618793506E+03  0.12189690535E+03  0.47000000000E+01 0.  1.
         11    1    6    6    0    0 -0.16159576278E+02 -0.30861891146E+02 -0.42717195450E+03  0.42859009198E+03  0.00000000000E+00 0. -1.
        -12    1    6    6    0    0 -0.30922938660E+02  0.14298160677E+02 -0.81778493108E+02  0.88591125228E+02  0.00000000000E+00 0.  1.
</event>
<event>
12    1  0.9017558E-003  0.2283344E+03  0.7818608E-02  0.1128142E+00
         21   -1    0    0  503  502  0.00000000000E+00  0.00000000000E+00  0.92474784624E+02  0.92474784624E+02  0.00000000000E+00 0. -1.
         21   -1    0    0  501  503 -0.00000000000E+00 -0.00000000000E+00 -0.79979165359E+03  0.79979165359E+03  0.00000000000E+00 0. -1.
          6    2    1    2  501    0  0.12048323548E+03 -0.87302592769E+02 -0.59927602187E+03  0.64130208090E+03  0.17320120046E+03 0.  0.
         24    2    3    3    0    0  0.30909299200E+02 -0.70985631434E+02 -0.19120129055E+03  0.22316716292E+03  0.85154591491E+02 0.  0.
         -6    2    1    2    0  502 -0.12048323548E+03  0.87302592769E+02 -0.10804084709E+03  0.25096435731E+03  0.17079909621E+03 0.  0.
        -24    2    5    5    0    0 -0.77636583622E+02  0.10355727976E+03 -0.22525347401E+02  0.15383021753E+03  0.80029964639E+02 0.  0.
          5    1    3    3  501    0  0.89573936277E+02 -0.16316961335E+02 -0.40807473132E+03  0.41813491798E+03  0.47000000000E+01 0. -1.
        -11    1    4    4    0    0  0.43421303939E+02 -0.11756734908E+02 -0.12789425716E+03  0.13557496622E+03  0.00000000000E+00 0.  1.
         12    1    4    4    0    0 -0.12512004739E+02 -0.59228896526E+02 -0.63307033388E+02  0.87592196700E+02  0.00000000000E+00 0. -1.
         -5    1    5    5    0  502 -0.42846651855E+02 -0.16254686995E+02 -0.85515499690E+02  0.97134139785E+02  0.47000000000E+01 0.  1.
         11    1    6    6    0    0 -0.90153191842E+02  0.68004384525E+02 -0.72416913333E+01  0.11315757335E+03  0.00000000000E+00 0. -1.
        -12    1    6    6    0    0  0.12516608220E+02  0.35552895240E+02 -0.15283656068E+02  0.40672644173E+02  0.00000000000E+00 0.  1.
</event>
<event>
12    1  0.9017558E-003  0.1980182E+03  0.7818608E-02  0.1151489E+00
         21   -1    0    0  503  502  0.00000000000E+00  0.00000000000E+00  0.24799841752E+03  0.24799841752E+03  0.00000000000E+00 0.  1.
         21   -1    0    0  501  503 -0.00000000000E+00 -0.00000000000E+00 -0.20969277245E+03  0.20969277245E+03  0.00000000000E+00 0. -1.
          6    2    1    2  501    0  0.53133252986E+02  0.82083085368E+02 -0.94634497974E+02  0.21918690482E+03  0.17183258004E+03 0.  0.
         24    2    3    3    0    0  0.51808826331E+02  0.12212094330E+03 -0.60117735656E+02  0.16609941991E+03  0.79857347033E+02 0.  0.
         -6    2    1    2    0  502 -0.53133252986E+02 -0.82083085368E+02  0.13294014304E+03  0.23850428514E+03  0.17219302228E+03 0.  0.
        -24    2    5    5    0    0  0.16856562997E+02 -0.14405813910E+01  0.18862465620E+02  0.82179001600E+02  0.78175294716E+02 0.  0.
          5    1    3    3  501    0  0.13244266546E+01 -0.40037857931E+02 -0.34516762318E+02  0.53087484915E+02  0.47000000000E+01 0. -1.
        -13    1    4    4    0    0 -0.13369825139E+01 -0.10957770532E+02 -0.79368186739E+01  0.13596078403E+02  0.00000000000E+00 0.  1.
         14    1    4    4    0    0  0.53145808845E+02  0.13307871383E+03 -0.52180916982E+02  0.15250334150E+03  0.00000000000E+00 0. -1.
         -5    1    5    5    0  502 -0.69989815983E+02 -0.80642503977E+02  0.11407767742E+03  0.15632528354E+03  0.47000000000E+01 0.  1.
         11    1    6    6    0    0  0.10372664504E+02  0.25876925587E+02  0.38775988307E+02  0.47757561872E+02  0.00000000000E+00 0. -1.
        -12    1    6    6    0    0  0.64838984938E+01 -0.27317506978E+02 -0.19913522687E+02  0.34421439729E+02  0.00000000000E+00 0.  1.
</event>
<event>
12    1  0.9017558E-003  0.2046114E+03  0.7818608E-02  0.1146197E+00
         21   -1    0    0  501  502  0.00000000000E+00  0.00000000000E+00  0.70203620266E+02  0.70203620266E+02  0.00000000000E+00 0. -1.
         21   -1    0    0  502  503 -0.00000000000E+00 -0.00000000000E+00 -0.62867475592E+03  0.62867475592E+03  0.00000000000E+00 0. -1.
          6    2    1    2  501    0  0.10639439579E+03  0.30538192464E+02 -0.19418709680E+03  0.28106421471E+03  0.17039986964E+03 0.  0.
         24    2    3    3    0    0  0.57287992423E+02  0.10007676249E+02 -0.29832967010E+02  0.10824259880E+03  0.86280858906E+02 0.  0.
         -6    2    1    2    0  503 -0.10639439579E+03 -0.30538192464E+02 -0.36428403885E+03  0.41781416147E+03  0.17208562960E+03 0.  0.
        -24    2    5    5    0    0 -0.11180114326E+03 -0.64977249786E+02 -0.21183190538E+03  0.26135642090E+03  0.81932191367E+02 0.  0.
          5    1    3    3  501    0  0.49106403365E+02  0.20530516214E+02 -0.16435412979E+03  0.17282161592E+03  0.47000000000E+01 0. -1.
        -13    1    4    4    0    0  0.55751551768E+02 -0.27276436655E+02 -0.33874348017E+02  0.70708634372E+02  0.00000000000E+00 0.  1.
         14    1    4    4    0    0  0.15364406551E+01  0.37284112904E+02  0.40413810070E+01  0.37533964424E+02  0.00000000000E+00 0. -1.
         -5    1    5    5    0  503  0.54067474724E+01  0.34439057323E+02 -0.15245213347E+03  0.15645774058E+03  0.47000000000E+01 0.  1.
         13    1    6    6    0    0 -0.57715134857E+02  0.11923925713E+02 -0.86957850788E+02  0.10504705902E+03  0.00000000000E+00 0. -1.
        -14    1    6    6    0    0 -0.54086008403E+02 -0.76901175500E+02 -0.12487405459E+03  0.15630936187E+03  0.00000000000E+00 0.  1.
</event>
<event>
12    1  0.9017558E-003  0.1729473E+03  0.7818608E-02  0.1174833E+00
         21   -1    0    0  503  502  0.00000000000E+00  0.00000000000E+00  0.62165398774E+02  0.62165398774E+02  0.00000000000E+00 0.  1.
         21   -1    0    0  501  503 -0.00000000000E+00 -0.00000000000E+00 -0.49305949790E+03  0.49305949790E+03  0.00000000000E+00 0.  1.
          6    2    1    2  501    0 -0.39294906539E+01 -0.20171874253E+02 -0.25913860979E+03  0.31155028236E+03  0.17172190876E+03 0.  0.
         24    2    3    3    0    0 -0.54823813137E+01 -0.74631241299E+02 -0.20529823348E+03  0.23480974386E+03  0.85955642381E+02 0.  0.
         -6    2    1    2    0  502  0.39294906539E+01  0.20171874253E+02 -0.17175548934E+03  0.24367461432E+03  0.17162466063E+03 0.  0.
        -24    2    5    5    0    0 -0.35021869753E+01 -0.39769837915E+02 -0.15824258178E+03  0.18160266122E+03  0.79654921725E+02 0.  0.
          5    1    3    3  501    0  0.15528906598E+01  0.54459367046E+02 -0.53840376302E+02  0.76740538497E+02  0.47000000000E+01 0. -1.
        -13    1    4    4    0    0 -0.11688488164E+02 -0.56028307934E+02 -0.43659520186E+02  0.71985732950E+02  0.00000000000E+00 0.  1.
         14    1    4    4    0    0  0.62061068505E+01 -0.18602933365E+02 -0.16163871330E+03  0.16282401091E+03  0.00000000000E+00 0. -1.
         -5    1    5    5    0  502  0.74316776292E+01  0.59941712168E+02 -0.13512907563E+02  0.62071953093E+02  0.47000000000E+01 0.  1.
         13    1    6    6    0    0 -0.40215562757E+02 -0.11044220242E+02 -0.62830299367E+02  0.75411622494E+02  0.00000000000E+00 0. -1.
        -14    1    6    6    0    0  0.36713375782E+02 -0.28725617673E+02 -0.95412282409E+02  0.10619103873E+03  0.00000000000E+00 0.  1.
</event>
<event>
12    1  0.9017558E-003  0.1979945E+03  0.7818608E-02  0.1151652E+00
         21   -1    0    0  501  502  0.00000000000E+00  0.00000000000E+00  0.19657768755E+03  0.19657768755E+03  0.00000000000E+00 0.  1.
         21   -1    0    0  502  503 -0.00000000000E+00 -0.00000000000E+00 -0.20791331792E+03  0.20791331792E+03  0.00000000000E+00 0. -1.
          6    2    1    2  501    0  0.92289258500E+02  0.33240231461E+02  0.37498528011E+02  0.20151419728E+03  0.17198724336E+03 0.  0.
         24    2    3    3    0    0  0.23007093710E+02 -0.43287427189E+02  0.21816416792E+02  0.96993771004E+02  0.80800419915E+02 0.  0.
         -6    2    1    2    0  503 -0.92289258500E+02 -0.33240231461E+02 -0.48834158384E+02  0.20297680819E+03  0.17085838995E+03 0.  0.
        -24    2    5    5    0    0 -0.21577334638E+02  0.44978033713E+02 -0.21256593451E+02  0.93885629487E+02  0.76642441065E+02 0.  0.
          5    1    3    3  501    0  0.69282164790E+02  0.76527658650E+02  0.15682111219E+02  0.10452042628E+03  0.47000000000E+01 0. -1.
        -11    1    4    4    0    0  0.36758500427E+01 -0.52034282001E+02  0.42557896670E+02  0.67322009372E+02  0.00000000000E+00 0.  1.
         12    1    4    4    0    0  0.19331243667E+02  0.87468548116E+01 -0.20741479879E+02  0.29671761632E+02  0.00000000000E+00 0. -1.
         -5    1    5    5    0  503 -0.70711923862E+02 -0.78218265173E+02 -0.27577564933E+02  0.10909117870E+03  0.47000000000E+01 0.  1.
         11    1    6    6    0    0  0.15378753042E+02 -0.57832120766E+01 -0.26174892711E+02  0.30904313541E+02  0.00000000000E+00 0. -1.
        -12    1    6    6    0    0 -0.36956087679E+02  0.50761245789E+02  0.49182992599E+01  0.62981315946E+02  0.00000000000E+00 0.  1.
</event>
<event>
12    1  0.9017558E-003  0.1865665E+03  0.7818608E-02  0.1163366E+00
         21   -1    0    0  503  502  0.00000000000E+00  0.00000000000E+00  0.30465575091E+03  0.30465575091E+03  0.00000000000E+00 0. -1.
         21   -1    0    0  501  503 -0.00000000000E+00 -0.00000000000E+00 -0.11071405664E+03  0.11071405664E+03  0.00000000000E+00 0. -1.
          6    2    1    2  501    0 -0.30989244434E+02 -0.45672951185E+02  0.79084474842E+02  0.20263614710E+03  0.17821532540E+03 0.  0.
         24    2    3    3    0    0  0.49456970388E+02 -0.47241232930E+02  0.32580648828E+02  0.10958374884E+03  0.79179374356E+02 0.  0.
         -6    2    1    2    0  502  0.30989244434E+02  0.45672951185E+02  0.11485721942E+03  0.21273366046E+03  0.17034399813E+03 0.  0.
        -24    2    5    5    0    0  0.48241513241E+02 -0.72749426764E+01  0.10360392640E+02  0.94231352250E+02  0.79950244655E+02 0.  0.
          5    1    3    3  501    0 -0.80446214823E+02  0.15682817448E+01  0.46503826014E+02  0.93052398254E+02  0.47000000000E+01 0. -1.
        -13    1    4    4    0    0  0.44425517037E+01 -0.16751369949E+02  0.49658860795E+02  0.52596075103E+02  0.00000000000E+00 0.  1.
         14    1    4    4    0    0  0.45014418685E+02 -0.30489862980E+02 -0.17078211967E+02  0.56987673738E+02  0.00000000000E+00 0. -1.
         -5    1    5    5    0  502 -0.17252268807E+02  0.52947893861E+02  0.10449682678E+03  0.11850230821E+03  0.47000000000E+01 0.  1.
         11    1    6    6    0    0 -0.50012443963E+01  0.17000492071E+02  0.27980755554E+02  0.33120263549E+02  0.00000000000E+00 0. -1.
        -12    1    6    6    0    0  0.53242757637E+02 -0.24275434747E+02 -0.17620362914E+02  0.61111088701E+02  0.00000000000E+00 0.  1.
</event>
<event>
12    1  0.9017558E-003  0.2110409E+03  0.7818608E-02  0.1141673E+00
         21   -1    0    0  503  502  0.00000000000E+00  0.00000000000E+00  0.63841109585E+02  0.63841109585E+02  0.00000000000E+00 0. -1.
         21   -1    0    0  501  503 -0.00000000000E+00 -0.00000000000E+00 -0.11185614598E+04  0.11185614598E+04  0.00000000000E+00 0. -1.
          6    2    1    2  501    0  0.92014554263E+02 -0.66424267217E+02 -0.89296332404E+03  0.91650112344E+03  0.17237154552E+03 0.  0.
         24    2    3    3    0    0  0.95990689066E+02  0.96504789152E+01 -0.64350993089E+03  0.65563283866E+03  0.80262343877E+02 0.  0.
         -6    2    1    2    0  502 -0.92014554263E+02  0.66424267217E+02 -0.16175702622E+03  0.26590144599E+03  0.17793083482E+03 0.  0.
        -24    2    5    5    0    0 -0.23367723620E+01 -0.13872451405E+02 -0.10855509061E+03  0.13421164555E+03  0.77657277130E+02 0.  0.
          5    1    3    3  501    0 -0.39761348030E+01 -0.76074746132E+02 -0.24945339315E+03  0.26086828478E+03  0.47000000000E+01 0. -1.
        -13    1    4    4    0    0 -0.30310943842E+01  0.22483928528E+02 -0.18439811791E+03  0.18578853696E+03  0.00000000000E+00 0.  1.
         14    1    4    4    0    0  0.99021783450E+02 -0.12833449613E+02 -0.45911181298E+03  0.46984430170E+03  0.00000000000E+00 0. -1.
         -5    1    5    5    0  502 -0.89677781901E+02  0.80296718622E+02 -0.53201935610E+02  0.13168980044E+03  0.47000000000E+01 0.  1.
         13    1    6    6    0    0 -0.39435290014E+02 -0.13110579868E+02 -0.62734880465E+02  0.75250877935E+02  0.00000000000E+00 0. -1.
        -14    1    6    6    0    0  0.37098517652E+02 -0.76187153704E+00 -0.45820210141E+02  0.58960767614E+02  0.00000000000E+00 0.  1.
</event>
<event>
12    1  0.9017558E-003  0.2904311E+03  0.7818608E-02  0.1090251E+00
         21   -1    0    0  503  502  0.00000000000E+00  0.00000000000E+00  0.48073936201E+03  0.48073936201E+03  0.00000000000E+00 0.  1.
         21   -1    0    0  501  503 -0.00000000000E+00 -0.00000000000E+00 -0.18220361033E+03  0.18220361033E+03  0.00000000000E+00 0.  1.
          6    2    1    2  501    0 -0.11803519747E+03  0.20361080973E+03  0.21599098742E+03  0.36194244004E+03  0.17017800556E+03 0.  0.
         24    2    3    3    0    0 -0.16615583936E+02  0.34496524260E+02  0.99576011637E+02  0.13290070553E+03  0.79253565360E+02 0.  0.
         -6    2    1    2    0  502  0.11803519747E+03 -0.20361080973E+03  0.82544764265E+02  0.30100053231E+03  0.16851709902E+03 0.  0.
        -24    2    5    5    0    0  0.14840496915E+02 -0.14315507456E+03  0.74984726649E+02  0.18107019292E+03  0.80312451161E+02 0.  0.
          5    1    3    3  501    0 -0.10141961353E+03  0.16911428547E+03  0.11641497578E+03  0.22904173450E+03  0.47000000000E+01 0. -1.
        -11    1    4    4    0    0  0.46345525404E+01  0.39403738861E+02  0.10287728868E+02  0.40987450259E+02  0.00000000000E+00 0.  1.
         12    1    4    4    0    0 -0.21250136477E+02 -0.49072146009E+01  0.89288282768E+02  0.91913255274E+02  0.00000000000E+00 0. -1.
         -5    1    5    5    0  502  0.10319470056E+03 -0.60455735165E+02  0.75600376162E+01  0.11993033939E+03  0.47000000000E+01 0.  1.
         13    1    6    6    0    0 -0.18185419918E+02 -0.15712862558E+01  0.19069484028E+01  0.18352517274E+02  0.00000000000E+00 0. -1.
        -14    1    6    6    0    0  0.33025916833E+02 -0.14158378830E+03  0.73077778246E+02  0.16271767564E+03  0.00000000000E+00 0.  1.
</event>
<event>
12    1  0.9017558E-003  0.2150121E+03  0.7818608E-02  0.1140467E+00
         21   -1    0    0  501  502  0.00000000000E+00  0.00000000000E+00  0.34576725244E+03  0.34576725244E+03  0.00000000000E+00 0.  1.
         21   -1    0    0  502  503 -0.00000000000E+00 -0.00000000000E+00 -0.15598245516E+03  0.15598245516E+03  0.00000000000E+00 0. -1.
          6    2    1    2  501    0 -0.13496305836E+02  0.10257425998E+03  0.20393924107E+03  0.28627218193E+03  0.17221184343E+03 0.  0.
         24    2    3    3    0    0  0.70110590451E+01  0.11686103763E+03  0.68656261912E+02  0.14861958123E+03  0.60567652751E+02 0.  0.
         -6    2    1    2    0  503  0.13496305836E+02 -0.10257425998E+03 -0.14154443795E+02  0.21547752566E+03  0.18848497740E+03 0.  0.
        -24    2    5    5    0    0  0.58707069475E+02 -0.12297759365E+03 -0.34363640291E+02  0.16171126489E+03  0.79997905423E+02 0.  0.
          5    1    3    3  501    0 -0.20507364881E+02 -0.14286777653E+02  0.13528297916E+03  0.13765260071E+03  0.47000000000E+01 0. -1.
        -11    1    4    4    0    0 -0.45399093376E+01  0.83679311136E+02  0.75532313188E+02  0.11281829738E+03  0.00000000000E+00 0.  1.
         12    1    4    4    0    0  0.11550968383E+02  0.33181726496E+02 -0.68760512767E+01  0.35801283845E+02  0.00000000000E+00 0. -1.
         -5    1    5    5    0  503 -0.45210763639E+02  0.20403333675E+02  0.20209196495E+02  0.53766260767E+02  0.47000000000E+01 0.  1.
         11    1    6    6    0    0  0.32967323552E+02 -0.71102149335E+01  0.97183405154E+01  0.35097659765E+02  0.00000000000E+00 0. -1.
        -12    1    6    6    0    0  0.25739745923E+02 -0.11586737872E+03 -0.44081980806E+02  0.12661360513E+03  0.00000000000E+00 0.  1.
</event>
<event>
12    1  0.9017558E-003  0.2276595E+03  0.7818608E-02  0.1128335E+00
         21   -1    0    0  503  502  0.00000000000E+00  0.00000000000E+00  0.33952667974E+03  0.33952667974E+03  0.00000000000E+00 0. -1.
         21   -1    0    0  501  503 -0.00000000000E+00 -0.00000000000E+00 -0.16393136753E+03  0.16393136753E+03  0.00000000000E+00 0.  1.
          6    2    1    2  501    0 -0.14404166989E+03 -0.43828091700E+02  0.21324426778E+02  0.22845197405E+03  0.17048949816E+03 0.  0.
         24    2    3    3    0    0 -0.89883171518E+02  0.55400744574E+01 -0.45408749096E+02  0.12922614304E+03  0.80794582768E+02 0.  0.
         -6    2    1    2    0  502  0.14404166989E+03  0.43828091700E+02  0.15427088543E+03  0.27500607322E+03  0.17076278849E+03 0.  0.
        -24    2    5    5    0    0  0.11455910732E+02  0.29729660122E+02  0.79446531039E+02  0.12204031459E+03  0.86988484921E+02 0.  0.
          5    1    3    3  501    0 -0.54158498376E+02 -0.49368166158E+02  0.66733175874E+02  0.99225831004E+02  0.47000000000E+01 0. -1.
        -13    1    4    4    0    0 -0.32332825010E+02  0.23179268308E+02  0.16326672798E+02  0.43002910332E+02  0.00000000000E+00 0.  1.
         14    1    4    4    0    0 -0.57550346508E+02 -0.17639193850E+02 -0.61735421894E+02  0.86223232712E+02  0.00000000000E+00 0. -1.
         -5    1    5    5    0  502  0.13258575916E+03  0.14098431578E+02  0.74824354391E+02  0.15296575864E+03  0.47000000000E+01 0.  1.
         11    1    6    6    0    0 -0.11286634901E+02 -0.28156717960E+02  0.28885801220E+02  0.41887687998E+02  0.00000000000E+00 0. -1.
        -12    1    6    6    0    0  0.22742545633E+02  0.57886378083E+02  0.50560729819E+02  0.80152626590E+02  0.00000000000E+00 0.  1.
</event>
<event>
12    1  0.9017558E-003  0.2142856E+03  0.7818608E-02  0.1141788E+00
         21   -1    0    0  503  502  0.00000000000E+00  0.00000000000E+00  0.24946549908E+03  0.24946549908E+03  0.00000000000E+00 0. -1.
         21   -1    0    0  501  503 -0.00000000000E+00 -0.00000000000E+00 -0.21935336497E+03  0.21935336497E+03  0.00000000000E+00 0.  1.
          6    2    1    2  501    0  0.44621215034E+02  0.84411438424E+02 -0.97464620578E+02  0.21943134170E+03  0.17185580493E+03 0.  0.
         24    2    3    3    0    0  0.21434355900E+02  0.11429863029E+03 -0.37140405949E+02  0.14807326195E+03  0.83801388123E+02 0.  0.
         -6    2    1    2    0  502 -0.44621215034E+02 -0.84411438424E+02  0.12757675468E+03  0.24938752235E+03  0.19183838041E+03 0.  0.
        -24    2    5    5    0    0 -0.51148910718E+02 -0.10567731940E+03  0.15720985672E+03  0.21203703051E+03  0.80379452308E+02 0.  0.
          5    1    3    3  501    0  0.23186859134E+02 -0.29887191869E+02 -0.60324214629E+02  0.71358079746E+02  0.47000000000E+01 0.  1.
        -11    1    4    4    0    0  0.19191516259E+02  0.11434172641E+03 -0.52036737156E+01  0.11605784297E+03  0.00000000000E+00 0.  1.
         12    1    4    4    0    0  0.22428396404E+01 -0.43096115699E-01 -0.31936732233E+02  0.32015418983E+02  0.00000000000E+00 0. -1.
         -5    1    5    5    0  502  0.65276956836E+01  0.21265880975E+02 -0.29633102036E+02  0.37350491842E+02  0.47000000000E+01 0.  1.
         11    1    6    6    0    0 -0.68753600055E+02 -0.79971964214E+02  0.14327883496E+03  0.17790839533E+03  0.00000000000E+00 0. -1.
        -12    1    6    6    0    0  0.17604689338E+02 -0.25705355185E+02  0.13931021760E+02  0.34128635178E+02  0.00000000000E+00 0.  1.
</event>
<event>
12    1  0.9017558E-003  0.1781706E+03  0.7818608E-02  0.1169771E+00
         21   -1    0    0  503  502  0.00000000000E+00  0.00000000000E+00  0.23474080794E+03  0.23474080794E+03  0.00000000000E+00 0.  1.
         21   -1    0    0  501  503 -0.00000000000E+00 -0.00000000000E+00 -0.13611128927E+03  0.13611128927E+03  0.00000000000E+00 0.  1.
          6    2    1    2  501    0  0.38427520433E+02  0.26213631886E+02  0.68561789543E+02  0.19090699154E+03  0.17199108003E+03 0.  0.
         24    2    3    3    0    0 -0.29787029401E+01  0.64564327884E+02  0.84526198423E+02  0.13206649895E+03  0.78226957108E+02 0.  0.
         -6    2    1    2    0  502 -0.38427520433E+02 -0.26213631886E+02  0.30067729131E+02  0.17994510567E+03  0.17120848080E+03 0.  0.
        -24    2    5    5    0    0 -0.36834504163E+02 -0.78609168306E+02  0.44712208185E+02  0.12531562000E+03  0.78540696567E+02 0.  0.
          5    1    3    3  501    0  0.41406223373E+02 -0.38350695998E+02 -0.15964408880E+02  0.58840492592E+02  0.47000000000E+01 0. -1.
        -11    1    4    4    0    0  0.25672030375E+02  0.14826154767E+02  0.64991364180E+02  0.71433503531E+02  0.00000000000E+00 0.  1.
         12    1    4    4    0    0 -0.28650733315E+02  0.49738173116E+02  0.19534834243E+02  0.60632995418E+02  0.00000000000E+00 0. -1.
         -5    1    5    5    0  502 -0.15930162703E+01  0.52395536420E+02 -0.14644479054E+02  0.54629485668E+02  0.47000000000E+01 0.  1.
         13    1    6    6    0    0 -0.53980475728E+02 -0.48230008898E+02  0.52687101482E+02  0.89531872430E+02  0.00000000000E+00 0. -1.
        -14    1    6    6    0    0  0.17145971566E+02 -0.30379159408E+02 -0.79748932972E+01  0.35783747573E+02  0.00000000000E+00 0.  1.
</event>
<event>
12    1  0.9017558E-003  0.2439749E+03  0.7818608E-02  0.1117511E+00
         21   -1    0    0  503  502  0.00000000000E+00  0.00000000000E+00  0.18713186810E+03  0.18713186810E+03  0.00000000000E+00 0. -1.
         21   -1    0    0  501  503 -0.00000000000E+00 -0.00000000000E+00 -0.31579053322E+03  0.31579053322E+03  0.00000000000E+00 0. -1.
          6    2    1    2  501    0  0.86961201665E+02 -0.14570759313E+03 -0.72879730861E+02  0.25265248146E+03  0.17242061340E+03 0.  0.
         24    2    3    3    0    0 -0.14186139102E+00 -0.94917627511E+02  0.66152403296E+01  0.12416861225E+03  0.79779112099E+02 0.  0.
         -6    2    1    2    0  502 -0.86961201665E+02  0.14570759313E+03 -0.55778934261E+02  0.25026991986E+03  0.17530199653E+03 0.  0.
        -24    2    5    5    0    0 -0.44192241992E+02  0.72450572537E+01 -0.49358364190E+02  0.10513421966E+03  0.81311198005E+02 0.  0.
          5    1    3    3  501    0  0.87103063056E+02 -0.50789965618E+02 -0.79494971191E+02  0.12848386920E+03  0.47000000000E+01 0. -1.
        -11    1    4    4    0    0  0.30166396946E+02 -0.81012118272E+01 -0.44493052121E+01  0.31550553951E+02  0.00000000000E+00 0.  1.
         12    1    4    4    0    0 -0.30308258337E+02 -0.86816415684E+02  0.11064545542E+02  0.92618058302E+02  0.00000000000E+00 0. -1.
         -5    1    5    5    0  502 -0.42768959673E+02  0.13846253588E+03 -0.64205700708E+01  0.14513570020E+03  0.47000000000E+01 0.  1.
         11    1    6    6    0    0 -0.63749037134E+02  0.19600105009E+02 -0.24178590151E+02  0.70941582119E+02  0.00000000000E+00 0. -1.
        -12    1    6    6    0    0  0.19556795142E+02 -0.12355047755E+02 -0.25179774039E+02  0.34192637540E+02  0.00000000000E+00 0.  1.
</event>
<event>
12    1  0.9017558E-003  0.2202774E+03  0.7818608E-02  0.1134289E+00
         21   -1    0    0  503  502  0.00000000000E+00  0.00000000000E+00  0.81582224840E+02  0.81582224840E+02  0.00000000000E+00 0. -1.
         21   -1    0    0  501  503 -0.00000000000E+00 -0.00000000000E+00 -0.10726618645E+04  0.10726618645E+04  0.00000000000E+00 0.  1.
          6    2    1    2  501    0 -0.13268282931E+03  0.16920444171E+02 -0.88225228944E+03  0.90855008748E+03  0.17088921735E+03 0.  0.
         24    2    3    3    0    0 -0.16568506753E+02  0.47670060516E+02 -0.44915902036E+03  0.45908379894E+03  0.80418647046E+02 0.  0.
         -6    2    1    2    0  502  0.13268282931E+03 -0.16920444171E+02 -0.10882735019E+03  0.24569400184E+03  0.17501747273E+03 0.  0.
        -24    2    5    5    0    0  0.69685531121E+01  0.23586383081E+02 -0.22031574387E+02  0.87578604126E+02  0.81115617678E+02 0.  0.
          5    1    3    3  501    0 -0.11611432256E+03 -0.30749616345E+02 -0.43309326908E+03  0.44946628854E+03  0.47000000000E+01 0. -1.
        -11    1    4    4    0    0 -0.40745760526E+02  0.39752719986E+02 -0.18148006783E+03  0.19019860874E+03  0.00000000000E+00 0.  1.
         12    1    4    4    0    0  0.24177253773E+02  0.79173405303E+01 -0.26767895253E+03  0.26888519020E+03  0.00000000000E+00 0. -1.
         -5    1    5    5    0  502  0.12571427620E+03 -0.40506827253E+02 -0.86795775806E+02  0.15811539771E+03  0.47000000000E+01 0.  1.
         11    1    6    6    0    0  0.71854491720E+01 -0.25169710798E+02  0.11307677925E+02  0.28513305693E+02  0.00000000000E+00 0. -1.
        -12    1    6    6    0    0 -0.21689605982E+00  0.48756093880E+02 -0.33339252312E+02  0.59065298433E+02  0.00000000000E+00 0.  1.
</event>
<event>
12    1  0.9017558E-003  0.1983698E+03  0.7818608E-02  0.1151331E+00
         21   -1    0    0  501  502  0.00000000000E+00  0.00000000000E+00  0.12636436335E+03  0.12636436335E+03  0.00000000000E+00 0.  1.
         21   -1    0    0  502  503 -0.00000000000E+00 -0.00000000000E+00 -0.33196656679E+03  0.33196656679E+03  0.00000000000E+00 0.  1.
          6    2    1    2  501    0  0.51339928078E+02 -0.86331796798E+02 -0.16216347509E+03  0.25621785086E+03  0.17106030250E+03 0.  0.
         24    2    3    3    0    0  0.83312744791E+02 -0.88910212615E+02 -0.16880027916E+03  0.22312636547E+03  0.80285748261E+02 0.  0.
         -6    2    1    2    0  503 -0.51339928078E+02  0.86331796798E+02 -0.43438728358E+02  0.20211307928E+03  0.16992294237E+03 0.  0.
        -24    2    5    5    0    0 -0.43012851938E+02  0.82136726241E+02  0.31536580759E+02  0.12641416389E+03  0.79933958224E+02 0.  0.
          5    1    3    3  501    0 -0.31972816713E+02  0.25784158166E+01  0.66368040698E+01  0.33091485385E+02  0.47000000000E+01 0. -1.
        -11    1    4    4    0    0  0.35970964486E+02 -0.73543774148E+02 -0.14809563158E+03  0.16921853650E+03  0.00000000000E+00 0.  1.
         12    1    4    4    0    0  0.47341780305E+02 -0.15366438467E+02 -0.20704647582E+02  0.53907828978E+02  0.00000000000E+00 0. -1.
         -5    1    5    5    0  503 -0.83270761399E+01  0.41950705571E+01 -0.74975309117E+02  0.75698915390E+02  0.47000000000E+01 0.  1.
         11    1    6    6    0    0 -0.17268290998E+02  0.14875927910E+02 -0.25750890636E+02  0.34388885904E+02  0.00000000000E+00 0. -1.
        -12    1    6    6    0    0 -0.25744560940E+02  0.67260798331E+02  0.57287471395E+02  0.92025277989E+02  0.00000000000E+00 0.  1.
</event>
<event>
12    1  0.9017558E-003  0.2232988E+03  0.7818608E-02  0.1131570E+00
         21   -1    0    0  501  502  0.00000000000E+00  0.00000000000E+00  0.13727015652E+03  0.13727015652E+03  0.00000000000E+00 0. -1.
         21   -1    0    0  502  503 -0.00000000000E+00 -0.00000000000E+00 -0.37794859577E+03  0.37794859577E+03  0.00000000000E+00 0. -1.
          6    2    1    2  501    0 -0.33531206623E+02  0.13885079312E+03 -0.17283208239E+03  0.28184033965E+03  0.17076054517E+03 0.  0.
         24    2    3    3    0    0 -0.12365728376E+02  0.15537056718E+02 -0.12348973241E+03  0.14726317757E+03  0.77732992268E+02 0.  0.
         -6    2    1    2    0  503  0.33531206623E+02 -0.13885079312E+03 -0.67846356858E+02  0.23337841263E+03  0.17163470155E+03 0.  0.
        -24    2    5    5    0    0 -0.12608247716E+01 -0.54241964217E+02  0.28321125470E+02  0.10056495686E+03  0.79796265823E+02 0.  0.
          5    1    3    3  501    0 -0.21165478247E+02  0.12331373640E+03 -0.49342349975E+02  0.13457716209E+03  0.47000000000E+01 0. -1.
        -13    1    4    4    0    0  0.67902298287E+01 -0.17334786382E+02 -0.60887711286E+00  0.18627205141E+02  0.00000000000E+00 0.  1.
         14    1    4    4    0    0 -0.19155958205E+02  0.32871843100E+02 -0.12288085530E+03  0.12863597243E+03  0.00000000000E+00 0. -1.
         -5    1    5    5    0  503  0.34792031394E+02 -0.84608828899E+02 -0.96167482328E+02  0.13281345577E+03  0.47000000000E+01 0.  1.
         11    1    6    6    0    0 -0.32664193292E+02 -0.49955926276E+02  0.25945537944E+01  0.59743416398E+02  0.00000000000E+00 0. -1.
        -12    1    6    6    0    0  0.31403368520E+02 -0.42860379417E+01  0.25726571676E+02  0.40821540464E+02  0.00000000000E+00 0.  1.
</event>
<event>
12    1  0.9017558E-003  0.2265608E+03  0.7818608E-02  0.1129307E+00
         21   -1    0    0  503  502  0.00000000000E+00  0.00000000000E+00  0.14109236285E+03  0.14109236285E+03  0.00000000000E+00 0. -1.
         21   -1    0    0  501  503 -0.00000000000E+00 -0.00000000000E+00 -0.36196237571E+03  0.36196237571E+03  0.00000000000E+00 0. -1.
          6    2    1    2  501    0  0.47517772292E+02 -0.14031534683E+03 -0.11523369624E+03  0.25307707695E+03  0.16977298634E+03 0.  0.
         24    2    3    3    0    0  0.55665079271E+02 -0.68312015868E+02 -0.24509592616E+01  0.11893948326E+03  0.79846483426E+02 0.  0.
         -6    2    1    2    0  502 -0.47517772292E+02  0.14031534683E+03 -0.10563631662E+03  0.24997766160E+03  0.17141605722E+03 0.  0.
        -24    2    5    5    0    0 -0.96419817128E+02  0.10582192975E+03 -0.94264153717E+02  0.18888247439E+03  0.79346055390E+02 0.  0.
          5    1    3    3  501    0 -0.81473069793E+01 -0.72003330964E+02 -0.11278273698E+03  0.13413759369E+03  0.47000000000E+01 0. -1.
        -11    1    4    4    0    0  0.31360598355E+02 -0.40119972687E+02 -0.40982359972E+02  0.65365535005E+02  0.00000000000E+00 0.  1.
         12    1    4    4    0    0  0.24304480917E+02 -0.28192043181E+02  0.38531400711E+02  0.53573948259E+02  0.00000000000E+00 0. -1.
         -5    1    5    5    0  502  0.48902044837E+02  0.34493417082E+02 -0.11372162899E+02  0.61095187210E+02  0.47000000000E+01 0.  1.
         13    1    6    6    0    0 -0.77271599488E+02  0.11349846576E+03 -0.96943017863E+02  0.16807959582E+03  0.00000000000E+00 0. -1.
        -14    1    6    6    0    0 -0.19148217640E+02 -0.76765360124E+01  0.26788641458E+01  0.20802878576E+02  0.00000000000E+00 0.  1.
</event>
<event>
12    1  0.9017558E-003  0.2254144E+03  0.7818608E-02  0.1130816E+00
         21   -1    0    0  503  502  0.00000000000E+00  0.00000000000E+00  0.53683578456E+02  0.53683578456E+02  0.00000000000E+00 0. -1.
         21   -1    0    0  501  503 -0.00000000000E+00 -0.00000000000E+00 -0.98179833464E+03  0.98179833464E+03  0.00000000000E+00 0.  1.
          6    2    1    2  501    0  0.13590366104E+03 -0.45927456871E-01 -0.58284836069E+03  0.62314642874E+03  0.17357837681E+03 0.  0.
         24    2    3    3    0    0  0.76827290547E+02  0.64727346447E+01 -0.16502574622E+03  0.20109152986E+03  0.85205502159E+02 0.  0.
         -6    2    1    2    0  502 -0.13590366104E+03  0.45927456871E-01 -0.34526639549E+03  0.41233548435E+03  0.17983842918E+03 0.  0.
        -24    2    5    5    0    0 -0.49164039896E+02 -0.17408400612E+02 -0.29508499171E+03  0.31050877504E+03  0.81365790186E+02 0.  0.
          5    1    3    3  501    0  0.59076370495E+02 -0.65186621015E+01 -0.41782261447E+03  0.42205489888E+03  0.47000000000E+01 0. -1.
        -11    1    4    4    0    0  0.20525137956E+01  0.32359031832E+01 -0.10521316322E+03  0.10528292168E+03  0.00000000000E+00 0.  1.
         12    1    4    4    0    0  0.74774776752E+02  0.32368314614E+01 -0.59812583001E+02  0.95808608180E+02  0.00000000000E+00 0. -1.
         -5    1    5    5    0  502 -0.86739621146E+02  0.17454328069E+02 -0.50181403781E+02  0.10182670932E+03  0.47000000000E+01 0.  1.
         13    1    6    6    0    0  0.11743720958E+02 -0.13007135930E+02 -0.12818361119E+02  0.21712000112E+02  0.00000000000E+00 0. -1.
        -14    1    6    6    0    0 -0.60907760854E+02 -0.44012646821E+01 -0.28226663059E+03  0.28879677492E+03  0.00000000000E+00 0.  1.
</event>
<event>
12    1  0.9017558E-003  0.2055349E+03  0.7818608E-02  0.1145702E+00
         21   -1    0    0  501  502  0.00000000000E+00  0.00000000000E+00  0.19719108460E+03  0.19719108460E+03  0.00000000000E+00 0.  1.
         21   -1    0    0  502  503 -0.00000000000E+00 -0.00000000000E+00 -0.47669269894E+03  0.47669269894E+03  0.00000000000E+00 0.  1.
          6    2    1    2  501    0 -0.39224325268E+02 -0.10116387579E+03  0.11199632680E+03  0.23171275892E+03  0.17139121324E+03 0.  0.
         24    2    3    3    0    0 -0.47697413673E+02 -0.63848668643E+01  0.10055395614E+03  0.13575510365E+03  0.77476062598E+02 0.  0.
         -6    2    1    2    0  503  0.39224325268E+02  0.10116387579E+03 -0.39149794114E+03  0.44217102461E+03  0.17456202230E+03 0.  0.
        -24    2    5    5    0    0  0.46462914360E+00  0.13268114338E+03 -0.29240239739E+03  0.33109596445E+03  0.80751928657E+02 0.  0.
          5    1    3    3  501    0  0.84730884045E+01 -0.94779008925E+02  0.11442370663E+02  0.95957655277E+02  0.47000000000E+01 0. -1.
        -13    1    4    4    0    0  0.15205314227E+02  0.14793041615E+02  0.42818523460E+02  0.47785579543E+02  0.00000000000E+00 0.  1.
         14    1    4    4    0    0 -0.62902727900E+02 -0.21177908479E+02  0.57735432676E+02  0.87969524104E+02  0.00000000000E+00 0. -1.
         -5    1    5    5    0  503  0.38759696125E+02 -0.31517267589E+02 -0.99095543750E+02  0.11107506017E+03  0.47000000000E+01 0.  1.
         11    1    6    6    0    0 -0.38051243363E+02  0.78869161684E+02 -0.14280895531E+03  0.16751907206E+03  0.00000000000E+00 0. -1.
        -12    1    6    6    0    0  0.38515872507E+02  0.53811981694E+02 -0.14959344208E+03  0.16357689238E+03  0.00000000000E+00 0.  1.
</event>
<event>
12    1  0.9017558E-003  0.1826009E+03  0.7818608E-02  0.1165598E+00
         21   -1    0    0  503  502  0.00000000000E+00  0.00000000000E+00  0.33081551659E+02  0.33081551659E+02  0.00000000000E+00 0. -1.
         21   -1    0    0  501  503 -0.00000000000E+00 -0.00000000000E+00 -0.10063051205E+04  0.10063051205E+04  0.00000000000E+00 0. -1.
          6    2    1    2  501    0 -0.19592388476E+02 -0.57044445079E+02 -0.45132108476E+03  0.48686118285E+03  0.17235184771E+03 0.  0.
         24    2    3    3    0    0  0.31731402044E+02 -0.93584080342E+01 -0.35518779133E+03  0.36781585657E+03  0.89641929673E+02 0.  0.
         -6    2    1    2    0  502  0.19592388476E+02  0.57044445079E+02 -0.52190248405E+03  0.55252548929E+03  0.17106806556E+03 0.  0.
        -24    2    5    5    0    0  0.17054411396E+00  0.35164900496E+02 -0.51488341381E+03  0.52207421909E+03  0.78866730080E+02 0.  0.
          5    1    3    3  501    0 -0.51323790520E+02 -0.47686037045E+02 -0.96133293434E+02  0.11904532628E+03  0.47000000000E+01 0. -1.
        -13    1    4    4    0    0 -0.23213934690E+02  0.16026767822E+02 -0.18601193973E+03  0.18813874075E+03  0.00000000000E+00 0.  1.
         14    1    4    4    0    0  0.54945336735E+02 -0.25385175856E+02 -0.16917585160E+03  0.17967711582E+03  0.00000000000E+00 0. -1.
         -5    1    5    5    0  502  0.19421844362E+02  0.21879544583E+02 -0.70190702451E+01  0.30451270198E+02  0.47000000000E+01 0.  1.
         11    1    6    6    0    0 -0.15956523588E+02  0.64030000607E+01 -0.43899258162E+03  0.43932914286E+03  0.00000000000E+00 0. -1.
        -12    1    6    6    0    0  0.16127067702E+02  0.28761900435E+02 -0.75890832193E+02  0.82745076230E+02  0.00000000000E+00 0.  1.
</event>
<event>
12    1  0.9017558E-003  0.2233952E+03  0.7818608E-02  0.1132833E+00
         21   -1    0    0  501  502  0.00000000000E+00  0.00000000000E+00  0.44050366432E+03  0.44050366432E+03  0.00000000000E+00 0.  1.
         21   -1    0    0  502  503 -0.00000000000E+00 -0.00000000000E+00 -0.10940708932E+03  0.10940708932E+03  0.00000000000E+00 0.  1.
          6    2    1    2  501    0  0.78852876276E+02  0.11015849108E+03  0.16825268775E+03  0.27346263541E+03  0.16769071762E+03 0.  0.
         24    2    3    3    0    0  0.39350746808E+02 -0.77481258752E+01  0.90072553806E+02  0.12650477785E+03  0.79258306448E+02 0.  0.
         -6    2    1    2    0  503 -0.78852876276E+02 -0.11015849108E+03  0.16284388725E+03  0.27644811824E+03  0.17763096916E+03 0.  0.
        -24    2    5    5    0    0  0.45460031553E+00 -0.16244534612E+02  0.12931570971E+02  0.82527259027E+02  0.79871342724E+02 0.  0.
          5    1    3    3  501    0  0.39502129467E+02  0.11790661696E+03  0.78180133941E+02  0.14695785756E+03  0.47000000000E+01 0. -1.
        -11    1    4    4    0    0  0.13356825691E+02  0.18211057895E+02  0.86723633158E+02  0.89616047504E+02  0.00000000000E+00 0.  1.
         12    1    4    4    0    0  0.25993921117E+02 -0.25959183770E+02  0.33489206478E+01  0.36888730346E+02  0.00000000000E+00 0. -1.
         -5    1    5    5    0  503 -0.79307476591E+02 -0.93913956470E+02  0.14991231628E+03  0.19392085921E+03  0.47000000000E+01 0.  1.
         11    1    6    6    0    0  0.44425752961E+01 -0.14504584115E+02  0.46379607912E+02  0.48797412490E+02  0.00000000000E+00 0. -1.
        -12    1    6    6    0    0 -0.39879749806E+01 -0.17399504974E+01 -0.33448036942E+02  0.33729846537E+02  0.00000000000E+00 0.  1.
</event>
<event>
12    1  0.9017558E-003  0.1909330E+03  0.7818608E-02  0.1157933E+00
         21   -1    0    0  503  502  0.00000000000E+00  0.00000000000E+00  0.16615020064E+04  0.16615020064E+04  0.00000000000E+00 0.  1.
         21   -1    0    0  501  503 -0.00000000000E+00 -0.00000000000E+00 -0.21817918173E+02  0.21817918173E+02  0.00000000000E+00 0.  1.
          6    2    1    2  501    0 -0.58893728277E+02 -0.55965478093E+02  0.78319080364E+03  0.80580288716E+03  0.17125960431E+03 0.  0.
         24    2    3    3    0    0 -0.92390353510E+02 -0.64998054422E+02  0.45151790788E+03  0.47228735360E+03  0.80163574871E+02 0.  0.
         -6    2    1    2    0  502  0.58893728277E+02  0.55965478093E+02  0.85649328456E+03  0.87751703739E+03  0.17278541156E+03 0.  0.
        -24    2    5    5    0    0  0.29196517711E+02 -0.34825202256E+02  0.33394053451E+03  0.34628418964E+03  0.79569014337E+02 0.  0.
          5    1    3    3  501    0  0.33496625233E+02  0.90325763289E+01  0.33167289577E+03  0.33351553356E+03  0.47000000000E+01 0. -1.
        -11    1    4    4    0    0 -0.58604692237E+02  0.29849875758E+01  0.25381680964E+03  0.26051179044E+03  0.00000000000E+00 0.  1.
         12    1    4    4    0    0 -0.33785661273E+02 -0.67983041998E+02  0.19770109824E+03  0.21177556316E+03  0.00000000000E+00 0. -1.
         -5    1    5    5    0  502  0.29697210566E+02  0.90790680349E+02  0.52255275004E+03  0.53123284775E+03  0.47000000000E+01 0.  1.
         13    1    6    6    0    0  0.53031867105E+02 -0.40338544177E+02  0.25997617883E+03  0.26837881927E+03  0.00000000000E+00 0. -1.
        -14    1    6    6    0    0 -0.23835349395E+02  0.55133419215E+01  0.73964355686E+02  0.77905370366E+02  0.00000000000E+00 0.  1.
</event>
<event>
12    1  0.9017558E-003  0.2031593E+03  0.7818608E-02  0.1147604E+00
         21   -1    0    0  503  502  0.00000000000E+00  0.00000000000E+00  0.21427046467E+03  0.21427046467E+03  0.00000000000E+00 0.  1.
         21   -1    0    0  501  503 -0.00000000000E+00 -0.00000000000E+00 -0.32159203198E+03  0.32159203198E+03  0.00000000000E+00 0.  1.
          6    2    1    2  501    0  0.39446145055E+02  0.99120316223E+02 -0.22463975860E+03  0.30126230880E+03  0.17004447099E+03 0.  0.
         24    2    3    3    0    0  0.27684129583E+02  0.13529293109E+03 -0.19825674731E+03  0.25473321727E+03  0.80701213693E+02 0.  0.
         -6    2    1    2    0  502 -0.39446145055E+02 -0.99120316223E+02  0.11731819129E+03  0.23460018784E+03  0.17289550220E+03 0.  0.
        -24    2    5    5    0    0 -0.77661323808E+00  0.75632840012E+01  0.13992381148E+02  0.81058544343E+02  0.79478893348E+02 0.  0.
          5    1    3    3  501    0  0.11762015472E+02 -0.36172614869E+02 -0.26383011293E+02  0.46529091537E+02  0.47000000000E+01 0. -1.
        -13    1    4    4    0    0 -0.26949796536E+02  0.68709418352E+02 -0.93105094955E+02  0.11881007706E+03  0.00000000000E+00 0.  1.
         14    1    4    4    0    0  0.54633926119E+02  0.66583512740E+02 -0.10515165235E+03  0.13592314021E+03  0.00000000000E+00 0. -1.
         -5    1    5    5    0  502 -0.38669531817E+02 -0.10668360022E+03  0.10332581014E+03  0.15354164350E+03  0.47000000000E+01 0.  1.
         13    1    6    6    0    0  0.36436058983E+02  0.13222904780E+02 -0.46769917510E+01  0.39042359776E+02  0.00000000000E+00 0. -1.
        -14    1    6    6    0    0 -0.37212672221E+02 -0.56596207786E+01  0.18669372899E+02  0.42016184568E+02  0.00000000000E+00 0.  1.
</event>
<event>
12    1  0.9017558E-003  0.2702374E+03  0.7818608E-02  0.1101248E+00
         21   -1    0    0  501  502  0.00000000000E+00  0.00000000000E+00  0.30323779218E+03  0.30323779218E+03  0.00000000000E+00 0.  1.
         21   -1    0    0  502  503 -0.00000000000E+00 -0.00000000000E+00 -0.28289013726E+03  0.28289013726E+03  0.00000000000E+00 0. -1.
          6    2    1    2  501    0 -0.20681701551E+03 -0.20615588420E+02  0.12403555408E+03  0.29668114984E+03  0.17157099289E+03 0.  0.
         24    2    3    3    0    0 -0.81331004907E+02  0.46848794615E+02  0.84309774163E+02  0.14870003812E+03  0.78702105444E+02 0.  0.
         -6    2    1    2    0  503  0.20681701551E+03  0.20615588420E+02 -0.10368789916E+03  0.28944677959E+03  0.17271357038E+03 0.  0.
        -24    2    5    5    0    0  0.97715782493E+02 -0.38492768760E+02 -0.74402835615E+01  0.13233990373E+03  0.80177458836E+02 0.  0.
          5    1    3    3  501    0 -0.12548601060E+03 -0.67464383035E+02  0.39725779920E+02  0.14798111172E+03  0.47000000000E+01 0. -1.
        -13    1    4    4    0    0  0.98771704172E+01  0.25962113948E+02  0.11178445811E+02  0.29942403158E+02  0.00000000000E+00 0.  1.
         14    1    4    4    0    0 -0.91208175324E+02  0.20886680667E+02  0.73131328352E+02  0.11875763496E+03  0.00000000000E+00 0. -1.
         -5    1    5    5    0  503  0.10910123302E+03  0.59108357179E+02 -0.96247615602E+02  0.15710687586E+03  0.47000000000E+01 0.  1.
         11    1    6    6    0    0  0.38760907162E+01 -0.26478684637E+02 -0.24413432997E+02  0.36223756432E+02  0.00000000000E+00 0. -1.
        -12    1    6    6    0    0  0.93839691776E+02 -0.12014084122E+02  0.16973149436E+02  0.96116147300E+02  0.00000000000E+00 0.  1.
</event>
<event>
12    1  0.9017558E-003  0.1852722E+03  0.7818608E-02  0.1165184E+00
         21   -1    0    0  501  502  0.00000000000E+00  0.00000000000E+00  0.73805522526E+03  0.73805522526E+03  0.00000000000E+00 0. -1.
         21   -1    0    0  502  503 -0.00000000000E+00 -0.00000000000E+00 -0.44149786106E+02  0.44149786106E+02  0.00000000000E+00 0. -1.
          6    2    1    2  501    0 -0.40524038500E+02  0.57210897872E+02  0.35648398773E+03  0.39726471227E+03  0.16069577958E+03 0.  0.
         24    2    3    3    0    0 -0.54027642526E+02  0.89267556113E+02  0.21814239338E+03  0.25453957998E+03  0.79477111526E+02 0.  0.
         -6    2    1    2    0  503  0.40524038500E+02 -0.57210897872E+02  0.33742145142E+03  0.38494029909E+03  0.17149493711E+03 0.  0.
        -24    2    5    5    0    0 -0.37556893912E+02 -0.47313392610E+02  0.13804827363E+03  0.17054266236E+03  0.79864863550E+02 0.  0.
          5    1    3    3  501    0  0.13503604026E+02 -0.32056658241E+02  0.13834159436E+03  0.14272513229E+03  0.47000000000E+01 0. -1.
        -11    1    4    4    0    0  0.14117999374E+02  0.19078367827E+01  0.65185704282E+01  0.15666828266E+02  0.00000000000E+00 0.  1.
         12    1    4    4    0    0 -0.68145641900E+02  0.87359719330E+02  0.21162382295E+03  0.23887275171E+03  0.00000000000E+00 0. -1.
         -5    1    5    5    0  503  0.78080932412E+02 -0.98975052620E+01  0.19937317779E+03  0.21439763674E+03  0.47000000000E+01 0.  1.
         13    1    6    6    0    0  0.30036016838E+01  0.18225414747E+02  0.97842688513E+01  0.20902614256E+02  0.00000000000E+00 0. -1.
        -14    1    6    6    0    0 -0.40560495596E+02 -0.65538807357E+02  0.12826400478E+03  0.14964004810E+03  0.00000000000E+00 0.  1.
</event>
<event>
12    1  0.9017558E-003  0.1917687E+03  0.7818608E-02  0.1157578E+00
         21   -1    0    0  503  502  0.00000000000E+00  0.00000000000E+00  0.20637269599E+04  0.20637269599E+04  0.00000000000E+00 0. -1.
         21   -1    0    0  501  503 -0.00000000000E+00 -0.00000000000E+00 -0.24093358011E+02  0.24093358011E+02  0.00000000000E+00 0.  1.
          6    2    1    2  501    0 -0.17467474832E+01  0.79963004367E+02  0.48110126260E+03  0.51791280458E+03  0.17429318712E+03 0.  0.
         24    2    3    3    0    0 -0.53277964620E+02  0.86063537057E+02  0.25160860038E+03  0.28257973242E+03  0.79365883498E+02 0.  0.
         -6    2    1    2    0  502  0.17467474832E+01 -0.79963004367E+02  0.15585323392E+04  0.15699075133E+04  0.17084909897E+03 0.  0.
        -24    2    5    5    0    0  0.67032348227E+02 -0.58009183374E+02  0.96824590259E+03  0.97559753758E+03  0.80199915212E+02 0.  0.
          5    1    3    3  501    0  0.51531217137E+02 -0.61005326900E+01  0.22949266222E+03  0.23533307216E+03  0.47000000000E+01 0. -1.
        -13    1    4    4    0    0 -0.27890121519E+02  0.89026280507E+02  0.23294141993E+03  0.25092876005E+03  0.00000000000E+00 0.  1.
         14    1    4    4    0    0 -0.25387843101E+02 -0.29627434502E+01  0.18667180448E+02  0.31650972370E+02  0.00000000000E+00 0. -1.
         -5    1    5    5    0  502 -0.65285600744E+02 -0.21953820993E+02  0.59028643665E+03  0.59430997570E+03  0.47000000000E+01 0.  1.
         11    1    6    6    0    0  0.56518194420E+02 -0.49860456386E+01  0.67732762564E+03  0.67969984508E+03  0.00000000000E+00 0. -1.
        -12    1    6    6    0    0  0.10514153808E+02 -0.53023137735E+02  0.29091827695E+03  0.29589769250E+03  0.00000000000E+00 0.  1.
</event>
<event>
12    1  0.9017558E-003  0.1803654E+03  0.7818608E-02  0.1167686E+00
         21   -1    0    0  501  502  0.00000000000E+00  0.00000000000E+00  0.67733235918E+02  0.67733235918E+02  0.00000000000E+00 0. -1.
         21   -1    0    0  502  503 -0.00000000000E+00 -0.00000000000E+00 -0.49399442311E+03  0.49399442311E+03  0.00000000000E+00 0.  1.
          6    2    1    2  501    0  0.51014066650E+02 -0.19346808726E+02 -0.16156616697E+03  0.24142289544E+03  0.17089369248E+03 0.  0.
         24    2    3    3    0    0  0.78631480357E+02 -0.30209938654E+02 -0.50255112715E+02  0.12612775274E+03  0.79291131657E+02 0.  0.
         -6    2    1    2    0  503 -0.51014066650E+02  0.19346808726E+02 -0.26469502022E+03  0.32030476359E+03  0.17191554276E+03 0.  0.
        -24    2    5    5    0    0 -0.95140191695E+01 -0.20747329805E+02 -0.44726399475E+02  0.92844705560E+02  0.78094303798E+02 0.  0.
          5    1    3    3  501    0 -0.27617413707E+02  0.10863129928E+02 -0.11131105426E+03  0.11529514271E+03  0.47000000000E+01 0. -1.
        -11    1    4    4    0    0  0.65834878192E+02  0.15543494401E+02 -0.35414358624E+02  0.76354490382E+02  0.00000000000E+00 0.  1.
         12    1    4    4    0    0  0.12796602165E+02 -0.45753433055E+02 -0.14840754091E+02  0.49773262353E+02  0.00000000000E+00 0. -1.
         -5    1    5    5    0  503 -0.41500047480E+02  0.40094138531E+02 -0.21996862075E+03  0.22746005803E+03  0.47000000000E+01 0.  1.
         11    1    6    6    0    0 -0.20768148036E+02 -0.32800330581E+02 -0.59273036531E+02  0.70855278693E+02  0.00000000000E+00 0. -1.
        -12    1    6    6    0    0  0.11254128867E+02  0.12053000776E+02  0.14546637057E+02  0.21989426866E+02  0.00000000000E+00 0.  1.
</event>
<event>
12    1  0.9017558E-003  0.1791523E+03  0.7818608E-02  0.1170467E+00
         21   -1    0    0  501  502  0.00000000000E+00  0.00000000000E+00  0.10737967865E+03  0.10737967865E+03  0.00000000000E+00 0.  1.
         21   -1    0    0  502  503 -0.00000000000E+00 -0.00000000000E+00 -0.29602038815E+03  0.29602038815E+03  0.00000000000E+00 0.  1.
          6    2    1    2  501    0 -0.49735820619E+02 -0.36679485622E+01 -0.60438127897E+02  0.18907221895E+03  0.17207100562E+03 0.  0.
         24    2    3    3    0    0 -0.92541142587E+02  0.24243226467E+02 -0.24375535908E+02  0.12635117128E+03  0.78859714881E+02 0.  0.
         -6    2    1    2    0  503  0.49735820619E+02  0.36679485622E+01 -0.12820258160E+03  0.21432784784E+03  0.16435759408E+03 0.  0.
        -24    2    5    5    0    0  0.69891020426E+02  0.33954703822E+02 -0.13662668585E+03  0.17669043088E+03  0.80715428708E+02 0.  0.
          5    1    3    3  501    0  0.42805321967E+02 -0.27911175030E+02 -0.36062591989E+02  0.62721047673E+02  0.47000000000E+01 0. -1.
        -11    1    4    4    0    0 -0.40208255988E+02  0.25059727107E+02 -0.49304295395E+02  0.68378412651E+02  0.00000000000E+00 0.  1.
         12    1    4    4    0    0 -0.52332886598E+02 -0.81650063964E+00  0.24928759487E+02  0.57972758625E+02  0.00000000000E+00 0. -1.
         -5    1    5    5    0  503 -0.20155199807E+02 -0.30286755260E+02  0.84241042445E+01  0.37637416964E+02  0.47000000000E+01 0.  1.
         13    1    6    6    0    0  0.88325310524E+02  0.27553871933E+02 -0.11250330944E+03  0.14566252426E+03  0.00000000000E+00 0. -1.
        -14    1    6    6    0    0 -0.18434290098E+02  0.64008318891E+01 -0.24123376403E+02  0.31027906622E+02  0.00000000000E+00 0.  1.
</event>
<event>
12    1  0.9017558E-003  0.1808053E+03  0.7818608E-02  0.1167714E+00
         21   -1    0    0  503  502  0.00000000000E+00  0.00000000000E+00  0.35474736222E+03  0.35474736222E+03  0.00000000000E+00 0.  1.
         21   -1    0    0  501  503 -0.00000000000E+00 -0.00000000000E+00 -0.90723975472E+02  0.90723975472E+02  0.00000000000E+00 0. -1.
          6    2    1    2  501    0  0.42713328450E+02 -0.10578596719E+02  0.13345128553E+03  0.22244752273E+03  0.17244512062E+03 0.  0.
         24    2    3    3    0    0  0.38437573805E+02  0.52901844444E+02  0.11805707620E+03  0.15681886917E+03  0.79866339970E+02 0.  0.
         -6    2    1    2    0  502 -0.42713328450E+02  0.10578596719E+02  0.13057210122E+03  0.22302381496E+03  0.17536879223E+03 0.  0.
        -24    2    5    5    0    0 -0.98933782552E+01 -0.87747566392E+01  0.15682101038E+03  0.17651793739E+03  0.79942964881E+02 0.  0.
          5    1    3    3  501    0  0.42757546449E+01 -0.63480441163E+02  0.15394209330E+02  0.65628653566E+02  0.47000000000E+01 0. -1.
        -13    1    4    4    0    0  0.14318031713E+02 -0.16319071740E+01  0.89592028998E+02  0.90743599296E+02  0.00000000000E+00 0.  1.
         14    1    4    4    0    0  0.24119542092E+02  0.54533751618E+02  0.28465047202E+02  0.66075269870E+02  0.00000000000E+00 0. -1.
         -5    1    5    5    0  502 -0.32819950195E+02  0.19353353358E+02 -0.26248909163E+02  0.46505877577E+02  0.47000000000E+01 0.  1.
         13    1    6    6    0    0  0.24210251128E+02  0.23124596478E+02  0.53156312596E+02  0.62820990049E+02  0.00000000000E+00 0. -1.
        -14    1    6    6    0    0 -0.34103629383E+02 -0.31899353117E+02  0.10366469779E+03  0.11369694734E+03  0.00000000000E+00 0.  1.
</event>
<event>
12    1  0.9017558E-003  0.2343012E+03  0.7818608E-02  0.1124138E+00
         21   -1    0    0  501  502  0.00000000000E+00  0.00000000000E+00  0.13809796686E+04  0.13809796686E+04  0.00000000000E+00 0. -1.
         21   -1    0    0  502  503 -0.00000000000E+00 -0.00000000000E+00 -0.40885528548E+02  0.40885528548E+02  0.00000000000E+00 0.  1.
          6    2    1    2  501    0  0.13895928070E+03 -0.77061392689E+02  0.80728715802E+03  0.83981678959E+03  0.16831976900E+03 0.  0.
         24    2    3    3    0    0  0.16769979094E+03 -0.71657370354E+02  0.73910981051E+03  0.76548334422E+03  0.80146364136E+02 0.  0.
         -6    2    1    2    0  503 -0.13895928070E+03  0.77061392689E+02  0.53280698201E+03  0.58204840753E+03  0.17218864278E+03 0.  0.
        -24    2    5    5    0    0 -0.14244342190E+03  0.11119370042E+03  0.47689572195E+03  0.51628129819E+03  0.80390806581E+02 0.  0.
          5    1    3    3  501    0 -0.28740510241E+02 -0.54040223347E+01  0.68177347510E+02  0.74333445365E+02  0.47000000000E+01 0. -1.
        -11    1    4    4    0    0  0.29928992693E+02  0.14851791869E+02  0.82219405760E+02  0.88748808493E+02  0.00000000000E+00 0.  1.
         12    1    4    4    0    0  0.13777079824E+03 -0.86509162223E+02  0.65689040475E+03  0.67673453573E+03  0.00000000000E+00 0. -1.
         -5    1    5    5    0  503  0.34841412077E+01 -0.34132307734E+02  0.55911260055E+02  0.65767109349E+02  0.47000000000E+01 0.  1.
         13    1    6    6    0    0 -0.77463269128E+02  0.66557212069E+02  0.36758230975E+03  0.38150645471E+03  0.00000000000E+00 0. -1.
        -14    1    6    6    0    0 -0.64980152776E+02  0.44636488354E+02  0.10931341220E+03  0.13477484348E+03  0.00000000000E+00 0.  1.
</event>
<event>
12    1  0.9017558E-003  0.1787605E+03  0.7818608E-02  0.1170409E+00
         21   -1    0    0  501  502  0.00000000000E+00  0.00000000000E+00  0.45153854658E+02  0.45153854658E+02  0.00000000000E+00 0. -1.
         21   -1    0    0  502  503 -0.00000000000E+00 -0.00000000000E+00 -0.74494134198E+03  0.74494134198E+03  0.00000000000E+00 0. -1.
          6    2    1    2  501    0  0.21739914243E+02 -0.18468068801E+02 -0.24352007975E+03  0.30208833699E+03  0.17646994268E+03 0.  0.
         24    2    3    3    0    0  0.66669944832E+02 -0.32059435828E+02 -0.90446143618E+02  0.14190983398E+03  0.80530783644E+02 0.  0.
         -6    2    1    2    0  503 -0.21739914243E+02  0.18468068801E+02 -0.45626740758E+03  0.48800685965E+03  0.17075436864E+03 0.  0.
        -24    2    5    5    0    0 -0.53800253382E+01 -0.42066160697E+02 -0.36633322600E+03  0.37826950993E+03  0.84197880783E+02 0.  0.
          5    1    3    3  501    0 -0.44930030589E+02  0.13591367026E+02 -0.15307393613E+03  0.16017850302E+03  0.47000000000E+01 0. -1.
        -13    1    4    4    0    0  0.48375856558E+02 -0.78028336558E+01 -0.27255160594E+01  0.49076839227E+02  0.00000000000E+00 0.  1.
         14    1    4    4    0    0  0.18294088274E+02 -0.24256602172E+02 -0.87720627559E+02  0.92832994749E+02  0.00000000000E+00 0. -1.
         -5    1    5    5    0  503 -0.16359888905E+02  0.60534229498E+02 -0.89934181582E+02  0.10973734972E+03  0.47000000000E+01 0.  1.
         13    1    6    6    0    0 -0.61532283819E+01 -0.34984778785E+02 -0.47281589237E+02  0.59138360199E+02  0.00000000000E+00 0. -1.
        -14    1    6    6    0    0  0.77320304364E+00 -0.70813819116E+01 -0.31905163676E+03  0.31913114973E+03  0.00000000000E+00 0.  1.
</event>
<event>
12    1  0.9017558E-003  0.1724457E+03  0.7818608E-02  0.1180152E+00
         21   -1    0    0  501  502  0.00000000000E+00  0.00000000000E+00  0.21869813785E+03  0.21869813785E+03  0.00000000000E+00 0. -1.
         21   -1    0    0  502  503 -0.00000000000E+00 -0.00000000000E+00 -0.12243143351E+03  0.12243143351E+03  0.00000000000E+00 0. -1.
          6    2    1    2  501    0 -0.74190158650E+01  0.26097805085E+01  0.39774601942E+02  0.15966644110E+03  0.15443283558E+03 0.  0.
         24    2    3    3    0    0  0.62595331085E+01 -0.50196278339E+02  0.43483923559E+02  0.10478992864E+03  0.80816022069E+02 0.  0.
         -6    2    1    2    0  503  0.74190158650E+01 -0.26097805085E+01  0.56492102401E+02  0.18146313025E+03  0.17226623945E+03 0.  0.
        -24    2    5    5    0    0 -0.34661966378E+00  0.47268309017E+02 -0.14900696590E+02  0.93900862933E+02  0.79755426888E+02 0.  0.
          5    1    3    3  501    0 -0.13678548973E+02  0.52806058847E+02 -0.37093216173E+01  0.54876512461E+02  0.47000000000E+01 0. -1.
        -11    1    4    4    0    0 -0.20843355015E+02  0.13630084807E+02  0.18730543335E+02  0.31161802158E+02  0.00000000000E+00 0.  1.
         12    1    4    4    0    0  0.27102888123E+02 -0.63826363146E+02  0.24753380224E+02  0.73628126484E+02  0.00000000000E+00 0. -1.
         -5    1    5    5    0  503  0.77656355287E+01 -0.49878089526E+02  0.71392798991E+02  0.87562267317E+02  0.47000000000E+01 0.  1.
         11    1    6    6    0    0 -0.96087301724E+01  0.85488411047E+01  0.30748556270E+02  0.33329927880E+02  0.00000000000E+00 0. -1.
        -12    1    6    6    0    0  0.92621105087E+01  0.38719467913E+02 -0.45649252860E+02  0.60570935053E+02  0.00000000000E+00 0.  1.
</event>
<event>
12    1  0.9017558E-003  0.1733647E+03  0.7818608E-02  0.1174631E+00
         21   -1    0    0  501  502  0.00000000000E+00  0.00000000000E+00  0.18426813298E+03  0.18426813298E+03  0.00000000000E+00 0. -1.
         21   -1    0    0  502  503 -0.00000000000E+00 -0.00000000000E+00 -0.16219556022E+03  0.16219556022E+03  0.00000000000E+00 0. -1.
          6    2    1    2  501    0  0.96175417452E+01 -0.16227579672E+02  0.11082941697E+02  0.17371862874E+03  0.17233542562E+03 0.  0.
         24    2    3    3    0    0  0.29708638657E+02  0.28596973366E+02 -0.44923923950E+02  0.99074461322E+02  0.78084568556E+02 0.  0.
         -6    2    1    2    0  503 -0.96175417452E+01  0.16227579672E+02  0.10989631055E+02  0.17274506446E+03  0.17136001241E+03 0.  0.
        -24    2    5    5    0    0  0.27909220319E+02  0.50209625017E+02 -0.36927891175E+02  0.10287936319E+03  0.76945196086E+02 0.  0.
          5    1    3    3  501    0 -0.20091096912E+02 -0.44824553038E+02  0.56006865647E+02  0.74644167419E+02  0.47000000000E+01 0. -1.
        -13    1    4    4    0    0  0.42488251704E+02  0.53642853048E+01 -0.55864173531E+02  0.70390574468E+02  0.00000000000E+00 0.  1.
         14    1    4    4    0    0 -0.12779613047E+02  0.23232688061E+02  0.10940249580E+02  0.28683886854E+02  0.00000000000E+00 0. -1.
         -5    1    5    5    0  503 -0.37526762064E+02 -0.33982045345E+02  0.47917522230E+02  0.69865701267E+02  0.47000000000E+01 0.  1.
         13    1    6    6    0    0 -0.21763796620E+02  0.38570255758E+02 -0.10915645797E+02  0.45612265847E+02  0.00000000000E+00 0. -1.
        -14    1    6    6    0    0  0.49673016939E+02  0.11639369259E+02 -0.26012245378E+02  0.57267097344E+02  0.00000000000E+00 0.  1.
</event>
<event>
12    1  0.9017558E-003  0.1771677E+03  0.7818608E-02  0.1172704E+00
         21   -1    0    0  503  502  0.00000000000E+00  0.00000000000E+00  0.41544493576E+03  0.41544493576E+03  0.00000000000E+00 0. -1.
         21   -1    0    0  501  503 -0.00000000000E+00 -0.00000000000E+00 -0.88145632955E+02  0.88145632955E+02  0.00000000000E+00 0. -1.
          6    2    1    2  501    0 -0.15667318684E+02  0.34953673004E+02  0.59197248702E+02  0.18679592347E+03  0.17297739343E+03 0.  0.
         24    2    3    3    0    0  0.53198230085E+01 -0.38532424585E+02 -0.25292467350E+01  0.88444935196E+02  0.79391820810E+02 0.  0.
         -6    2    1    2    0  502  0.15667318684E+02 -0.34953673004E+02  0.26810205411E+03  0.31679464525E+03  0.16435605164E+03 0.  0.
        -24    2    5    5    0    0 -0.25047665210E+01 -0.59130260722E+02  0.26847060379E+03  0.28618487715E+03  0.79515138303E+02 0.  0.
          5    1    3    3  501    0 -0.20987141693E+02  0.73486097590E+02  0.61726495437E+02  0.98350988273E+02  0.47000000000E+01 0. -1.
        -13    1    4    4    0    0  0.11045047436E+02 -0.61488723921E+01  0.35785373741E+02  0.37952531909E+02  0.00000000000E+00 0.  1.
         14    1    4    4    0    0 -0.57252244273E+01 -0.32383552193E+02 -0.38314620476E+02  0.50492403286E+02  0.00000000000E+00 0. -1.
         -5    1    5    5    0  502  0.18172085205E+02  0.24176587717E+02 -0.36854968565E+00  0.30609768102E+02  0.47000000000E+01 0.  1.
         11    1    6    6    0    0 -0.19269902418E+02 -0.14395496942E+02  0.20670577362E+03  0.20810054378E+03  0.00000000000E+00 0. -1.
        -12    1    6    6    0    0  0.16765135897E+02 -0.44734763779E+02  0.61764830167E+02  0.78084333369E+02  0.00000000000E+00 0.  1.
</event>
<event>
12    1  0.9017558E-003  0.1870703E+03  0.7818608E-02  0.1164297E+00
         21   -1    0    0  501  502  0.00000000000E+00  0.00000000000E+00  0.30532489784E+03  0.30532489784E+03  0.00000000000E+00 0. -1.
         21   -1    0    0  502  503 -0.00000000000E+00 -0.00000000000E+00 -0.11249156304E+03  0.11249156304E+03  0.00000000000E+00 0.  1.
          6    2    1    2  501    0 -0.33547792744E+02  0.60089328486E+02  0.14733645229E+03  0.23812459995E+03  0.17395146775E+03 0.  0.
         24    2    3    3    0    0 -0.40989016044E+02  0.10681190495E+03  0.10552515964E+03  0.17481073773E+03  0.79588643882E+02 0.  0.
         -6    2    1    2    0  503  0.33547792744E+02 -0.60089328486E+02  0.45496882508E+02  0.17969186093E+03  0.15963400882E+03 0.  0.
        -24    2    5    5    0    0  0.20737768072E+02 -0.35760620367E+02 -0.36455554149E+02  0.93122382220E+02  0.75059267571E+02 0.  0.
          5    1    3    3  501    0  0.74412233001E+01 -0.46722576462E+02  0.41811292648E+02  0.63313862213E+02  0.47000000000E+01 0. -1.
        -13    1    4    4    0    0 -0.16293738800E+02 -0.70606315964E+01  0.22378227523E+00  0.17759181319E+02  0.00000000000E+00 0.  1.
         14    1    4    4    0    0 -0.24695277244E+02  0.11387253654E+03  0.10530137736E+03  0.15705155641E+03  0.00000000000E+00 0. -1.
         -5    1    5    5    0  503  0.12810024672E+02 -0.24328708119E+02  0.81952436657E+02  0.86569478714E+02  0.47000000000E+01 0.  1.
         13    1    6    6    0    0  0.17929734617E+02 -0.17665720024E+02  0.21024479413E+02  0.32796063514E+02  0.00000000000E+00 0. -1.
        -14    1    6    6    0    0  0.28080334548E+01 -0.18094900343E+02 -0.57480033562E+02  0.60326318706E+02  0.00000000000E+00 0.  1.
</event>
<event>
12    1  0.9017558E-003  0.1967050E+03  0.7818608E-02  0.1152706E+00
         21   -1    0    0  501  502  0.00000000000E+00  0.00000000000E+00  0.22154300382E+04  0.22154300382E+04  0.00000000000E+00 0. -1.
         21   -1    0    0  502  503 -0.00000000000E+00 -0.00000000000E+00 -0.18243549967E+02  0.18243549967E+02  0.00000000000E+00 0.  1.
          6    2    1    2  501    0  0.71221685511E+02 -0.61355042798E+02  0.13405488747E+04  0.13549037425E+04  0.17278858824E+03 0.  0.
         24    2    3    3    0    0  0.36557170878E+02  0.34441988679E+02  0.58582780446E+03  0.59332335693E+03  0.79471454513E+02 0.  0.
         -6    2    1    2    0  503 -0.71221685511E+02  0.61355042798E+02  0.85663761357E+03  0.87876984570E+03  0.17196357453E+03 0.  0.
        -24    2    5    5    0    0 -0.12481164383E+01  0.11395010460E+02  0.64551655179E+03  0.65076436786E+03  0.81677657767E+02 0.  0.
          5    1    3    3  501    0  0.34664514633E+02 -0.95797031477E+02  0.75472107024E+03  0.76158038557E+03  0.47000000000E+01 0. -1.
        -11    1    4    4    0    0 -0.22622706219E+02  0.25146207442E+02  0.18982454972E+03  0.19281462149E+03  0.00000000000E+00 0.  1.
         12    1    4    4    0    0  0.59179877098E+02  0.92957812370E+01  0.39600325474E+03  0.40050873544E+03  0.00000000000E+00 0. -1.
         -5    1    5    5    0  503 -0.69973569073E+02  0.49960032338E+02  0.21112106178E+03  0.22800547784E+03  0.47000000000E+01 0.  1.
         11    1    6    6    0    0 -0.89238137323E+01  0.43897883213E+02  0.46757367860E+03  0.46971459794E+03  0.00000000000E+00 0. -1.
        -12    1    6    6    0    0  0.76756972940E+01 -0.32502872753E+02  0.17794287319E+03  0.18104976991E+03  0.00000000000E+00 0.  1.
</event>
<event>
12    1  0.9017558E-003  0.1776081E+03  0.7818608E-02  0.1170201E+00
         21   -1    0    0  501  502  0.00000000000E+00  0.00000000000E+00  0.23588677316E+02  0.23588677316E+02  0.00000000000E+00 0. -1.
         21   -1    0    0  502  503 -0.00000000000E+00 -0.00000000000E+00 -0.14831488219E+04  0.14831488219E+04  0.00000000000E+00 0. -1.
          6    2    1    2  501    0  0.33921986186E+02  0.31965331482E+02 -0.49243254048E+03  0.52348298305E+03  0.17138303024E+03 0.  0.
         24    2    3    3    0    0  0.36513787344E+02 -0.24708190620E+02 -0.42785499529E+03  0.43739607996E+03  0.79446097571E+02 0.  0.
         -6    2    1    2    0  503 -0.33921986186E+02 -0.31965331482E+02 -0.96712760411E+03  0.98325451617E+03  0.17111737896E+03 0.  0.
        -24    2    5    5    0    0 -0.73414309467E+02  0.91705659736E+00 -0.82458487392E+03  0.83165829270E+03  0.79528609177E+02 0.  0.
          5    1    3    3  501    0 -0.25918011578E+01  0.56673522102E+02 -0.64577545194E+02  0.86086903092E+02  0.47000000000E+01 0. -1.
        -13    1    4    4    0    0  0.40528532703E+02 -0.59922406999E+01 -0.40712112948E+03  0.40917732461E+03  0.00000000000E+00 0.  1.
         14    1    4    4    0    0 -0.40147453591E+01 -0.18715949920E+02 -0.20733865814E+02  0.28218755347E+02  0.00000000000E+00 0. -1.
         -5    1    5    5    0  503  0.39492323281E+02 -0.32882388079E+02 -0.14254273018E+03  0.15159622348E+03  0.47000000000E+01 0.  1.
         13    1    6    6    0    0 -0.55446551038E+02 -0.25811430423E+02 -0.71011862295E+03  0.71274750692E+03  0.00000000000E+00 0. -1.
        -14    1    6    6    0    0 -0.17967758429E+02  0.26728487020E+02 -0.11446625097E+03  0.11891078577E+03  0.00000000000E+00 0.  1.
</event>
<event>
12    1  0.9017558E-003  0.1819962E+03  0.7818608E-02  0.1168014E+00
         21   -1    0    0  501  502  0.00000000000E+00  0.00000000000E+00  0.14648619435E+04  0.14648619435E+04  0.00000000000E+00 0.  1.
         21   -1    0    0  502  503 -0.00000000000E+00 -0.00000000000E+00 -0.22197898943E+02  0.22197898943E+02  0.00000000000E+00 0.  1.
          6    2    1    2  501    0 -0.62934493675E+02 -0.84354674458E+01  0.83177411376E+03  0.84963603428E+03  0.16124920720E+03 0.  0.
         24    2    3    3    0    0  0.15744029942E+02 -0.64191730629E+01  0.57092082572E+03  0.57712749606E+03  0.82682992251E+02 0.  0.
         -6    2    1    2    0  503  0.62934493675E+02  0.84354674458E+01  0.61088993081E+03  0.63742380818E+03  0.17055994858E+03 0.  0.
        -24    2    5    5    0    0  0.10509090621E+03  0.12126210049E+02  0.37376031083E+03  0.39650197154E+03  0.79535526273E+02 0.  0.
          5    1    3    3  501    0 -0.78678523617E+02 -0.20162943829E+01  0.26085328804E+03  0.27250853822E+03  0.47000000000E+01 0. -1.
        -13    1    4    4    0    0 -0.18892154897E+02  0.19966477589E+02  0.86702847493E+02  0.90955799746E+02  0.00000000000E+00 0.  1.
         14    1    4    4    0    0  0.34636184838E+02 -0.26385650652E+02  0.48421797823E+03  0.48617169632E+03  0.00000000000E+00 0. -1.
         -5    1    5    5    0  503 -0.42156412537E+02 -0.36907426034E+01  0.23712961998E+03  0.24092183664E+03  0.47000000000E+01 0.  1.
         13    1    6    6    0    0 -0.53603405859E+01  0.13815975946E+02  0.14859528945E+02  0.20986186957E+02  0.00000000000E+00 0. -1.
        -14    1    6    6    0    0  0.11045124680E+03 -0.16897658971E+01  0.35890078189E+03  0.37551578458E+03  0.00000000000E+00 0.  1.
</event>
<event>
12    1  0.9017558E-003  0.2306771E+03  0.7818608E-02  0.1126776E+00
         21   -1    0    0  503  502  0.00000000000E+00  0.00000000000E+00  0.24696383233E+03  0.24696383233E+03  0.00000000000E+00 0. -1.
         21   -1    0    0  501  503 -0.00000000000E+00 -0.00000000000E+00 -0.21381183448E+03  0.21381183448E+03  0.00000000000E+00 0. -1.
          6    2    1    2  501    0  0.10621731201E+03 -0.11134539451E+03  0.36451060639E+02  0.23353926046E+03  0.17184874776E+03 0.  0.
         24    2    3    3    0    0  0.13272912933E+03 -0.92788570414E+02 -0.14343036572E+01  0.18349305175E+03  0.86260664513E+02 0.  0.
         -6    2    1    2    0  502 -0.10621731201E+03  0.11134539451E+03 -0.32990627864E+01  0.22723640635E+03  0.16716933422E+03 0.  0.
        -24    2    5    5    0    0  0.43722392880E+01  0.46487798650E+02  0.26528231549E+02  0.95523407428E+02  0.78998369589E+02 0.  0.
          5    1    3    3  501    0 -0.26511817324E+02 -0.18556824099E+02  0.37885364296E+02  0.50046208711E+02  0.47000000000E+01 0. -1.
        -11    1    4    4    0    0  0.61787480898E+01 -0.42495619474E+02  0.16776181732E+02  0.46103089657E+02  0.00000000000E+00 0.  1.
         12    1    4    4    0    0  0.12655038124E+03 -0.50292950940E+02 -0.18210485389E+02  0.13738996210E+03  0.00000000000E+00 0. -1.
         -5    1    5    5    0  502 -0.11058955130E+03  0.64857595863E+02 -0.29827294336E+02  0.13171299892E+03  0.47000000000E+01 0.  1.
         13    1    6    6    0    0 -0.27595831236E+02  0.28941757895E+02  0.40082240513E+02  0.56619265769E+02  0.00000000000E+00 0. -1.
        -14    1    6    6    0    0  0.31968070524E+02  0.17546040755E+02 -0.13554008963E+02  0.38904141659E+02  0.00000000000E+00 0.  1.
</event>
<event>
12    1  0.9017558E-003  0.1971633E+03  0.7818608E-02  0.1152895E+00
         21   -1    0    0  501  502  0.00000000000E+00  0.00000000000E+00  0.20257044842E+03  0.20257044842E+03  0.00000000000E+00 0. -1.
         21   -1    0    0  502  503 -0.00000000000E+00 -0.00000000000E+00 -0.22684425442E+03  0.22684425442E+03  0.00000000000E+00 0. -1.
          6    2    1    2  501    0 -0.58191165822E+01  0.96207499361E+02 -0.10039141496E+03  0.22125054125E+03  0.17199889754E+03 0.  0.
         24    2    3    3    0    0  0.10064202832E+02  0.46735919079E+01  0.62212352879E+01  0.79761731650E+02  0.78740710102E+02 0.  0.
         -6    2    1    2    0  503  0.58191165822E+01 -0.96207499361E+02  0.76117608969E+02  0.20816416158E+03  0.16807344443E+03 0.  0.
        -24    2    5    5    0    0 -0.38833177088E+02 -0.10791211149E+03  0.80212612048E+02  0.16158429120E+03  0.80761256682E+02 0.  0.
          5    1    3    3  501    0 -0.15883319414E+02  0.91533907454E+02 -0.10661265025E+03  0.14148880960E+03  0.47000000000E+01 0. -1.
        -13    1    4    4    0    0  0.16318170616E+02  0.22650316090E+02  0.35301884935E+02  0.45006028388E+02  0.00000000000E+00 0.  1.
         14    1    4    4    0    0 -0.62539677840E+01 -0.17976724182E+02 -0.29080649647E+02  0.34755703263E+02  0.00000000000E+00 0. -1.
         -5    1    5    5    0  503  0.44652293671E+02  0.11704612129E+02 -0.40950030795E+01  0.46579870388E+02  0.47000000000E+01 0.  1.
         11    1    6    6    0    0  0.21146823960E+02 -0.34975510032E+02  0.45027009560E+02  0.60810410749E+02  0.00000000000E+00 0. -1.
        -12    1    6    6    0    0 -0.59980001048E+02 -0.72936601458E+02  0.35185602489E+02  0.10077388045E+03  0.00000000000E+00 0.  1.
</event>
<event>
12    1  0.9017558E-003  0.2825061E+03  0.7818608E-02  0.1094346E+00
         21   -1    0    0  503  502  0.00000000000E+00  0.00000000000E+00  0.64111329296E+03  0.64111329296E+03  0.00000000000E+00 0. -1.
         21   -1    0    0  501  503 -0.00000000000E+00 -0.00000000000E+00 -0.20598571485E+03  0.20598571485E+03  0.00000000000E+00 0. -1.
          6    2    1    2  501    0 -0.11806803499E+03  0.19051503369E+03 -0.48984002898E+02  0.28658697919E+03  0.17174581554E+03 0.  0.
         24    2    3    3    0    0 -0.15933726026E+02  0.85026814877E+02 -0.71481160514E+02  0.13796869810E+03  0.80264328769E+02 0.  0.
         -6    2    1    2    0  502  0.11806803499E+03 -0.19051503369E+03  0.48411158101E+03  0.56051202861E+03  0.17196997529E+03 0.  0.
        -24    2    5    5    0    0  0.15300948532E+03 -0.15771245385E+03  0.41153078599E+03  0.47340877952E+03  0.80455975635E+02 0.  0.
          5    1    3    3  501    0 -0.10213430896E+03  0.10548821881E+03  0.22497157616E+02  0.14861828110E+03  0.47000000000E+01 0. -1.
        -13    1    4    4    0    0 -0.46724076147E+02  0.31965639758E+02 -0.36268624496E+02  0.67233581934E+02  0.00000000000E+00 0.  1.
         14    1    4    4    0    0  0.30790350121E+02  0.53061175120E+02 -0.35212536018E+02  0.70735116163E+02  0.00000000000E+00 0. -1.
         -5    1    5    5    0  502 -0.34941450333E+02 -0.32802579841E+02  0.72580795019E+02  0.87103249085E+02  0.47000000000E+01 0. -1.
         13    1    6    6    0    0  0.13648332226E+03 -0.16385026694E+03  0.35430907412E+03  0.41353298204E+03  0.00000000000E+00 0. -1.
        -14    1    6    6    0    0  0.16526163059E+02  0.61378130894E+01  0.57221711868E+02  0.59875797482E+02  0.00000000000E+00 0.  1.
</event>
<event>
12    1  0.9017558E-003  0.1821450E+03  0.7818608E-02  0.1165756E+00
         21   -1    0    0  503  502  0.00000000000E+00  0.00000000000E+00  0.41179157219E+02  0.41179157219E+02  0.00000000000E+00 0.  1.
         21   -1    0    0  501  503 -0.00000000000E+00 -0.00000000000E+00 -0.93413363389E+03  0.93413363389E+03  0.00000000000E+00 0.  1.
          6    2    1    2  501    0 -0.53865562211E+02  0.30636452785E+02 -0.62743166313E+03  0.65332028226E+03  0.17122151818E+03 0.  0.
         24    2    3    3    0    0  0.30365639041E+01  0.67902493191E+02 -0.38893524796E+03  0.40526940084E+03  0.91393056922E+02 0.  0.
         -6    2    1    2    0  502  0.53865562211E+02 -0.30636452785E+02 -0.26552281354E+03  0.32199250885E+03  0.17127965498E+03 0.  0.
        -24    2    5    5    0    0  0.38143391390E+02  0.38928652918E+02 -0.91710089688E+02  0.13405782987E+03  0.81181296337E+02 0.  0.
          5    1    3    3  501    0 -0.56902126115E+02 -0.37266040406E+02 -0.23849641517E+03  0.24805088142E+03  0.47000000000E+01 0. -1.
        -11    1    4    4    0    0  0.37209307423E+01  0.57995526044E+02 -0.96377067566E+02  0.11254272753E+03  0.00000000000E+00 0.  1.
         12    1    4    4    0    0 -0.68436683824E+00  0.99069671470E+01 -0.29255818039E+03  0.29272667331E+03  0.00000000000E+00 0. -1.
         -5    1    5    5    0  502  0.15722170821E+02 -0.69565105703E+02 -0.17381272386E+03  0.18793467897E+03  0.47000000000E+01 0.  1.
         11    1    6    6    0    0 -0.18226144665E+02  0.18225283986E+02 -0.61821854426E+02  0.66979810468E+02  0.00000000000E+00 0. -1.
        -12    1    6    6    0    0  0.56369536055E+02  0.20703368932E+02 -0.29888235262E+02  0.67078019405E+02  0.00000000000E+00 0.  1.
</event>
<event>
12    1  0.9017558E-003  0.1888856E+03  0.7818608E-02  0.1159842E+00
         21   -1    0    0  501  502  0.00000000000E+00  0.00000000000E+00  0.18178755764E+03  0.18178755764E+03  0.00000000000E+00 0. -1.
         21   -1    0    0  502  503 -0.00000000000E+00 -0.00000000000E+00 -0.20244365918E+03  0.20244365918E+03  0.00000000000E+00 0. -1.
          6    2    1    2  501    0  0.69132828448E+01  0.71805849737E+02 -0.48162307502E+02  0.19335332199E+03  0.17280632432E+03 0.  0.
         24    2    3    3    0    0 -0.45868321889E+02  0.31718181472E+02 -0.73463764536E+02  0.12225358449E+03  0.80243804941E+02 0.  0.
         -6    2    1    2    0  503 -0.69132828448E+01 -0.71805849737E+02  0.27506205963E+02  0.19087789483E+03  0.17456776859E+03 0.  0.
        -24    2    5    5    0    0  0.10853439856E+01 -0.10166078874E+03  0.62308061471E+02  0.14409590512E+03  0.80902666265E+02 0.  0.
          5    1    3    3  501    0  0.52781604734E+02  0.40087668264E+02  0.25301457034E+02  0.71099737504E+02  0.47000000000E+01 0. -1.
        -13    1    4    4    0    0 -0.29009988187E+01  0.32310908782E+01  0.17318568940E+02  0.17854651285E+02  0.00000000000E+00 0.  1.
         14    1    4    4    0    0 -0.42967323070E+02  0.28487090594E+02 -0.90782333476E+02  0.10439893320E+03  0.00000000000E+00 0. -1.
         -5    1    5    5    0  503 -0.79986268304E+01  0.29854939006E+02 -0.34801855508E+02  0.46781989708E+02  0.47000000000E+01 0.  1.
         13    1    6    6    0    0  0.15039950912E+01  0.12564106513E+02  0.17046342518E+02  0.21229615327E+02  0.00000000000E+00 0. -1.
        -14    1    6    6    0    0 -0.41865110553E+00 -0.11422489526E+03  0.45261718953E+02  0.12286628979E+03  0.00000000000E+00 0.  1.
</event>
<event>
12    1  0.9017558E-003  0.2396478E+03  0.7818608E-02  0.1120125E+00
         21   -1    0    0  501  502  0.00000000000E+00  0.00000000000E+00  0.91364573644E+02  0.91364573644E+02  0.00000000000E+00 0. -1.
         21   -1    0    0  502  503 -0.00000000000E+00 -0.00000000000E+00 -0.77432173026E+03  0.77432173026E+03  0.00000000000E+00 0. -1.
          6    2    1    2  501    0 -0.15061999339E+03 -0.69526467454E+02 -0.15238014541E+03  0.28349815433E+03  0.17213710440E+03 0.  0.
         24    2    3    3    0    0 -0.10939689064E+03  0.15037677670E+01 -0.15594193810E+03  0.20116095203E+03  0.64636673515E+02 0.  0.
         -6    2    1    2    0  503  0.15061999339E+03  0.69526467454E+02 -0.53057701121E+03  0.58218814957E+03  0.17294728848E+03 0.  0.
        -24    2    5    5    0    0  0.17642597211E+03  0.48256565794E+02 -0.49169916589E+03  0.53069121655E+03  0.80064210516E+02 0.  0.
          5    1    3    3  501    0 -0.41223102750E+02 -0.71030235221E+02  0.35617926954E+01  0.82337202303E+02  0.47000000000E+01 0. -1.
        -13    1    4    4    0    0 -0.36699280625E+02  0.28140302704E+02 -0.36935542821E+02  0.59185709071E+02  0.00000000000E+00 0.  1.
         14    1    4    4    0    0 -0.72697610014E+02 -0.26636534937E+02 -0.11900639528E+03  0.14197524296E+03  0.00000000000E+00 0. -1.
         -5    1    5    5    0  503 -0.25805978720E+02  0.21269901660E+02 -0.38877845318E+02  0.51496933024E+02  0.47000000000E+01 0.  1.
         13    1    6    6    0    0  0.12140934887E+03 -0.60140500526E+01 -0.32363820919E+03  0.34571388349E+03  0.00000000000E+00 0. -1.
        -14    1    6    6    0    0  0.55016623235E+02  0.54270615847E+02 -0.16806095670E+03  0.18497733305E+03  0.00000000000E+00 0.  1.
</event>
<event>
12    1  0.9017558E-003  0.1881646E+03  0.7818608E-02  0.1162335E+00
         21   -1    0    0  501  502  0.00000000000E+00  0.00000000000E+00  0.65461161762E+02  0.65461161762E+02  0.00000000000E+00 0.  1.
         21   -1    0    0  502  503 -0.00000000000E+00 -0.00000000000E+00 -0.52328556988E+03  0.52328556988E+03  0.00000000000E+00 0. -1.
          6    2    1    2  501    0  0.43290928785E+02 -0.61006080575E+02 -0.18431491725E+03  0.25676277429E+03  0.16235543464E+03 0.  0.
         24    2    3    3    0    0 -0.19155636064E+02 -0.62839016239E+02 -0.64570673689E+02  0.12161949114E+03  0.79411890602E+02 0.  0.
         -6    2    1    2    0  503 -0.43290928785E+02  0.61006080575E+02 -0.27350949087E+03  0.33198395735E+03  0.17265590046E+03 0.  0.
        -24    2    5    5    0    0 -0.19690792087E+02  0.10752439648E+03 -0.19444744722E+03  0.23714822088E+03  0.80499973955E+02 0.  0.
          5    1    3    3  501    0  0.62446564849E+02  0.18329356637E+01 -0.11974424356E+03  0.13514328315E+03  0.47000000000E+01 0. -1.
        -11    1    4    4    0    0 -0.13975508993E+02 -0.73318424566E+02 -0.22501749230E+02  0.77956622238E+02  0.00000000000E+00 0.  1.
         12    1    4    4    0    0 -0.51801270712E+01  0.10479408326E+02 -0.42068924459E+02  0.43662868899E+02  0.00000000000E+00 0. -1.
         -5    1    5    5    0  503 -0.23600136698E+02 -0.46518315901E+02 -0.79062043650E+02  0.94835736474E+02  0.47000000000E+01 0.  1.
         13    1    6    6    0    0  0.10553810026E+02  0.45839922932E+02 -0.14517458886E+03  0.15260518566E+03  0.00000000000E+00 0. -1.
        -14    1    6    6    0    0 -0.30244602113E+02  0.61684473544E+02 -0.49272858362E+02  0.84543035222E+02  0.00000000000E+00 0.  1.
</event>
<event>
12    1  0.9017558E-003  0.1723840E+03  0.7818608E-02  0.1175400E+00
         21   -1    0    0  501  502  0.00000000000E+00  0.00000000000E+00  0.48847303217E+03  0.48847303217E+03  0.00000000000E+00 0.  1.
         21   -1    0    0  502  503 -0.00000000000E+00 -0.00000000000E+00 -0.67479300741E+02  0.67479300741E+02  0.00000000000E+00 0.  1.
          6    2    1    2  501    0 -0.16393535947E+01  0.97729694244E+01  0.12316527521E+03  0.21186303231E+03  0.17209898614E+03 0.  0.
         24    2    3    3    0    0  0.45878416320E+02  0.48509653236E+02  0.54068428132E+02  0.11937014931E+03  0.82872323994E+02 0.  0.
         -6    2    1    2    0  503  0.16393535947E+01 -0.97729694244E+01  0.29782845622E+03  0.34408930060E+03  0.17203912067E+03 0.  0.
        -24    2    5    5    0    0  0.31686693908E+01  0.14145057206E+02  0.53394792720E+02  0.98438498325E+02  0.81418738346E+02 0.  0.
          5    1    3    3  501    0 -0.47517769915E+02 -0.38736683811E+02  0.69096847073E+02  0.92492883001E+02  0.47000000000E+01 0. -1.
        -11    1    4    4    0    0  0.53386989599E+02 -0.35423882569E+01  0.31945768282E+02  0.62315738655E+02  0.00000000000E+00 0.  1.
         12    1    4    4    0    0 -0.75085732783E+01  0.52052041493E+02  0.22122659850E+02  0.57054410654E+02  0.00000000000E+00 0. -1.
         -5    1    5    5    0  503 -0.15293157961E+01 -0.23918026630E+02  0.24443366350E+03  0.24565080227E+03  0.47000000000E+01 0.  1.
         13    1    6    6    0    0  0.23698348702E+02 -0.27257058627E+02  0.18851179797E+02  0.40742188895E+02  0.00000000000E+00 0. -1.
        -14    1    6    6    0    0 -0.20529679311E+02  0.41402115833E+02  0.34543612923E+02  0.57696309430E+02  0.00000000000E+00 0.  1.
</event>
<event>
12    1  0.9017558E-003  0.1961347E+03  0.7818608E-02  0.1153120E+00
         21   -1    0    0  503  502  0.00000000000E+00  0.00000000000E+00  0.66875658523E+02  0.66875658523E+02  0.00000000000E+00 0.  1.
         21   -1    0    0  501  503 -0.00000000000E+00 -0.00000000000E+00 -0.60440495135E+03  0.60440495135E+03  0.00000000000E+00 0.  1.
          6    2    1    2  501    0 -0.71724648068E+02  0.61493128607E+02 -0.19392342470E+03  0.27581721046E+03  0.17188079861E+03 0.  0.
         24    2    3    3    0    0 -0.24495948270E+01  0.90535503962E+02 -0.12470981071E+03  0.17356699320E+03  0.79814073002E+02 0.  0.
         -6    2    1    2    0  502  0.71724648068E+02 -0.61493128607E+02 -0.34360586813E+03  0.39546339941E+03  0.17146567487E+03 0.  0.
        -24    2    5    5    0    0 -0.50784294052E+01  0.47532499318E+01 -0.23059015651E+03  0.24353599421E+03  0.78035737756E+02 0.  0.
          5    1    3    3  501    0 -0.69275053241E+02 -0.29042375356E+02 -0.69213613995E+02  0.10225021726E+03  0.47000000000E+01 0. -1.
        -13    1    4    4    0    0 -0.11897486846E+02  0.49808833324E+02 -0.10949673594E+02  0.52367598973E+02  0.00000000000E+00 0.  1.
         14    1    4    4    0    0  0.94478920188E+01  0.40726670638E+02 -0.11376013711E+03  0.12119939423E+03  0.00000000000E+00 0. -1.
         -5    1    5    5    0  502  0.76803077473E+02 -0.66246378538E+02 -0.11301571161E+03  0.15192740520E+03  0.47000000000E+01 0.  1.
         11    1    6    6    0    0 -0.19179884727E+02 -0.31091349413E+02 -0.77561524755E+02  0.85734066210E+02  0.00000000000E+00 0. -1.
        -12    1    6    6    0    0  0.14101455322E+02  0.35844599345E+02 -0.15302863176E+03  0.15780192800E+03  0.00000000000E+00 0.  1.
</event>
<event>
12    1  0.9017558E-003  0.1781728E+03  0.7818608E-02  0.1170148E+00
         21   -1    0    0  503  502  0.00000000000E+00  0.00000000000E+00  0.58780994944E+02  0.58780994944E+02  0.00000000000E+00 0.  1.
         21   -1    0    0  501  503 -0.00000000000E+00 -0.00000000000E+00 -0.62468637425E+03  0.62468637425E+03  0.00000000000E+00 0.  1.
          6    2    1    2  501    0 -0.17672961359E+02  0.36403059580E+02 -0.41220206648E+03  0.44815851409E+03  0.17116656749E+03 0.  0.
         24    2    3    3    0    0  0.30392591461E+02 -0.17671126413E+02 -0.13655139694E+03  0.16313273179E+03  0.82036734751E+02 0.  0.
         -6    2    1    2    0  502  0.17672961359E+02 -0.36403059580E+02 -0.15370331282E+03  0.23530885511E+03  0.17351666378E+03 0.  0.
        -24    2    5    5    0    0 -0.51473789555E+00  0.17235076746E+02 -0.15256495435E+03  0.17846496421E+03  0.90974531207E+02 0.  0.
          5    1    3    3  501    0 -0.48065552821E+02  0.54074185993E+02 -0.27565066954E+03  0.28502578230E+03  0.47000000000E+01 0. -1.
        -13    1    4    4    0    0  0.20565449995E+02  0.30714560375E+02 -0.38617321790E+02  0.53456706734E+02  0.00000000000E+00 0.  1.
         14    1    4    4    0    0  0.98271414662E+01 -0.48385686789E+02 -0.97934075152E+02  0.10967602505E+03  0.00000000000E+00 0. -1.
         -5    1    5    5    0  502  0.18187699255E+02 -0.53638136326E+02 -0.11383584751E+01  0.56843890901E+02  0.47000000000E+01 0.  1.
         13    1    6    6    0    0  0.18154208605E+01  0.75435428113E+01 -0.16349117305E+03  0.16367517972E+03  0.00000000000E+00 0. -1.
        -14    1    6    6    0    0 -0.23301587560E+01  0.96915339347E+01  0.10926218706E+02  0.14789784482E+02  0.00000000000E+00 0.  1.
</event>
<event>
12    1  0.9017558E-003  0.2268107E+03  0.7818608E-02  0.1128948E+00
         21   -1    0    0  501  502  0.00000000000E+00  0.00000000000E+00  0.91862533985E+03  0.91862533985E+03  0.00000000000E+00 0. -1.
         21   -1    0    0  502  503 -0.00000000000E+00 -0.00000000000E+00 -0.56465965938E+02  0.56465965938E+02  0.00000000000E+00 0. -1.
          6    2    1    2  501    0  0.14238363221E+03 -0.33169822950E+02  0.47786138779E+03  0.52885365713E+03  0.17309346850E+03 0.  0.
         24    2    3    3    0    0  0.10422807301E+03  0.45120135018E+02  0.27590131278E+03  0.30886473442E+03  0.79853440651E+02 0.  0.
         -6    2    1    2    0  503 -0.14238363221E+03  0.33169822950E+02  0.38429798612E+03  0.44623764866E+03  0.17340634669E+03 0.  0.
        -24    2    5    5    0    0 -0.50028035032E+02  0.37922169898E+02  0.84318282754E+02  0.13229170815E+03  0.80315801559E+02 0.  0.
          5    1    3    3  501    0  0.38155559196E+02 -0.78289957967E+02  0.20196007501E+03  0.21998892271E+03  0.47000000000E+01 0. -1.
        -11    1    4    4    0    0  0.47382337348E+02  0.39657951109E+02  0.22163188034E+03  0.23008374424E+03  0.00000000000E+00 0.  1.
         12    1    4    4    0    0  0.56845735666E+02  0.54621839089E+01  0.54269432444E+02  0.78780990183E+02  0.00000000000E+00 0. -1.
         -5    1    5    5    0  503 -0.92355597178E+02 -0.47523469484E+01  0.29997970336E+03  0.31394594051E+03  0.47000000000E+01 0.  1.
         13    1    6    6    0    0 -0.40079785483E+02 -0.11546342685E+02  0.67040795078E+02  0.78956794758E+02  0.00000000000E+00 0. -1.
        -14    1    6    6    0    0 -0.99482495489E+01  0.49468512583E+02  0.17277487676E+02  0.53334913393E+02  0.00000000000E+00 0.  1.
</event>
<event>
12    1  0.9017558E-003  0.2494057E+03  0.7818608E-02  0.1113904E+00
         21   -1    0    0  503  502  0.00000000000E+00  0.00000000000E+00  0.80713330906E+02  0.80713330906E+02  0.00000000000E+00 0.  1.
         21   -1    0    0  501  503 -0.00000000000E+00 -0.00000000000E+00 -0.10219456408E+04  0.10219456408E+04  0.00000000000E+00 0.  1.
          6    2    1    2  501    0  0.18080471719E+03  0.10365166346E+02 -0.74534663517E+03  0.78552428081E+03  0.16943732398E+03 0.  0.
         24    2    3    3    0    0  0.96322507526E+02 -0.30589536420E+02 -0.58837517186E+03  0.60255799506E+03  0.81713214076E+02 0.  0.
         -6    2    1    2    0  502 -0.18080471719E+03 -0.10365166346E+02 -0.19588567473E+03  0.31713469090E+03  0.17148012180E+03 0.  0.
        -24    2    5    5    0    0 -0.10340688626E+03  0.40528797252E+02 -0.51569319398E+02  0.14558318207E+03  0.78736907906E+02 0.  0.
          5    1    3    3  501    0  0.84482209667E+02  0.40954702766E+02 -0.15697146331E+03  0.18296628575E+03  0.47000000000E+01 0. -1.
        -11    1    4    4    0    0  0.10610215328E+03 -0.41320157847E+02 -0.48611286814E+03  0.49927021036E+03  0.00000000000E+00 0.  1.
         12    1    4    4    0    0 -0.97796457559E+01  0.10730621427E+02 -0.10226230372E+03  0.10328778470E+03  0.00000000000E+00 0. -1.
         -5    1    5    5    0  502 -0.77397830936E+02 -0.50893963597E+02 -0.14431635533E+03  0.17155150883E+03  0.47000000000E+01 0.  1.
         13    1    6    6    0    0 -0.37279226245E+02  0.47322995077E+02 -0.51270549033E+02  0.79106736569E+02  0.00000000000E+00 0. -1.
        -14    1    6    6    0    0 -0.66127660012E+02 -0.67941978251E+01 -0.29877036452E+00  0.66476445501E+02  0.00000000000E+00 0.  1.
</event>
<event>
12    1  0.9017558E-003  0.1793882E+03  0.7818608E-02  0.1168780E+00
         21   -1    0    0  503  502  0.00000000000E+00  0.00000000000E+00  0.10934044184E+03  0.10934044184E+03  0.00000000000E+00 0. -1.
         21   -1    0    0  501  503 -0.00000000000E+00 -0.00000000000E+00 -0.29969777486E+03  0.29969777486E+03  0.00000000000E+00 0. -1.
          6    2    1    2  501    0  0.45141132978E+02 -0.11065674001E+02 -0.61441474341E+02  0.18813227610E+03  0.17163486683E+03 0.  0.
         24    2    3    3    0    0 -0.34674253640E+02  0.19592194231E+02 -0.97578454273E+01  0.88113836180E+02  0.77991503632E+02 0.  0.
         -6    2    1    2    0  502 -0.45141132978E+02  0.11065674001E+02 -0.12891585868E+03  0.22090594060E+03  0.17326270500E+03 0.  0.
        -24    2    5    5    0    0 -0.75655655559E+02  0.56227368945E+02 -0.10220045445E+03  0.16002476451E+03  0.79231919897E+02 0.  0.
          5    1    3    3  501    0  0.79815386618E+02 -0.30657868233E+02 -0.51683628914E+02  0.10001843992E+03  0.47000000000E+01 0. -1.
        -11    1    4    4    0    0 -0.37304628241E+02  0.41042207343E+02 -0.25829376351E+02  0.61182144082E+02  0.00000000000E+00 0.  1.
         12    1    4    4    0    0  0.26303746005E+01 -0.21450013112E+02  0.16071530924E+02  0.26931692098E+02  0.00000000000E+00 0. -1.
         -5    1    5    5    0  502  0.30514522581E+02 -0.45161694943E+02 -0.26715404231E+02  0.60881176087E+02  0.47000000000E+01 0.  1.
         13    1    6    6    0    0 -0.19421720151E+02 -0.18901287556E+02 -0.11260886452E+02  0.29347392534E+02  0.00000000000E+00 0. -1.
        -14    1    6    6    0    0 -0.56233935408E+02  0.75128656501E+02 -0.90939567995E+02  0.13067737197E+03  0.00000000000E+00 0.  1.
</event>
<event>
12    1  0.9017558E-003  0.2638371E+03  0.7818608E-02  0.1104958E+00
         21   -1    0    0  501  502  0.00000000000E+00  0.00000000000E+00  0.28121954112E+03  0.28121954112E+03  0.00000000000E+00 0.  1.
         21   -1    0    0  502  503 -0.00000000000E+00 -0.00000000000E+00 -0.24697870259E+03  0.24697870259E+03  0.00000000000E+00 0.  1.
          6    2    1    2  501    0  0.10140771516E+03  0.17166354473E+03  0.12533112417E+02  0.26346964088E+03  0.17177681879E+03 0.  0.
         24    2    3    3    0    0  0.56575078905E+02  0.18599211691E+02 -0.19119726233E+02  0.10079620261E+03  0.79042016049E+02 0.  0.
         -6    2    1    2    0  503 -0.10140771516E+03 -0.17166354473E+03  0.21707726118E+02  0.26472860284E+03  0.17279499559E+03 0.  0.
        -24    2    5    5    0    0 -0.38049966952E+02 -0.11359229752E+03  0.75872661813E+02  0.16303099092E+03  0.80445218303E+02 0.  0.
          5    1    3    3  501    0  0.44832636255E+02  0.15306433304E+03  0.31652838650E+02  0.16267343827E+03  0.47000000000E+01 0. -1.
        -11    1    4    4    0    0  0.12556299910E+02  0.75709858001E+01  0.30325197499E+02  0.33683795760E+02  0.00000000000E+00 0.  1.
         12    1    4    4    0    0  0.44018778995E+02  0.11028225891E+02 -0.49444923732E+02  0.67112406852E+02  0.00000000000E+00 0. -1.
         -5    1    5    5    0  503 -0.63357748209E+02 -0.58071247213E+02 -0.54164935695E+02  0.10169761192E+03  0.47000000000E+01 0.  1.
         13    1    6    6    0    0 -0.17243742691E+02 -0.25756491460E+02  0.65127574642E+02  0.72127279812E+02  0.00000000000E+00 0. -1.
        -14    1    6    6    0    0 -0.20806224260E+02 -0.87835806061E+02  0.10745087171E+02  0.90903711105E+02  0.00000000000E+00 0.  1.
</event>
<event>
12    1  0.9017558E-003  0.1891035E+03  0.7818608E-02  0.1159564E+00
         21   -1    0    0  501  502  0.00000000000E+00  0.00000000000E+00  0.30687804424E+03  0.30687804424E+03  0.00000000000E+00 0.  1.
         21   -1    0    0  502  503 -0.00000000000E+00 -0.00000000000E+00 -0.42367418168E+03  0.42367418168E+03  0.00000000000E+00 0. -1.
          6    2    1    2  501    0 -0.41083055230E+02 -0.67309180466E+02  0.25295836233E+03  0.31582917686E+03  0.17187726052E+03 0.  0.
         24    2    3    3    0    0 -0.55018700621E+02 -0.41356789903E+02  0.61731515794E+02  0.12228970899E+03  0.80040935742E+02 0.  0.
         -6    2    1    2    0  503  0.41083055230E+02  0.67309180466E+02 -0.36975449976E+03  0.41472304906E+03  0.17046546314E+03 0.  0.
        -24    2    5    5    0    0  0.68682095727E+02 -0.78945168258E+01 -0.18508889275E+03  0.21337563900E+03  0.80571157562E+02 0.  0.
          5    1    3    3  501    0  0.13935645391E+02 -0.25952390563E+02  0.19122684653E+03  0.19353946787E+03  0.47000000000E+01 0. -1.
        -13    1    4    4    0    0 -0.50726163529E+02 -0.92731796753E+01  0.71792349824E+02  0.88392743033E+02  0.00000000000E+00 0.  1.
         14    1    4    4    0    0 -0.42925370915E+01 -0.32083610228E+02 -0.10060834030E+02  0.33896965960E+02  0.00000000000E+00 0. -1.
         -5    1    5    5    0  503 -0.27599040498E+02  0.75203697292E+02 -0.18466560701E+03  0.20134741006E+03  0.47000000000E+01 0.  1.
         11    1    6    6    0    0  0.59963643622E+02  0.29545792641E+02 -0.13028430949E+03  0.14643289835E+03  0.00000000000E+00 0. -1.
        -12    1    6    6    0    0  0.87184521049E+01 -0.37440309466E+02 -0.54804583261E+02  0.66942740655E+02  0.00000000000E+00 0.  1.
</event>
<event>
12    1  0.9017558E-003  0.1994502E+03  0.7818608E-02  0.1150252E+00
         21   -1    0    0  503  502  0.00000000000E+00  0.00000000000E+00  0.22994696647E+04  0.22994696647E+04  0.00000000000E+00 0. -1.
         21   -1    0    0  501  503 -0.00000000000E+00 -0.00000000000E+00 -0.25047476438E+02  0.25047476438E+02  0.00000000000E+00 0. -1.
          6    2    1    2  501    0 -0.10011038616E+03  0.16146869315E+02  0.49042814006E+03  0.52943378007E+03  0.17174852580E+03 0.  0.
         24    2    3    3    0    0 -0.30543622809E+02  0.55786791065E+02  0.15868908445E+03  0.18813662366E+03  0.78537154814E+02 0.  0.
         -6    2    1    2    0  502  0.10011038616E+03 -0.16146869315E+02  0.17839940482E+04  0.17950833610E+04  0.17148381367E+03 0.  0.
        -24    2    5    5    0    0  0.82851708021E+02 -0.55876803724E+02  0.79536410025E+03  0.80549375237E+03  0.78927247626E+02 0.  0.
          5    1    3    3  501    0 -0.69566763348E+02 -0.39639921750E+02  0.33173905561E+03  0.34129715642E+03  0.47000000000E+01 0. -1.
        -13    1    4    4    0    0 -0.18817930704E+02  0.47143400083E+02  0.16472494498E+03  0.17236856496E+03  0.00000000000E+00 0.  1.
         14    1    4    4    0    0 -0.11725692105E+02  0.86433909818E+01 -0.60358605248E+01  0.15768058704E+02  0.00000000000E+00 0. -1.
         -5    1    5    5    0  502  0.17258678136E+02  0.39729934410E+02  0.98862994790E+03  0.98958960865E+03  0.47000000000E+01 0.  1.
         11    1    6    6    0    0  0.71091133529E+02 -0.12361370900E+02  0.62919828012E+03  0.63332237325E+03  0.00000000000E+00 0. -1.
        -12    1    6    6    0    0  0.11760574492E+02 -0.43515432824E+02  0.16616582014E+03  0.17217137912E+03  0.00000000000E+00 0.  1.
</event>
<event>
12    1  0.9017558E-003  0.1744351E+03  0.7818608E-02  0.1173504E+00
         21   -1    0    0  503  502  0.00000000000E+00  0.00000000000E+00  0.48606553217E+02  0.48606553217E+02  0.00000000000E+00 0.  1.
         21   -1    0    0  501  503 -0.00000000000E+00 -0.00000000000E+00 -0.65257846371E+03  0.65257846371E+03  0.00000000000E+00 0.  1.
          6    2    1    2  501    0 -0.17875416186E+02  0.11082310683E+02 -0.22681713687E+03  0.28564520994E+03  0.17235087544E+03 0.  0.
         24    2    3    3    0    0 -0.29445172107E+02 -0.32424081596E+02 -0.22229964786E+03  0.24015715515E+03  0.79624032190E+02 0.  0.
         -6    2    1    2    0  502  0.17875416186E+02 -0.11082310683E+02 -0.37715477362E+03  0.41553980699E+03  0.17316252428E+03 0.  0.
        -24    2    5    5    0    0 -0.31774275092E+01  0.32722855726E+02 -0.34940864311E+03  0.35937885445E+03  0.77368467837E+02 0.  0.
          5    1    3    3  501    0  0.11569755922E+02  0.43506392279E+02 -0.45174890104E+01  0.45488054786E+02  0.47000000000E+01 0. -1.
        -13    1    4    4    0    0 -0.22004957084E+02 -0.33188684928E+02 -0.35921280825E+02  0.53628773617E+02  0.00000000000E+00 0.  1.
         14    1    4    4    0    0 -0.74402150234E+01  0.76460333204E+00 -0.18637836704E+03  0.18652838153E+03  0.00000000000E+00 0. -1.
         -5    1    5    5    0  502  0.21052843695E+02 -0.43805166409E+02 -0.27746130510E+02  0.56160952538E+02  0.47000000000E+01 0.  1.
         13    1    6    6    0    0  0.10134683340E+02  0.18100997164E+01 -0.21806743713E+01  0.10523478898E+02  0.00000000000E+00 0. -1.
        -14    1    6    6    0    0 -0.13312110850E+02  0.30912756009E+02 -0.34722796873E+03  0.34885537555E+03  0.00000000000E+00 0.  1.
</event>
<event>
12    1  0.9017558E-003  0.2470672E+03  0.7818608E-02  0.1115573E+00
         21   -1    0    0  503  502  0.00000000000E+00  0.00000000000E+00  0.58420884834E+03  0.58420884834E+03  0.00000000000E+00 0.  1.
         21   -1    0    0  501  503 -0.00000000000E+00 -0.00000000000E+00 -0.14153015387E+03  0.14153015387E+03  0.00000000000E+00 0.  1.
          6    2    1    2  501    0 -0.17066910544E+03 -0.35878014558E+02  0.32269296779E+02  0.24670030698E+03  0.17147757425E+03 0.  0.
         24    2    3    3    0    0 -0.60939850725E+02  0.19429878735E+02  0.64033215052E+02  0.11969436655E+03  0.78328176024E+02 0.  0.
         -6    2    1    2    0  502  0.17066910544E+03  0.35878014558E+02  0.41040939769E+03  0.47903869523E+03  0.17500577801E+03 0.  0.
        -24    2    5    5    0    0  0.19650248893E+03  0.40429714576E+02  0.32259398330E+03  0.38726877271E+03  0.75249148028E+02 0.  0.
          5    1    3    3  501    0 -0.10972925472E+03 -0.55307893293E+02 -0.31763918274E+02  0.12700594044E+03  0.47000000000E+01 0. -1.
        -13    1    4    4    0    0 -0.60509803534E+02  0.35880552623E+02  0.20682735389E+02  0.73325479361E+02  0.00000000000E+00 0.  1.
         14    1    4    4    0    0 -0.43004719096E+00 -0.16450673888E+02  0.43350479663E+02  0.46368887187E+02  0.00000000000E+00 0. -1.
         -5    1    5    5    0  502 -0.25833383484E+02 -0.45517000178E+01  0.87815414387E+02  0.91769922520E+02  0.47000000000E+01 0.  1.
         11    1    6    6    0    0  0.53868165357E+02 -0.22199873264E+02  0.80072166094E+02  0.99026084416E+02  0.00000000000E+00 0. -1.
        -12    1    6    6    0    0  0.14263432357E+03  0.62629587840E+02  0.24252181721E+03  0.28824268830E+03  0.00000000000E+00 0.  1.
</event>
<event>
12    1  0.9017558E-003  0.1760825E+03  0.7818608E-02  0.1172776E+00
         21   -1    0    0  501  502  0.00000000000E+00  0.00000000000E+00  0.25949509361E+03  0.25949509361E+03  0.00000000000E+00 0.  1.
         21   -1    0    0  502  503 -0.00000000000E+00 -0.00000000000E+00 -0.46851766353E+03  0.46851766353E+03  0.00000000000E+00 0.  1.
          6    2    1    2  501    0 -0.25339715299E+02  0.21183578281E+02  0.21134894534E+03  0.27225268207E+03  0.16841110723E+03 0.  0.
         24    2    3    3    0    0 -0.69278857855E+02  0.18852428259E+02  0.79956153572E+02  0.13360839536E+03  0.79392963291E+02 0.  0.
         -6    2    1    2    0  503  0.25339715299E+02 -0.21183578281E+02 -0.42037151525E+03  0.45576007507E+03  0.17295719131E+03 0.  0.
        -24    2    5    5    0    0 -0.28170670858E+01 -0.72304882415E+02 -0.33941477348E+03  0.35584873352E+03  0.78676558163E+02 0.  0.
          5    1    3    3  501    0  0.43939142555E+02  0.23311500221E+01  0.13139279177E+03  0.13864428671E+03  0.47000000000E+01 0. -1.
        -11    1    4    4    0    0  0.13586661124E+01 -0.11634265851E+02  0.49494628705E+02  0.50861777261E+02  0.00000000000E+00 0.  1.
         12    1    4    4    0    0 -0.70637523967E+02  0.30486694110E+02  0.30461524867E+02  0.82746618101E+02  0.00000000000E+00 0. -1.
         -5    1    5    5    0  503  0.28156782385E+02  0.51121304134E+02 -0.80956741775E+02  0.99911341545E+02  0.47000000000E+01 0.  1.
         13    1    6    6    0    0  0.54072582318E+01 -0.64570727388E+02 -0.12198968107E+03  0.13813073360E+03  0.00000000000E+00 0. -1.
        -14    1    6    6    0    0 -0.82243253176E+01 -0.77341550274E+01 -0.21742509241E+03  0.21771799992E+03  0.00000000000E+00 0.  1.
</event>
<event>
12    1  0.9017558E-003  0.1894979E+03  0.7818608E-02  0.1159261E+00
         21   -1    0    0  503  502  0.00000000000E+00  0.00000000000E+00  0.39645296193E+03  0.39645296193E+03  0.00000000000E+00 0. -1.
         21   -1    0    0  501  503 -0.00000000000E+00 -0.00000000000E+00 -0.89863725751E+02  0.89863725751E+02  0.00000000000E+00 0. -1.
          6    2    1    2  501    0 -0.21975006157E+02  0.72003479409E+02  0.15691859888E+03  0.24603432214E+03  0.17390238370E+03 0.  0.
         24    2    3    3    0    0 -0.67778580438E+02  0.83823709552E+02  0.14408837115E+03  0.19679622712E+03  0.79667722826E+02 0.  0.
         -6    2    1    2    0  502  0.21975006157E+02 -0.72003479409E+02  0.14967063730E+03  0.24028236554E+03  0.17224085919E+03 0.  0.
        -24    2    5    5    0    0 -0.49993963493E+02 -0.28737452655E+02  0.10971262234E+03  0.14716837828E+03  0.79350075576E+02 0.  0.
          5    1    3    3  501    0  0.45803574280E+02 -0.11820230143E+02  0.12830227726E+02  0.49238095018E+02  0.47000000000E+01 0. -1.
        -13    1    4    4    0    0  0.69852132287E+01  0.27194497838E+02  0.42195097339E+01  0.28392572601E+02  0.00000000000E+00 0.  1.
         14    1    4    4    0    0 -0.74763793666E+02  0.56629211713E+02  0.13986886142E+03  0.16840365452E+03  0.00000000000E+00 0. -1.
         -5    1    5    5    0  502  0.71968969650E+02 -0.43266026754E+02  0.39958014962E+02  0.93113987259E+02  0.47000000000E+01 0.  1.
         13    1    6    6    0    0  0.12401939692E+02 -0.32982802806E+02  0.33998292882E+02  0.48964857887E+02  0.00000000000E+00 0. -1.
        -14    1    6    6    0    0 -0.62395903185E+02  0.42453501510E+01  0.75714329460E+02  0.98203520393E+02  0.00000000000E+00 0.  1.
</event>
<event>
12    1  0.9017558E-003  0.2535200E+03  0.7818608E-02  0.1111185E+00
         21   -1    0    0  503  502  0.00000000000E+00  0.00000000000E+00  0.14729583480E+04  0.14729583480E+04  0.00000000000E+00 0.  1.
         21   -1    0    0  501  503 -0.00000000000E+00 -0.00000000000E+00 -0.12883198096E+03  0.12883198096E+03  0.00000000000E+00 0. -1.
          6    2    1    2  501    0  0.12670708054E+03  0.13591603934E+03  0.20166771829E+02  0.25377645626E+03  0.17166227616E+03 0.  0.
         24    2    3    3    0    0  0.41239487976E+02  0.13758371988E+03  0.30509285463E+02  0.16754103358E+03  0.80679651005E+02 0.  0.
         -6    2    1    2    0  502 -0.12670708054E+03 -0.13591603934E+03  0.13239595952E+04  0.13480138727E+04  0.17246604659E+03 0.  0.
        -24    2    5    5    0    0 -0.23501164854E+02 -0.19742498267E+02  0.29036869364E+03  0.30279619466E+03  0.80184077382E+02 0.  0.
          5    1    3    3  501    0  0.85467592565E+02 -0.16676805422E+01 -0.10342513634E+02  0.86235422684E+02  0.47000000000E+01 0. -1.
        -11    1    4    4    0    0  0.52551858079E+02  0.13004431733E+03  0.70634419414E+01  0.14043900622E+03  0.00000000000E+00 0.  1.
         12    1    4    4    0    0 -0.11312370103E+02  0.75394025592E+01  0.23445843522E+02  0.27102027355E+02  0.00000000000E+00 0. -1.
         -5    1    5    5    0  502 -0.10320591569E+03 -0.11617354108E+03  0.10335909016E+04  0.10452176781E+04  0.47000000000E+01 0.  1.
         11    1    6    6    0    0 -0.31715720296E+02 -0.44929591771E+02  0.14595377556E+03  0.15597134265E+03  0.00000000000E+00 0. -1.
        -12    1    6    6    0    0  0.82145554416E+01  0.25187093504E+02  0.14441491808E+03  0.14682485200E+03  0.00000000000E+00 0.  1.
</event>
<event>
12    1  0.9017558E-003  0.2593116E+03  0.7818608E-02  0.1107641E+00
         21   -1    0    0  501  502  0.00000000000E+00  0.00000000000E+00  0.43592150176E+03  0.43592150176E+03  0.00000000000E+00 0. -1.
         21   -1    0    0  502  503 -0.00000000000E+00 -0.00000000000E+00 -0.30023644720E+03  0.30023644720E+03  0.00000000000E+00 0.  1.
          6    2    1    2  501    0  0.19367766649E+03 -0.12719681496E+02  0.32482777524E+03  0.41563879905E+03  0.17195842206E+03 0.  0.
         24    2    3    3    0    0  0.96556845730E+02  0.21309061859E+02  0.24640848539E+03  0.28617033100E+03  0.10676617488E+03 0.  0.
         -6    2    1    2    0  503 -0.19367766649E+03  0.12719681496E+02 -0.18914272067E+03  0.32051914991E+03  0.17112781153E+03 0.  0.
        -24    2    5    5    0    0 -0.87946912577E+02  0.69543492648E+02 -0.89702735814E+02  0.16457576779E+03  0.80421674505E+02 0.  0.
          5    1    3    3  501    0  0.97120820763E+02 -0.34028743355E+02  0.78419289847E+02  0.12946846805E+03  0.47000000000E+01 0. -1.
        -11    1    4    4    0    0  0.26579044286E+02  0.59852193783E+02  0.11731378148E+03  0.13435495532E+03  0.00000000000E+00 0.  1.
         12    1    4    4    0    0  0.69977801444E+02 -0.38543131924E+02  0.12909470391E+03  0.15181537568E+03  0.00000000000E+00 0. -1.
         -5    1    5    5    0  503 -0.10573075392E+03 -0.56823811152E+02 -0.99439984858E+02  0.15594338212E+03  0.47000000000E+01 0.  1.
         11    1    6    6    0    0 -0.98847461769E+01  0.58019278393E+02 -0.42906669023E+02  0.72834930623E+02  0.00000000000E+00 0. -1.
        -12    1    6    6    0    0 -0.78062166400E+02  0.11524214255E+02 -0.46796066791E+02  0.91740837168E+02  0.00000000000E+00 0.  1.
</event>
<event>
12    1  0.9017558E-003  0.2206727E+03  0.7818608E-02  0.1133600E+00
         21   -1    0    0  503  502  0.00000000000E+00  0.00000000000E+00  0.15413927890E+04  0.15413927890E+04  0.00000000000E+00 0. -1.
         21   -1    0    0  501  503 -0.00000000000E+00 -0.00000000000E+00 -0.39522880208E+02  0.39522880208E+02  0.00000000000E+00 0. -1.
          6    2    1    2  501    0 -0.13236603058E+03  0.37444966732E+02  0.39472666445E+03  0.45222292548E+03  0.17255011770E+03 0.  0.
         24    2    3    3    0    0 -0.45384879945E+01 -0.15016579229E+02  0.13710484570E+03  0.15984784798E+03  0.80669078735E+02 0.  0.
         -6    2    1    2    0  502  0.13236603058E+03 -0.37444966732E+02  0.11071432443E+04  0.11286927437E+04  0.17105044479E+03 0.  0.
        -24    2    5    5    0    0  0.15118693902E+03 -0.58688045686E+01  0.10158125350E+04  0.10301297228E+04  0.80001289250E+02 0.  0.
          5    1    3    3  501    0 -0.12782754259E+03  0.52461545961E+02  0.25762181874E+03  0.29237507750E+03  0.47000000000E+01 0. -1.
        -13    1    4    4    0    0  0.24299027384E+02  0.22688085712E+02  0.42089512919E+02  0.53635054422E+02  0.00000000000E+00 0.  1.
         14    1    4    4    0    0 -0.28837515378E+02 -0.37704664942E+02  0.95015332785E+02  0.10621279356E+03  0.00000000000E+00 0. -1.
         -5    1    5    5    0  502 -0.18820908442E+02 -0.31576162163E+02  0.91330709367E+02  0.98563020880E+02  0.47000000000E+01 0.  1.
         13    1    6    6    0    0 -0.17751526586E+01 -0.17541091499E+02  0.93896401062E+02  0.95537297378E+02  0.00000000000E+00 0. -1.
        -14    1    6    6    0    0  0.15296209168E+03  0.11672286931E+02  0.92191613391E+03  0.93459242546E+03  0.00000000000E+00 0.  1.
</event>
<event>
12    1  0.9017558E-003  0.2299489E+03  0.7818608E-02  0.1126976E+00
         21   -1    0    0  501  502  0.00000000000E+00  0.00000000000E+00  0.61995831703E+03  0.61995831703E+03  0.00000000000E+00 0.  1.
         21   -1    0    0  502  503 -0.00000000000E+00 -0.00000000000E+00 -0.10527163704E+03  0.10527163704E+03  0.00000000000E+00 0.  1.
          6    2    1    2  501    0 -0.59618686377E+02 -0.14027173722E+03  0.41702150012E+03  0.47540006519E+03  0.16990509820E+03 0.  0.
         24    2    3    3    0    0 -0.39242451508E+02 -0.13305576929E+03  0.42375505666E+03  0.45227665878E+03  0.75776119515E+02 0.  0.
         -6    2    1    2    0  503  0.59618686377E+02  0.14027173722E+03  0.97665179869E+02  0.24982988888E+03  0.17217995816E+03 0.  0.
        -24    2    5    5    0    0  0.49840099756E+02  0.81763485148E+01  0.54467061295E+02  0.11042766536E+03  0.81711200536E+02 0.  0.
          5    1    3    3  501    0 -0.20376234869E+02 -0.72159679324E+01 -0.67335565401E+01  0.23123406417E+02  0.47000000000E+01 0. -1.
        -13    1    4    4    0    0  0.14754590113E+02 -0.12661460424E+02  0.11312633431E+03  0.11478492071E+03  0.00000000000E+00 0.  1.
         14    1    4    4    0    0 -0.53997041621E+02 -0.12039430886E+03  0.31062872235E+03  0.33749173806E+03  0.00000000000E+00 0. -1.
         -5    1    5    5    0  503  0.97785866203E+01  0.13209538870E+03  0.43198118574E+02  0.13940222352E+03  0.47000000000E+01 0.  1.
         13    1    6    6    0    0 -0.13607386396E+02  0.23259155028E+02  0.31104120580E+02  0.41153560893E+02  0.00000000000E+00 0. -1.
        -14    1    6    6    0    0  0.63447486153E+02 -0.15082806513E+02  0.23362940715E+02  0.69274104471E+02  0.00000000000E+00 0.  1.
</event>
<event>
12    1  0.9017558E-003  0.2199965E+03  0.7818608E-02  0.1133920E+00
         21   -1    0    0  501  502  0.00000000000E+00  0.00000000000E+00  0.43650261909E+03  0.43650261909E+03  0.00000000000E+00 0. -1.
         21   -1    0    0  502  503 -0.00000000000E+00 -0.00000000000E+00 -0.14565346429E+03  0.14565346429E+03  0.00000000000E+00 0. -1.
          6    2    1    2  501    0 -0.51738132192E+02  0.12694264195E+03  0.28788871234E+03  0.36232356427E+03  0.17206738757E+03 0.  0.
         24    2    3    3    0    0 -0.42289248303E+02  0.26033701167E+00  0.15346442815E+03  0.17731095397E+03  0.78098626050E+02 0.  0.
         -6    2    1    2    0  503  0.51738132192E+02 -0.12694264195E+03  0.29604424660E+01  0.21983251911E+03  0.17183219596E+03 0.  0.
        -24    2    5    5    0    0  0.63664782293E+02 -0.13954034889E+03  0.40942698623E+02  0.17781241695E+03  0.80101420580E+02 0.  0.
          5    1    3    3  501    0 -0.94488838887E+01  0.12668230494E+03  0.13442428418E+03  0.18501261030E+03  0.47000000000E+01 0. -1.
        -11    1    4    4    0    0 -0.45554140355E+02  0.15680095751E+02  0.15418132019E+03  0.16153304492E+03  0.00000000000E+00 0.  1.
         12    1    4    4    0    0  0.32648920515E+01 -0.15419758740E+02 -0.71689203495E+00  0.15777909047E+02  0.00000000000E+00 0. -1.
         -5    1    5    5    0  503 -0.11926650101E+02  0.12597706931E+02 -0.37982256157E+02  0.42020102158E+02  0.47000000000E+01 0.  1.
         11    1    6    6    0    0  0.53571255406E+02 -0.41761966371E+02  0.41333786827E+02  0.79513666589E+02  0.00000000000E+00 0. -1.
        -12    1    6    6    0    0  0.10093526887E+02 -0.97778382514E+02 -0.39108820387E+00  0.98298750359E+02  0.00000000000E+00 0.  1.
</event>
<event>
12    1  0.9017558E-003  0.2282383E+03  0.7818608E-02  0.1128540E+00
         21   -1    0    0  503  502  0.00000000000E+00  0.00000000000E+00  0.83947514970E+02  0.83947514970E+02  0.00000000000E+00 0. -1.
         21   -1    0    0  501  503 -0.00000000000E+00 -0.00000000000E+00 -0.81473224514E+03  0.81473224514E+03  0.00000000000E+00 0. -1.
          6    2    1    2  501    0  0.10254587027E+03 -0.10080192296E+03 -0.59247596300E+03  0.63491768552E+03  0.17724564162E+03 0.  0.
         24    2    3    3    0    0  0.14154960632E+02 -0.49004148651E+01 -0.13123419749E+03  0.15556801314E+03  0.82186465707E+02 0.  0.
         -6    2    1    2    0  502 -0.10254587027E+03  0.10080192296E+03 -0.13830876717E+03  0.26376207459E+03  0.17252371933E+03 0.  0.
        -24    2    5    5    0    0 -0.12143564499E+03  0.50421207106E+02 -0.52153292060E+02  0.16207679537E+03  0.79120210579E+02 0.  0.
          5    1    3    3  501    0  0.88390909640E+02 -0.95901508095E+02 -0.46124176550E+03  0.47934967238E+03  0.47000000000E+01 0. -1.
        -11    1    4    4    0    0  0.36552832835E+02  0.96117061719E+01 -0.12136401708E+03  0.12711301714E+03  0.00000000000E+00 0.  1.
         12    1    4    4    0    0 -0.22397872203E+02 -0.14512121037E+02 -0.98701804089E+01  0.28454996003E+02  0.00000000000E+00 0. -1.
         -5    1    5    5    0  502  0.18889774723E+02  0.50380715854E+02 -0.86155475110E+02  0.10168527922E+03  0.47000000000E+01 0.  1.
         13    1    6    6    0    0 -0.39357417383E+02  0.51464285430E+02  0.67758720771E-01  0.64788761133E+02  0.00000000000E+00 0. -1.
        -14    1    6    6    0    0 -0.82078227611E+02 -0.10430783240E+01 -0.52221050781E+02  0.97288034233E+02  0.00000000000E+00 0.  1.
</event>
<event>
12    1  0.9017558E-003  0.2352522E+03  0.7818608E-02  0.1123015E+00
         21   -1    0    0  503  502  0.00000000000E+00  0.00000000000E+00  0.76943871352E+03  0.76943871352E+03  0.00000000000E+00 0. -1.
         21   -1    0    0  501  503 -0.00000000000E+00 -0.00000000000E+00 -0.75431095798E+02  0.75431095798E+02  0.00000000000E+00 0.  1.
          6    2    1    2  501    0  0.15789128887E+03  0.25322144843E+02  0.25547031804E+03  0.34721673594E+03  0.17240507010E+03 0.  0.
         24    2    3    3    0    0  0.23971433550E+02  0.67340956441E+01  0.39575098628E+02  0.92436675915E+02  0.79739406521E+02 0.  0.
         -6    2    1    2    0  502 -0.15789128887E+03 -0.25322144843E+02  0.43853729969E+03  0.49765307338E+03  0.17254781397E+03 0.  0.
        -24    2    5    5    0    0 -0.73063552437E+02  0.22594506051E+02  0.34505523368E+03  0.36255038293E+03  0.80813807461E+02 0.  0.
          5    1    3    3  501    0  0.13391985532E+03  0.18588049198E+02  0.21589521941E+03  0.25478006002E+03  0.47000000000E+01 0. -1.
        -13    1    4    4    0    0 -0.26214059541E+02  0.13694242974E+02  0.27425555926E+02  0.40334480611E+02  0.00000000000E+00 0.  1.
         14    1    4    4    0    0  0.50185493091E+02 -0.69601473301E+01  0.12149542702E+02  0.52102195304E+02  0.00000000000E+00 0. -1.
         -5    1    5    5    0  502 -0.84827736434E+02 -0.47916650894E+02  0.93482066011E+02  0.13510269045E+03  0.47000000000E+01 0.  1.
         11    1    6    6    0    0 -0.33386574591E+02  0.51818221576E+02  0.17748942579E+03  0.18788903032E+03  0.00000000000E+00 0. -1.
        -12    1    6    6    0    0 -0.39676977846E+02 -0.29223715524E+02  0.16756580789E+03  0.17466135261E+03  0.00000000000E+00 0.  1.
</event>
<event>
12    1  0.9017558E-003  0.1739934E+03  0.7818608E-02  0.1176278E+00
         21   -1    0    0  501  502  0.00000000000E+00  0.00000000000E+00  0.72191296277E+02  0.72191296277E+02  0.00000000000E+00 0. -1.
         21   -1    0    0  502  503 -0.00000000000E+00 -0.00000000000E+00 -0.42315845420E+03  0.42315845420E+03  0.00000000000E+00 0. -1.
          6    2    1    2  501    0 -0.38056118155E+02 -0.79046229691E+01 -0.24258901983E+03  0.29853498678E+03  0.16959644630E+03 0.  0.
         24    2    3    3    0    0  0.11868013957E+02 -0.55918158542E+02 -0.14705716915E+03  0.18044119753E+03  0.87552981434E+02 0.  0.
         -6    2    1    2    0  503  0.38056118155E+02  0.79046229691E+01 -0.10837813809E+03  0.19681476370E+03  0.15962292817E+03 0.  0.
        -24    2    5    5    0    0  0.21650388082E+02  0.60513574808E+02 -0.42533454167E+02  0.11082370489E+03  0.79637722233E+02 0.  0.
          5    1    3    3  501    0 -0.49924132112E+02  0.48013535573E+02 -0.95531850678E+02  0.11809378925E+03  0.47000000000E+01 0. -1.
        -13    1    4    4    0    0 -0.18957848434E+02 -0.14229060390E+00  0.12726649004E+01  0.19001051019E+02  0.00000000000E+00 0.  1.
         14    1    4    4    0    0  0.30825862391E+02 -0.55775867939E+02 -0.14832983405E+03  0.16144014651E+03  0.00000000000E+00 0. -1.
         -5    1    5    5    0  503  0.16405730073E+02 -0.52608951839E+02 -0.65844683926E+02  0.85991058804E+02  0.47000000000E+01 0.  1.
         11    1    6    6    0    0  0.43164148584E+02  0.22177764452E+02  0.15695933829E+01  0.48553687630E+02  0.00000000000E+00 0. -1.
        -12    1    6    6    0    0 -0.21513760502E+02  0.38335810356E+02 -0.44103047550E+02  0.62270017262E+02  0.00000000000E+00 0.  1.
</event>
<event>
12    1  0.9017558E-003  0.1937097E+03  0.7818608E-02  0.1155283E+00
         21   -1    0    0  503  502  0.00000000000E+00  0.00000000000E+00  0.24266899479E+03  0.24266899479E+03  0.00000000000E+00 0. -1.
         21   -1    0    0  501  503 -0.00000000000E+00 -0.00000000000E+00 -0.15715507264E+03  0.15715507264E+03  0.00000000000E+00 0.  1.
          6    2    1    2  501    0  0.56557795662E+02 -0.65890218168E+02  0.15150244245E+02  0.19373061913E+03  0.17251584793E+03 0.  0.
         24    2    3    3    0    0 -0.12639748616E+02 -0.46893254240E+02 -0.41373545970E+02  0.10226361069E+03  0.79920805965E+02 0.  0.
         -6    2    1    2    0  502 -0.56557795662E+02  0.65890218168E+02  0.70363677910E+02  0.20609344830E+03  0.17315645285E+03 0.  0.
        -24    2    5    5    0    0 -0.21650382919E+02  0.82826055603E+01 -0.27795616670E+02  0.86952768402E+02  0.79062298166E+02 0.  0.
          5    1    3    3  501    0  0.69197544279E+02 -0.18996963927E+02  0.56523790215E+02  0.91467008440E+02  0.47000000000E+01 0. -1.
        -11    1    4    4    0    0 -0.41004948688E+02 -0.16612774896E+02 -0.41663095522E+02  0.60771733850E+02  0.00000000000E+00 0.  1.
         12    1    4    4    0    0  0.28365200072E+02 -0.30280479345E+02  0.28954955203E+00  0.41491876836E+02  0.00000000000E+00 0. -1.
         -5    1    5    5    0  502 -0.34907412744E+02  0.57607612607E+02  0.98159294581E+02  0.11914067990E+03  0.47000000000E+01 0.  1.
         11    1    6    6    0    0 -0.61499544313E+01 -0.34974451292E+02 -0.56986052498E+01  0.35965376190E+02  0.00000000000E+00 0. -1.
        -12    1    6    6    0    0 -0.15500428487E+02  0.43257056853E+02 -0.22097011421E+02  0.50987392212E+02  0.00000000000E+00 0.  1.
</event>
<event>
12    1  0.9017558E-003  0.2424098E+03  0.7818608E-02  0.1119254E+00
         21   -1    0    0  501  502  0.00000000000E+00  0.00000000000E+00  0.20221378422E+03  0.20221378422E+03  0.00000000000E+00 0.  1.
         21   -1    0    0  502  503 -0.00000000000E+00 -0.00000000000E+00 -0.34377869186E+03  0.34377869186E+03  0.00000000000E+00 0. -1.
          6    2    1    2  501    0  0.15397267641E+03 -0.52541647156E+02  0.43172407371E+02  0.24622419767E+03  0.17970611840E+03 0.  0.
         24    2    3    3    0    0  0.96885359309E+02  0.50591402418E+01  0.88028868361E+02  0.15342869899E+03  0.79868117918E+02 0.  0.
         -6    2    1    2    0  503 -0.15397267641E+03  0.52541647156E+02 -0.18473731501E+03  0.29976827842E+03  0.17106997230E+03 0.  0.
        -24    2    5    5    0    0 -0.71960324125E+02  0.24263349296E+02 -0.18096456408E+03  0.21280845030E+03  0.82293770709E+02 0.  0.
          5    1    3    3  501    0  0.57087317100E+02 -0.57600787398E+02 -0.44856460990E+02  0.92795498679E+02  0.47000000000E+01 0. -1.
        -13    1    4    4    0    0  0.31250557191E+02 -0.23350049461E+02 -0.12565004255E+01  0.39030768989E+02  0.00000000000E+00 0.  1.
         14    1    4    4    0    0  0.65634802118E+02  0.28409189703E+02  0.89285368787E+02  0.11439793000E+03  0.00000000000E+00 0. -1.
         -5    1    5    5    0  503 -0.82012352284E+02  0.28278297860E+02 -0.37727509246E+01  0.86959828119E+02  0.47000000000E+01 0.  1.
         13    1    6    6    0    0 -0.82454941570E+02  0.40893185370E+02 -0.14312097490E+03  0.17016075768E+03  0.00000000000E+00 0. -1.
        -14    1    6    6    0    0  0.10494617445E+02 -0.16629836074E+02 -0.37843589187E+02  0.42647692619E+02  0.00000000000E+00 0.  1.
</event>
<event>
12    1  0.9017558E-003  0.1763038E+03  0.7818608E-02  0.1172040E+00
         21   -1    0    0  503  502  0.00000000000E+00  0.00000000000E+00  0.29860431159E+02  0.29860431159E+02  0.00000000000E+00 0.  1.
         21   -1    0    0  501  503 -0.00000000000E+00 -0.00000000000E+00 -0.10652535089E+04  0.10652535089E+04  0.00000000000E+00 0.  1.
          6    2    1    2  501    0  0.19920812051E+02  0.26487349007E+01 -0.62549964827E+03  0.64987139092E+03  0.17515467507E+03 0.  0.
         24    2    3    3    0    0  0.35617701742E+02 -0.30110768890E+02 -0.59483672878E+03  0.60210234167E+03  0.80754051631E+02 0.  0.
         -6    2    1    2    0  502 -0.19920812051E+02 -0.26487349007E+01 -0.40989342951E+03  0.44524254918E+03  0.17269756656E+03 0.  0.
        -24    2    5    5    0    0 -0.50041899930E+02  0.54125467408E+02 -0.26905478053E+03  0.29036128811E+03  0.80532258995E+02 0.  0.
          5    1    3    3  501    0 -0.15696889690E+02  0.32759503791E+02 -0.30662919488E+02  0.47769049249E+02  0.47000000000E+01 0. -1.
        -13    1    4    4    0    0 -0.17921729618E+02 -0.23824852021E+02 -0.10032245820E+03  0.10465852849E+03  0.00000000000E+00 0.  1.
         14    1    4    4    0    0  0.53539431360E+02 -0.62859168697E+01 -0.49451427058E+03  0.49744381318E+03  0.00000000000E+00 0. -1.
         -5    1    5    5    0  502  0.30121087879E+02 -0.56774202309E+02 -0.14083864898E+03  0.15488126107E+03  0.47000000000E+01 0.  1.
         13    1    6    6    0    0 -0.35628570623E+01  0.90230514990E+01 -0.17992196786E+03  0.18018330646E+03  0.00000000000E+00 0. -1.
        -14    1    6    6    0    0 -0.46479042868E+02  0.45102415909E+02 -0.89132812672E+02  0.11017798165E+03  0.00000000000E+00 0.  1.
</event>
<event>
12    1  0.9017558E-003  0.2220668E+03  0.7818608E-02  0.1132357E+00
         21   -1    0    0  503  502  0.00000000000E+00  0.00000000000E+00  0.36666502678E+02  0.36666502678E+02  0.00000000000E+00 0. -1.
         21   -1    0    0  501  503 -0.00000000000E+00 -0.00000000000E+00 -0.13470921115E+04  0.13470921115E+04  0.00000000000E+00 0. -1.
          6    2    1    2  501    0 -0.12552989874E+03  0.65553104647E+02 -0.62633151945E+03  0.66453353190E+03  0.17105168154E+03 0.  0.
         24    2    3    3    0    0 -0.37141323916E+02  0.89496572239E+02 -0.42898185647E+03  0.44692193001E+03  0.79527755904E+02 0.  0.
         -6    2    1    2    0  502  0.12552989874E+03 -0.65553104647E+02 -0.68409408938E+03  0.71922508228E+03  0.17101178572E+03 0.  0.
        -24    2    5    5    0    0  0.69286839288E+02 -0.48039947745E+02 -0.62435762756E+03  0.63519813856E+03  0.80905657776E+02 0.  0.
          5    1    3    3  501    0 -0.88388574820E+02 -0.23943467591E+02 -0.19734966298E+03  0.21761160189E+03  0.47000000000E+01 0. -1.
        -11    1    4    4    0    0 -0.44282459569E+02  0.39398091787E+02 -0.12018335922E+03  0.13400442417E+03  0.00000000000E+00 0.  1.
         12    1    4    4    0    0  0.71411356535E+01  0.50098480452E+02 -0.30879849724E+03  0.31291750584E+03  0.00000000000E+00 0. -1.
         -5    1    5    5    0  502  0.56243059448E+02 -0.17513156902E+02 -0.59736461818E+02  0.84026943722E+02  0.47000000000E+01 0.  1.
         11    1    6    6    0    0  0.81278901289E+02 -0.59014702602E+02 -0.52559510109E+03  0.53510672319E+03  0.00000000000E+00 0. -1.
        -12    1    6    6    0    0 -0.11992062001E+02  0.10974754857E+02 -0.98762526469E+02  0.10009141536E+03  0.00000000000E+00 0.  1.
</event>
<event>
12    1  0.9017558E-003  0.2685400E+03  0.7818608E-02  0.1102531E+00
         21   -1    0    0  503  502  0.00000000000E+00  0.00000000000E+00  0.30868636791E+03  0.30868636791E+03  0.00000000000E+00 0. -1.
         21   -1    0    0  501  503 -0.00000000000E+00 -0.00000000000E+00 -0.23348464397E+03  0.23348464397E+03  0.00000000000E+00 0. -1.
          6    2    1    2  501    0  0.17852069084E+03  0.10502667747E+03  0.64961476126E+02  0.27628557834E+03  0.17091953481E+03 0.  0.
         24    2    3    3    0    0  0.80376587770E+02 -0.23442178734E+01 -0.86641484024E+01  0.11317948795E+03  0.79174729596E+02 0.  0.
         -6    2    1    2    0  502 -0.17852069084E+03 -0.10502667747E+03  0.10240247811E+02  0.26588543354E+03  0.16640300795E+03 0.  0.
        -24    2    5    5    0    0 -0.68907876689E+02 -0.11408000559E+03  0.72269259103E+01  0.15575777177E+03  0.80285190812E+02 0.  0.
          5    1    3    3  501    0  0.98144103074E+02  0.10737089534E+03  0.73625624528E+02  0.16310609039E+03  0.47000000000E+01 0. -1.
        -11    1    4    4    0    0  0.42765334666E+02 -0.28389933355E+02  0.24299188220E+02  0.56791836677E+02  0.00000000000E+00 0.  1.
         12    1    4    4    0    0  0.37611253104E+02  0.26045715482E+02 -0.32963336623E+02  0.56387651275E+02  0.00000000000E+00 0. -1.
         -5    1    5    5    0  502 -0.10961281415E+03  0.90533281277E+01  0.30133219010E+01  0.11012766177E+03  0.47000000000E+01 0.  1.
         11    1    6    6    0    0 -0.11747202057E+02 -0.72255450063E+02  0.33116181499E+02  0.80346302323E+02  0.00000000000E+00 0. -1.
        -12    1    6    6    0    0 -0.57160674632E+02 -0.41824555531E+02 -0.25889255588E+02  0.75411469451E+02  0.00000000000E+00 0.  1.
</event>
<event>
12    1  0.9017558E-003  0.1921783E+03  0.7818608E-02  0.1156705E+00
         21   -1    0    0  501  502  0.00000000000E+00  0.00000000000E+00  0.10640060614E+03  0.10640060614E+03  0.00000000000E+00 0. -1.
         21   -1    0    0  502  503 -0.00000000000E+00 -0.00000000000E+00 -0.58690341848E+03  0.58690341848E+03  0.00000000000E+00 0. -1.
          6    2    1    2  501    0  0.58828349865E+02 -0.57014204955E+02 -0.17623771236E+02  0.19211591740E+03  0.17287722259E+03 0.  0.
         24    2    3    3    0    0  0.63187833885E+02 -0.73349858411E+02  0.40358181964E+02  0.13153658452E+03  0.79373711868E+02 0.  0.
         -6    2    1    2    0  503 -0.58828349865E+02  0.57014204955E+02 -0.46287904110E+03  0.50118810722E+03  0.17384222104E+03 0.  0.
        -24    2    5    5    0    0  0.40041011414E+01  0.88632948561E+02 -0.33979338778E+03  0.35934372101E+03  0.76134952901E+02 0.  0.
          5    1    3    3  501    0 -0.43594840207E+01  0.16335653455E+02 -0.57981953200E+02  0.60579332875E+02  0.47000000000E+01 0. -1.
        -11    1    4    4    0    0  0.54194454835E+02 -0.48121058510E+02 -0.11296902294E+02  0.73350495625E+02  0.00000000000E+00 0.  1.
         12    1    4    4    0    0  0.89933790506E+01 -0.25228799901E+02  0.51655084258E+02  0.58186088895E+02  0.00000000000E+00 0. -1.
         -5    1    5    5    0  503 -0.62832451006E+02 -0.31618743606E+02 -0.12308565333E+03  0.14184438622E+03  0.47000000000E+01 0.  1.
         13    1    6    6    0    0  0.15108253443E+02  0.33840984689E+02 -0.25564250890E+03  0.25831485425E+03  0.00000000000E+00 0. -1.
        -14    1    6    6    0    0 -0.11104152301E+02  0.54791963872E+02 -0.84150878876E+02  0.10102886676E+03  0.00000000000E+00 0.  1.
</event>
<event>
12    1  0.9017558E-003  0.2615710E+03  0.7818608E-02  0.1106208E+00
         21   -1    0    0  503  502  0.00000000000E+00  0.00000000000E+00  0.71844617596E+03  0.71844617596E+03  0.00000000000E+00 0. -1.
         21   -1    0    0  501  503 -0.00000000000E+00 -0.00000000000E+00 -0.17275793225E+03  0.17275793225E+03  0.00000000000E+00 0. -1.
          6    2    1    2  501    0  0.14096222181E+03  0.13805177990E+03 -0.25693932892E+02  0.26279579736E+03  0.17167647192E+03 0.  0.
         24    2    3    3    0    0  0.67730999533E+02  0.75863447218E+00  0.11474496553E+01  0.10482501045E+03  0.79993139407E+02 0.  0.
         -6    2    1    2    0  502 -0.14096222181E+03 -0.13805177990E+03  0.57138217661E+03  0.62840831085E+03  0.17172877305E+03 0.  0.
        -24    2    5    5    0    0 -0.17055523066E+03 -0.12232383159E+03  0.52464897614E+03  0.57070912059E+03  0.80000910524E+02 0.  0.
          5    1    3    3  501    0  0.73231222281E+02  0.13729314543E+03 -0.26841382547E+02  0.15797078691E+03  0.47000000000E+01 0. -1.
        -11    1    4    4    0    0  0.15371416063E+02  0.24194039227E+01  0.37808270136E+02  0.40885195827E+02  0.00000000000E+00 0.  1.
         12    1    4    4    0    0  0.52359583470E+02 -0.16607694505E+01 -0.36660820481E+02  0.63939814628E+02  0.00000000000E+00 0. -1.
         -5    1    5    5    0  502  0.29593008845E+02 -0.15727948313E+02  0.46733200468E+02  0.57699190259E+02  0.47000000000E+01 0.  1.
         11    1    6    6    0    0 -0.32262997342E+02 -0.34089259549E+02  0.21741502350E+03  0.22242362972E+03  0.00000000000E+00 0. -1.
        -12    1    6    6    0    0 -0.13829223332E+03 -0.88234572040E+02  0.30723395264E+03  0.34828549087E+03  0.00000000000E+00 0.  1.
</event>
<event>
12    1  0.9017558E-003  0.2154657E+03  0.7818608E-02  0.1138544E+00
         21   -1    0    0  501  502  0.00000000000E+00  0.00000000000E+00  0.23238105281E+03  0.23238105281E+03  0.00000000000E+00 0. -1.
         21   -1    0    0  502  503 -0.00000000000E+00 -0.00000000000E+00 -0.20453084743E+03  0.20453084743E+03  0.00000000000E+00 0. -1.
          6    2    1    2  501    0  0.23219822734E+02  0.11551079108E+03 -0.35576075540E+02  0.21838299747E+03  0.18039837418E+03 0.  0.
         24    2    3    3    0    0  0.52705259900E+02  0.95661714402E+02 -0.82778883596E+02  0.15910760680E+03  0.80832412746E+02 0.  0.
         -6    2    1    2    0  503 -0.23219822734E+02 -0.11551079108E+03  0.63426280924E+02  0.21852890277E+03  0.17277177203E+03 0.  0.
        -24    2    5    5    0    0  0.74347135328E+01 -0.94739365556E+02  0.10508832080E+03  0.16259172123E+03  0.79760204941E+02 0.  0.
          5    1    3    3  501    0 -0.29485437166E+02  0.19849076677E+02  0.47202808055E+02  0.59275390662E+02  0.47000000000E+01 0. -1.
        -11    1    4    4    0    0 -0.25613629780E+01 -0.76765478809E+01 -0.29110231566E+02  0.30214161406E+02  0.00000000000E+00 0.  1.
         12    1    4    4    0    0  0.55266622878E+02  0.10333826228E+03 -0.53668652030E+02  0.12889344540E+03  0.00000000000E+00 0. -1.
         -5    1    5    5    0  503 -0.30654536267E+02 -0.20771425523E+02 -0.41662039877E+02  0.55937181541E+02  0.47000000000E+01 0.  1.
         11    1    6    6    0    0  0.33612559409E+02 -0.88854589593E+02  0.93731258242E+02  0.13345595158E+03  0.00000000000E+00 0. -1.
        -12    1    6    6    0    0 -0.26177845876E+02 -0.58847759636E+01  0.11357062559E+02  0.29135769645E+02  0.00000000000E+00 0.  1.
</event>
<event>
12    1  0.9017558E-003  0.2957752E+03  0.7818608E-02  0.1087639E+00
         21   -1    0    0  503  502  0.00000000000E+00  0.00000000000E+00  0.32496982091E+03  0.32496982091E+03  0.00000000000E+00 0.  1.
         21   -1    0    0  501  503 -0.00000000000E+00 -0.00000000000E+00 -0.55408593489E+03  0.55408593489E+03  0.00000000000E+00 0. -1.
          6    2    1    2  501    0 -0.34019089573E+02 -0.23692629350E+03 -0.43056962054E+03  0.52119196625E+03  0.17017491164E+03 0.  0.
         24    2    3    3    0    0  0.40257593140E+02 -0.96070657170E+02 -0.16260977918E+03  0.20945184619E+03  0.81104196015E+02 0.  0.
         -6    2    1    2    0  502  0.34019089573E+02  0.23692629350E+03  0.20145350656E+03  0.35786378955E+03  0.17375732950E+03 0.  0.
        -24    2    5    5    0    0 -0.49031127893E+02  0.12114477673E+03  0.10586926709E+03  0.18622132661E+03  0.79937302551E+02 0.  0.
          5    1    3    3  501    0 -0.74276682713E+02 -0.14085563633E+03 -0.26795984135E+03  0.31174012006E+03  0.47000000000E+01 0. -1.
        -13    1    4    4    0    0  0.40164367263E+02 -0.93391299254E+01 -0.29985472263E+02  0.50985530224E+02  0.00000000000E+00 0.  1.
         14    1    4    4    0    0  0.93225877013E-01 -0.86731527245E+02 -0.13262430692E+03  0.15846631597E+03  0.00000000000E+00 0. -1.
         -5    1    5    5    0  502  0.83050217466E+02  0.11578151677E+03  0.95584239476E+02  0.17164246293E+03  0.47000000000E+01 0.  1.
         13    1    6    6    0    0 -0.69063408683E+01 -0.65869630208E+01  0.30685300117E+02  0.32135234079E+02  0.00000000000E+00 0. -1.
        -14    1    6    6    0    0 -0.42124787024E+02  0.12773173976E+03  0.75183966968E+02  0.15408609253E+03  0.00000000000E+00 0.  1.
</event>
<event>
12    1  0.9017558E-003  0.1936241E+03  0.7818608E-02  0.1155434E+00
         21   -1    0    0  503  502  0.00000000000E+00  0.00000000000E+00  0.12079858409E+03  0.12079858409E+03  0.00000000000E+00 0. -1.
         21   -1    0    0  501  503 -0.00000000000E+00 -0.00000000000E+00 -0.58316320602E+03  0.58316320602E+03  0.00000000000E+00 0. -1.
          6    2    1    2  501    0 -0.81012380830E+02 -0.36574868103E+02 -0.47286045968E+03  0.51096701999E+03  0.17201614566E+03 0.  0.
         24    2    3    3    0    0 -0.33676943761E+02  0.42182866921E+02 -0.14392104664E+03  0.16940201610E+03  0.71205650002E+02 0.  0.
         -6    2    1    2    0  502  0.81012380830E+02  0.36574868103E+02  0.10495837745E+02  0.19299477012E+03  0.17098564811E+03 0.  0.
        -24    2    5    5    0    0  0.22073392473E+02 -0.60975140206E+01 -0.51156274481E+02  0.97507548529E+02  0.79789368145E+02 0.  0.
          5    1    3    3  501    0 -0.47335437069E+02 -0.78757735024E+02 -0.32893941304E+03  0.34156500389E+03  0.47000000000E+01 0. -1.
        -11    1    4    4    0    0 -0.14486412667E+02  0.57033248592E+01  0.38101651449E+01  0.16028144772E+02  0.00000000000E+00 0.  1.
         12    1    4    4    0    0 -0.19190531094E+02  0.36479542062E+02 -0.14773121178E+03  0.15337387133E+03  0.00000000000E+00 0. -1.
         -5    1    5    5    0  502  0.58938988357E+02  0.42672382124E+02  0.61652112226E+02  0.95487221588E+02  0.47000000000E+01 0.  1.
         11    1    6    6    0    0 -0.89930838606E+00 -0.35762665695E+01  0.21216402093E+02  0.21534487593E+02  0.00000000000E+00 0. -1.
        -12    1    6    6    0    0  0.22972700859E+02 -0.25212474511E+01 -0.72372676574E+02  0.75973060936E+02  0.00000000000E+00 0.  1.
</event>
<event>
12    1  0.9017558E-003  0.1920576E+03  0.7818608E-02  0.1156661E+00
         21   -1    0    0  501  502  0.00000000000E+00  0.00000000000E+00  0.14350616195E+03  0.14350616195E+03  0.00000000000E+00 0.  1.
         21   -1    0    0  502  503 -0.00000000000E+00 -0.00000000000E+00 -0.30687808162E+03  0.30687808162E+03  0.00000000000E+00 0.  1.
          6    2    1    2  501    0 -0.80965289719E+02  0.30862514246E+02  0.93361599505E+01  0.19209331615E+03  0.17118646355E+03 0.  0.
         24    2    3    3    0    0  0.80052219439E+01 -0.18568803401E+02  0.31670938201E+02  0.87785409308E+02  0.79336912738E+02 0.  0.
         -6    2    1    2    0  503  0.80965289719E+02 -0.30862514246E+02 -0.17270807962E+03  0.25829092742E+03  0.17140084451E+03 0.  0.
        -24    2    5    5    0    0  0.77434932442E+02 -0.68782256331E+02 -0.17627740238E+03  0.21975263053E+03  0.80562574990E+02 0.  0.
          5    1    3    3  501    0 -0.88970511663E+02  0.49431317647E+02 -0.22334778250E+02  0.10430790684E+03  0.47000000000E+01 0. -1.
        -13    1    4    4    0    0 -0.22849484933E+02  0.13406599191E+02  0.34221556414E+02  0.43277601447E+02  0.00000000000E+00 0.  1.
         14    1    4    4    0    0  0.30854706877E+02 -0.31975402592E+02 -0.25506182132E+01  0.44507807862E+02  0.00000000000E+00 0. -1.
         -5    1    5    5    0  503  0.35303572775E+01  0.37919742084E+02  0.35693227566E+01  0.38538296890E+02  0.47000000000E+01 0.  1.
         13    1    6    6    0    0 -0.13895353697E+02  0.60247098723E-01 -0.37066784904E+02  0.39585742726E+02  0.00000000000E+00 0. -1.
        -14    1    6    6    0    0  0.91330286139E+02 -0.68842503429E+02 -0.13921061747E+03  0.18016688781E+03  0.00000000000E+00 0.  1.
</event>
<event>
12    1  0.9017558E-003  0.2100423E+03  0.7818608E-02  0.1142467E+00
         21   -1    0    0  501  502  0.00000000000E+00  0.00000000000E+00  0.28351093540E+02  0.28351093540E+02  0.00000000000E+00 0. -1.
         21   -1    0    0  502  503 -0.00000000000E+00 -0.00000000000E+00 -0.17449609739E+04  0.17449609739E+04  0.00000000000E+00 0. -1.
          6    2    1    2  501    0 -0.77306787887E+02 -0.81215942434E+02 -0.54961981335E+03  0.58838736432E+03  0.17761019821E+03 0.  0.
         24    2    3    3    0    0 -0.54109151052E+02 -0.42631370115E+02 -0.14261501184E+03  0.17887314231E+03  0.83134382137E+02 0.  0.
         -6    2    1    2    0  503  0.77306787887E+02  0.81215942434E+02 -0.11669900670E+04  0.11849247031E+04  0.17207081913E+03 0.  0.
        -24    2    5    5    0    0 -0.22161702279E+02  0.11849537716E+02 -0.47177593679E+03  0.47919780445E+03  0.80165133732E+02 0.  0.
          5    1    3    3  501    0 -0.23197636835E+02 -0.38584572319E+02 -0.40700480151E+03  0.40951422201E+03  0.47000000000E+01 0. -1.
        -13    1    4    4    0    0  0.14553601138E+02  0.12929341947E+02 -0.29785120571E+02  0.35582700806E+02  0.00000000000E+00 0.  1.
         14    1    4    4    0    0 -0.68662752190E+02 -0.55560712062E+02 -0.11282989127E+03  0.14329044150E+03  0.00000000000E+00 0. -1.
         -5    1    5    5    0  503  0.99468490166E+02  0.69366404717E+02 -0.69521413019E+03  0.70572689863E+03  0.47000000000E+01 0.  1.
         13    1    6    6    0    0 -0.90049306324E+01  0.43774871491E+02 -0.18362749951E+03  0.18898779518E+03  0.00000000000E+00 0. -1.
        -14    1    6    6    0    0 -0.13156771647E+02 -0.31925333774E+02 -0.28814843728E+03  0.29021000927E+03  0.00000000000E+00 0.  1.
</event>
<event>
12    1  0.9017558E-003  0.1830724E+03  0.7818608E-02  0.1165516E+00
         21   -1    0    0  501  502  0.00000000000E+00  0.00000000000E+00  0.93209007854E+03  0.93209007854E+03  0.00000000000E+00 0. -1.
         21   -1    0    0  502  503 -0.00000000000E+00 -0.00000000000E+00 -0.45840571134E+02  0.45840571134E+02  0.00000000000E+00 0. -1.
          6    2    1    2  501    0 -0.60590531131E+02  0.13949913861E+02  0.21259574164E+03  0.28055737222E+03  0.17219081621E+03 0.  0.
         24    2    3    3    0    0 -0.25084444154E+02  0.70011153501E+02  0.16986445707E+03  0.20149032799E+03  0.78826566240E+02 0.  0.
         -6    2    1    2    0  503  0.60590531131E+02 -0.13949913861E+02  0.67365376577E+03  0.69737327745E+03  0.16927574963E+03 0.  0.
        -24    2    5    5    0    0  0.84166858530E+02 -0.58026564887E+02  0.50125120712E+03  0.51780900871E+03  0.80138970288E+02 0.  0.
          5    1    3    3  501    0 -0.35506086977E+02 -0.56061239640E+02  0.42731284567E+02  0.79067044229E+02  0.47000000000E+01 0. -1.
        -11    1    4    4    0    0  0.18464178708E+02  0.21793444380E+02  0.10822570040E+03  0.11193159670E+03  0.00000000000E+00 0.  1.
         12    1    4    4    0    0 -0.43548622862E+02  0.48217709121E+02  0.61638756666E+02  0.89558731285E+02  0.00000000000E+00 0. -1.
         -5    1    5    5    0  503 -0.23576327399E+02  0.44076651026E+02  0.17240255865E+03  0.17956426874E+03  0.47000000000E+01 0.  1.
         13    1    6    6    0    0  0.81955271707E+02 -0.46504576570E+02  0.49614432803E+03  0.50501340224E+03  0.00000000000E+00 0. -1.
        -14    1    6    6    0    0  0.22115868228E+01 -0.11521988316E+02  0.51068790870E+01  0.12795606474E+02  0.00000000000E+00 0.  1.
</event>
<event>
12    1  0.9017558E-003  0.2319508E+03  0.7818608E-02  0.1125382E+00
         21   -1    0    0  503  502  0.00000000000E+00  0.00000000000E+00  0.12027049754E+03  0.12027049754E+03  0.00000000000E+00 0. -1.
         21   -1    0    0  501  503 -0.00000000000E+00 -0.00000000000E+00 -0.46173753384E+03  0.46173753384E+03  0.00000000000E+00 0. -1.
          6    2    1    2  501    0 -0.11459425623E+03  0.10645472152E+03 -0.22398823509E+03  0.32200333623E+03  0.17044344455E+03 0.  0.
         24    2    3    3    0    0 -0.12616540668E+03  0.98342053613E+02 -0.11654119559E+03  0.21352908491E+03  0.80149550720E+02 0.  0.
         -6    2    1    2    0  502  0.11459425623E+03 -0.10645472152E+03 -0.11747880122E+03  0.26000469515E+03  0.17127965865E+03 0.  0.
        -24    2    5    5    0    0  0.18829891621E+02 -0.19974804383E+02  0.28817448265E+01  0.83487442048E+02  0.78792708406E+02 0.  0.
          5    1    3    3  501    0  0.11571150445E+02  0.81126679109E+01 -0.10744703950E+03  0.10847425133E+03  0.47000000000E+01 0. -1.
        -11    1    4    4    0    0 -0.12219265314E+02 -0.90276562383E+01  0.42612712397E+01  0.15778702562E+02  0.00000000000E+00 0.  1.
         12    1    4    4    0    0 -0.11394614136E+03  0.10736970985E+03 -0.12080246683E+03  0.19775038234E+03  0.00000000000E+00 0. -1.
         -5    1    5    5    0  502  0.95764364612E+02 -0.86479917141E+02 -0.12036054605E+03  0.17651725310E+03  0.47000000000E+01 0.  1.
         11    1    6    6    0    0  0.36667236433E+02 -0.40337878628E+02 -0.63604636268E+01  0.54882476050E+02  0.00000000000E+00 0. -1.
        -12    1    6    6    0    0 -0.17837344813E+02  0.20363074245E+02  0.92422084534E+01  0.28604965998E+02  0.00000000000E+00 0.  1.
</event>
<event>
12    1  0.9017558E-003  0.2028665E+03  0.7818608E-02  0.1148851E+00
         21   -1    0    0  503  502  0.00000000000E+00  0.00000000000E+00  0.47871466124E+03  0.47871466124E+03  0.00000000000E+00 0.  1.
         21   -1    0    0  501  503 -0.00000000000E+00 -0.00000000000E+00 -0.11784729831E+03  0.11784729831E+03  0.00000000000E+00 0.  1.
          6    2    1    2  501    0  0.65735663303E+02 -0.82254118089E+02  0.20455901028E+02  0.20389524650E+03  0.17340101005E+03 0.  0.
         24    2    3    3    0    0 -0.37851177000E+02 -0.44845638639E+02  0.28339625458E+02  0.93378863416E+02  0.66877760552E+02 0.  0.
         -6    2    1    2    0  502 -0.65735663303E+02  0.82254118089E+02  0.34041146191E+03  0.39266671305E+03  0.16498565625E+03 0.  0.
        -24    2    5    5    0    0 -0.34505182119E+02  0.33341996626E+02  0.71561063200E+02  0.11758424275E+03  0.80017323405E+02 0.  0.
          5    1    3    3  501    0  0.10358684030E+03 -0.37408479450E+02 -0.78837244306E+01  0.11051638308E+03  0.47000000000E+01 0. -1.
        -13    1    4    4    0    0 -0.26412225514E+02 -0.38354913526E+02 -0.14333199922E+02  0.48725205676E+02  0.00000000000E+00 0.  1.
         14    1    4    4    0    0 -0.11438951486E+02 -0.64907251138E+01  0.42672825380E+02  0.44653657740E+02  0.00000000000E+00 0. -1.
         -5    1    5    5    0  502 -0.31230481184E+02  0.48912121463E+02  0.26885039871E+03  0.27508247030E+03  0.47000000000E+01 0.  1.
         13    1    6    6    0    0  0.10845328668E+02 -0.16861623925E+02  0.13678103715E+01  0.20094935195E+02  0.00000000000E+00 0. -1.
        -14    1    6    6    0    0 -0.45350510787E+02  0.50203620551E+02  0.70193252829E+02  0.97489307556E+02  0.00000000000E+00 0.  1.
</event>
<event>
12    1  0.9017558E-003  0.2686946E+03  0.7818608E-02  0.1102276E+00
         21   -1    0    0  501  502  0.00000000000E+00  0.00000000000E+00  0.10177186553E+04  0.10177186553E+04  0.00000000000E+00 0.  1.
         21   -1    0    0  502  503 -0.00000000000E+00 -0.00000000000E+00 -0.83854400261E+02  0.83854400261E+02  0.00000000000E+00 0. -1.
          6    2    1    2  501    0 -0.12415126364E+03  0.16527083303E+03  0.68557121335E+03  0.73572308923E+03  0.16897511929E+03 0.  0.
         24    2    3    3    0    0 -0.93517280550E+02  0.17410815085E+03  0.44928624746E+03  0.49725041949E+03  0.79628622841E+02 0.  0.
         -6    2    1    2    0  503  0.12415126364E+03 -0.16527083303E+03  0.24829304167E+03  0.36584996631E+03  0.17166472787E+03 0.  0.
        -24    2    5    5    0    0  0.69073244268E+01 -0.10030928839E+03  0.83428271949E+02  0.15332084864E+03  0.80233045552E+02 0.  0.
          5    1    3    3  501    0 -0.30633983091E+02 -0.88373178185E+01  0.23628496590E+03  0.23847266975E+03  0.47000000000E+01 0. -1.
        -11    1    4    4    0    0 -0.43799336920E+02  0.15496911840E+02  0.11106929196E+03  0.12039486620E+03  0.00000000000E+00 0.  1.
         12    1    4    4    0    0 -0.49717943630E+02  0.15861123901E+03  0.33821695549E+03  0.37685555328E+03  0.00000000000E+00 0. -1.
         -5    1    5    5    0  503  0.11724393921E+03 -0.64961544639E+02  0.16486476972E+03  0.21252911768E+03  0.47000000000E+01 0.  1.
         11    1    6    6    0    0  0.23744622679E+02 -0.10648678121E+03  0.62411380532E+02  0.12569177419E+03  0.00000000000E+00 0. -1.
        -12    1    6    6    0    0 -0.16837298253E+02  0.61774928221E+01  0.21016891417E+02  0.27629074448E+02  0.00000000000E+00 0.  1.
</event>
<event>
12    1  0.9017558E-003  0.1789661E+03  0.7818608E-02  0.1168877E+00
         21   -1    0    0  503  502  0.00000000000E+00  0.00000000000E+00  0.13708745635E+03  0.13708745635E+03  0.00000000000E+00 0.  1.
         21   -1    0    0  501  503 -0.00000000000E+00 -0.00000000000E+00 -0.35257488910E+03  0.35257488910E+03  0.00000000000E+00 0.  1.
          6    2    1    2  501    0  0.38816865688E+02 -0.27242833138E+02 -0.25010922422E+03  0.30737816006E+03  0.17227242444E+03 0.  0.
         24    2    3    3    0    0  0.36911030162E+02 -0.79767447406E+02 -0.20961060944E+03  0.24085977830E+03  0.79696646089E+02 0.  0.
         -6    2    1    2    0  502 -0.38816865688E+02  0.27242833138E+02  0.34621791469E+02  0.18228418539E+03  0.17256863788E+03 0.  0.
        -24    2    5    5    0    0 -0.55626369946E+02  0.25282932078E+02  0.84117473706E+02  0.12976453949E+03  0.77650284207E+02 0.  0.
          5    1    3    3  501    0  0.19058355254E+01  0.52524614269E+02 -0.40498614774E+02  0.66518381758E+02  0.47000000000E+01 0. -1.
        -11    1    4    4    0    0  0.61160742138E+02 -0.64885626080E+02 -0.14439199084E+03  0.16970512034E+03  0.00000000000E+00 0.  1.
         12    1    4    4    0    0 -0.24249711975E+02 -0.14881821326E+02 -0.65218618605E+02  0.71154657962E+02  0.00000000000E+00 0. -1.
         -5    1    5    5    0  502  0.16809504258E+02  0.19599010595E+01 -0.49495682237E+02  0.52519645902E+02  0.47000000000E+01 0.  1.
         13    1    6    6    0    0 -0.17406473244E+02 -0.16051487694E+02 -0.51467703496E+01  0.24230658535E+02  0.00000000000E+00 0. -1.
        -14    1    6    6    0    0 -0.38219896702E+02  0.41334419772E+02  0.89264244055E+02  0.10553388095E+03  0.00000000000E+00 0.  1.
</event>
<event>
12    1  0.9017558E-003  0.1886284E+03  0.7818608E-02  0.1159785E+00
         21   -1    0    0  501  502  0.00000000000E+00  0.00000000000E+00  0.21686436013E+03  0.21686436013E+03  0.00000000000E+00 0. -1.
         21   -1    0    0  502  503 -0.00000000000E+00 -0.00000000000E+00 -0.16574401113E+03  0.16574401113E+03  0.00000000000E+00 0. -1.
          6    2    1    2  501    0  0.58066494845E+02  0.49219446703E+02  0.46509500704E+02  0.19427767890E+03  0.17258740135E+03 0.  0.
         24    2    3    3    0    0 -0.15782527595E+02  0.16680033212E+02 -0.22146304051E+02  0.88220142284E+02  0.82249760098E+02 0.  0.
         -6    2    1    2    0  503 -0.58066494845E+02 -0.49219446703E+02  0.46108482952E+01  0.18833069236E+03  0.17220022649E+03 0.  0.
        -24    2    5    5    0    0 -0.61930011035E+02 -0.61643060625E+02 -0.52425600116E+02  0.12964066435E+03  0.80144027323E+02 0.  0.
          5    1    3    3  501    0  0.73849022440E+02  0.32539413491E+02  0.68655804755E+02  0.10605753661E+03  0.47000000000E+01 0. -1.
        -13    1    4    4    0    0 -0.39754810806E+02  0.29791959402E+00  0.13735909683E+02  0.42061965636E+02  0.00000000000E+00 0.  1.
         14    1    4    4    0    0  0.23972283212E+02  0.16382113618E+02 -0.35882213734E+02  0.46158176648E+02  0.00000000000E+00 0. -1.
         -5    1    5    5    0  503  0.38635161896E+01  0.12423613922E+02  0.57036448411E+02  0.58690028008E+02  0.47000000000E+01 0.  1.
         13    1    6    6    0    0 -0.77396879957E+01 -0.48460111531E+02  0.53181927523E+01  0.49361608098E+02  0.00000000000E+00 0. -1.
        -14    1    6    6    0    0 -0.54190323039E+02 -0.13182949094E+02 -0.57743792868E+02  0.80279056252E+02  0.00000000000E+00 0.  1.
</event>
<event>
12    1  0.9017558E-003  0.1815629E+03  0.7818608E-02  0.1166382E+00
         21   -1    0    0  501  502  0.00000000000E+00  0.00000000000E+00  0.99853067510E+02  0.99853067510E+02  0.00000000000E+00 0.  1.
         21   -1    0    0  502  503 -0.00000000000E+00 -0.00000000000E+00 -0.37312178455E+03  0.37312178455E+03  0.00000000000E+00 0.  1.
          6    2    1    2  501    0  0.11389109911E+02 -0.54117604761E+02 -0.55667559292E+02  0.18957525148E+03  0.17257309131E+03 0.  0.
         24    2    3    3    0    0 -0.47682926700E+02 -0.68123193702E+02 -0.56786414838E+02  0.12867365980E+03  0.80111065388E+02 0.  0.
         -6    2    1    2    0  503 -0.11389109911E+02  0.54117604761E+02 -0.21760115775E+03  0.28339960058E+03  0.17293537171E+03 0.  0.
        -24    2    5    5    0    0 -0.68213278639E+02  0.22280203564E+02 -0.17547648137E+03  0.20568740960E+03  0.79786315254E+02 0.  0.
          5    1    3    3  501    0  0.59072036611E+02  0.14005588942E+02  0.11188555462E+01  0.60901591676E+02  0.47000000000E+01 0. -1.
        -11    1    4    4    0    0 -0.88337473582E+01 -0.59848802107E+02 -0.13959228201E+01  0.60513327512E+02  0.00000000000E+00 0.  1.
         12    1    4    4    0    0 -0.38849179342E+02 -0.82743915949E+01 -0.55390492018E+02  0.68160332289E+02  0.00000000000E+00 0. -1.
         -5    1    5    5    0  503  0.56824168728E+02  0.31837401196E+02 -0.42124676374E+02  0.77712190975E+02  0.47000000000E+01 0.  1.
         11    1    6    6    0    0 -0.43911071903E+02 -0.13425966888E+01 -0.23192656046E+02  0.49677802850E+02  0.00000000000E+00 0. -1.
        -12    1    6    6    0    0 -0.24302206736E+02  0.23622800253E+02 -0.15228382533E+03  0.15600960675E+03  0.00000000000E+00 0.  1.
</event>
<event>
12    1  0.9017558E-003  0.1826322E+03  0.7818608E-02  0.1165423E+00
         21   -1    0    0  501  502  0.00000000000E+00  0.00000000000E+00  0.90986510791E+03  0.90986510791E+03  0.00000000000E+00 0.  1.
         21   -1    0    0  502  503 -0.00000000000E+00 -0.00000000000E+00 -0.89198643416E+02  0.89198643416E+02  0.00000000000E+00 0. -1.
          6    2    1    2  501    0 -0.79384552958E+01 -0.61408890879E+02  0.79387535636E+03  0.81447699138E+03  0.17117423024E+03 0.  0.
         24    2    3    3    0    0 -0.36953633554E+02 -0.70488727800E+01  0.22660498736E+03  0.24385044653E+03  0.81841079768E+02 0.  0.
         -6    2    1    2    0  503  0.79384552958E+01  0.61408890879E+02  0.26791108133E+02  0.18458675995E+03  0.17181512600E+03 0.  0.
        -24    2    5    5    0    0 -0.45595314908E+02  0.82056841285E+02  0.30586795659E+02  0.12689187584E+03  0.79710338994E+02 0.  0.
          5    1    3    3  501    0  0.29015178258E+02 -0.54360018099E+02  0.56727036900E+03  0.57062654485E+03  0.47000000000E+01 0. -1.
        -13    1    4    4    0    0 -0.47236071035E+02  0.24726493890E+02  0.16959438973E+03  0.17777767839E+03  0.00000000000E+00 0.  1.
         14    1    4    4    0    0  0.10282437481E+02 -0.31775366670E+02  0.57010597631E+02  0.66072768141E+02  0.00000000000E+00 0. -1.
         -5    1    5    5    0  503  0.53533770203E+02 -0.20647950406E+02 -0.37956875261E+01  0.57694884106E+02  0.47000000000E+01 0.  1.
         11    1    6    6    0    0  0.21483611272E+02  0.32973591134E+02  0.16096380930E+02  0.42519369052E+02  0.00000000000E+00 0. -1.
        -12    1    6    6    0    0 -0.67078926179E+02  0.49083250151E+02  0.14490414729E+02  0.84372506788E+02  0.00000000000E+00 0.  1.
</event>
<event>
12    1  0.9017558E-003  0.3402143E+03  0.7818608E-02  0.1066744E+00
         21   -1    0    0  503  502  0.00000000000E+00  0.00000000000E+00  0.13368545865E+03  0.13368545865E+03  0.00000000000E+00 0.  1.
         21   -1    0    0  501  503 -0.00000000000E+00 -0.00000000000E+00 -0.11161935538E+04  0.11161935538E+04  0.00000000000E+00 0.  1.
          6    2    1    2  501    0  0.18472980491E+03  0.22721110784E+03 -0.78758987035E+03  0.85778350736E+03  0.17246667294E+03 0.  0.
         24    2    3    3    0    0  0.16102650833E+03  0.10651720600E+03 -0.40192118158E+03  0.45294861298E+03  0.79664033533E+02 0.  0.
         -6    2    1    2    0  502 -0.18472980491E+03 -0.22721110784E+03 -0.19491822476E+03  0.39209550505E+03  0.17319290513E+03 0.  0.
        -24    2    5    5    0    0 -0.16374888828E+03 -0.24044158431E+03 -0.20522747663E+03  0.36482619915E+03  0.79711884587E+02 0.  0.
          5    1    3    3  501    0  0.23703296577E+02  0.12069390184E+03 -0.38566868878E+03  0.40483489439E+03  0.47000000000E+01 0. -1.
        -11    1    4    4    0    0  0.12193621224E+03  0.11187966986E+03 -0.28514151084E+03  0.32968345665E+03  0.00000000000E+00 0.  1.
         12    1    4    4    0    0  0.39090296090E+02 -0.53624638622E+01 -0.11677967074E+03  0.12326515633E+03  0.00000000000E+00 0. -1.
         -5    1    5    5    0  502 -0.20980916628E+02  0.13230476468E+02  0.10309251867E+02  0.27269305898E+02  0.47000000000E+01 0.  1.
         11    1    6    6    0    0 -0.11169026954E+03 -0.13979109382E+03 -0.80182328711E+02  0.19607516941E+03  0.00000000000E+00 0. -1.
        -12    1    6    6    0    0 -0.52058618741E+02 -0.10065049049E+03 -0.12504514792E+03  0.16875102974E+03  0.00000000000E+00 0.  1.
</event>
<event>
12    1  0.9017558E-003  0.2055576E+03  0.7818608E-02  0.1145869E+00
         21   -1    0    0  503  502  0.00000000000E+00  0.00000000000E+00  0.13936969106E+03  0.13936969106E+03  0.00000000000E+00 0.  1.
         21   -1    0    0  501  503 -0.00000000000E+00 -0.00000000000E+00 -0.29844361227E+03  0.29844361227E+03  0.00000000000E+00 0.  1.
          6    2    1    2  501    0 -0.45129290679E+02 -0.97426688277E+02 -0.89387808766E+02  0.22415200389E+03  0.17528641712E+03 0.  0.
         24    2    3    3    0    0  0.32314593080E+02 -0.20772397512E+02 -0.71861626990E+02  0.11368620614E+03  0.79276318088E+02 0.  0.
         -6    2    1    2    0  502  0.45129290679E+02  0.97426688277E+02 -0.69686112441E+02  0.21366129944E+03  0.17107420655E+03 0.  0.
        -24    2    5    5    0    0  0.20381597851E+02  0.12721194361E+03 -0.24826370630E+02  0.15421303479E+03  0.81037172284E+02 0.  0.
          5    1    3    3  501    0 -0.77443883759E+02 -0.76654290764E+02 -0.17526181776E+02  0.11046579775E+03  0.47000000000E+01 0. -1.
        -13    1    4    4    0    0  0.28252009129E+02 -0.23834614765E+02  0.44278534262E+01  0.37227285246E+02  0.00000000000E+00 0.  1.
         14    1    4    4    0    0  0.40625839514E+01  0.30622172526E+01 -0.76289480416E+02  0.76458920899E+02  0.00000000000E+00 0. -1.
         -5    1    5    5    0  502  0.24747692828E+02 -0.29785255332E+02 -0.44859741811E+02  0.59448264658E+02  0.47000000000E+01 0.  1.
         13    1    6    6    0    0  0.23268169727E+02  0.57062081806E+01  0.12563257894E+02  0.27051875779E+02  0.00000000000E+00 0. -1.
        -14    1    6    6    0    0 -0.28865718756E+01  0.12150573543E+03 -0.37389628524E+02  0.12716115901E+03  0.00000000000E+00 0.  1.
</event>
<event>
12    1  0.9017558E-003  0.3932095E+03  0.7818608E-02  0.1046177E+00
         21   -1    0    0  503  502  0.00000000000E+00  0.00000000000E+00  0.23809502717E+03  0.23809502717E+03  0.00000000000E+00 0. -1.
         21   -1    0    0  501  503 -0.00000000000E+00 -0.00000000000E+00 -0.65728075124E+03  0.65728075124E+03  0.00000000000E+00 0. -1.
          6    2    1    2  501    0 -0.35110498843E+03 -0.21231486188E+02 -0.25980541626E+03  0.47109308486E+03  0.17522657155E+03 0.  0.
         24    2    3    3    0    0 -0.29066539887E+03 -0.65925989737E+02 -0.24556187194E+03  0.39444120172E+03  0.80315742177E+02 0.  0.
         -6    2    1    2    0  502  0.35110498843E+03  0.21231486188E+02 -0.15938030780E+03  0.42428269355E+03  0.17575048400E+03 0.  0.
        -24    2    5    5    0    0  0.22236772490E+03  0.54194515250E+02 -0.16111189914E+03  0.29129798498E+03  0.80703292657E+02 0.  0.
          5    1    3    3  501    0 -0.60439589556E+02  0.44694503549E+02 -0.14243544320E+02  0.76651883134E+02  0.47000000000E+01 0. -1.
        -11    1    4    4    0    0 -0.25867050368E+03 -0.64386420049E+02 -0.18051276786E+03  0.32193306746E+03  0.00000000000E+00 0.  1.
         12    1    4    4    0    0 -0.31994895191E+02 -0.15395696879E+01 -0.65049104081E+02  0.72508134267E+02  0.00000000000E+00 0. -1.
         -5    1    5    5    0  502  0.12873726352E+03 -0.32963029062E+02  0.17315913413E+01  0.13298470857E+03  0.47000000000E+01 0.  1.
         11    1    6    6    0    0  0.16917299179E+03  0.27433635797E+02 -0.15562684293E+03  0.23149907076E+03  0.00000000000E+00 0. -1.
        -12    1    6    6    0    0  0.53194733113E+02  0.26760879453E+02 -0.54850562193E+01  0.59798914219E+02  0.00000000000E+00 0.  1.
</event>
<event>
12    1  0.9017558E-003  0.2153763E+03  0.7818608E-02  0.1138015E+00
         21   -1    0    0  503  502  0.00000000000E+00  0.00000000000E+00  0.10214239628E+04  0.10214239628E+04  0.00000000000E+00 0.  1.
         21   -1    0    0  501  503 -0.00000000000E+00 -0.00000000000E+00 -0.67479520277E+02  0.67479520277E+02  0.00000000000E+00 0.  1.
          6    2    1    2  501    0  0.26598529834E+02 -0.12826609824E+03  0.16322953795E+03  0.27024217451E+03  0.17095986979E+03 0.  0.
         24    2    3    3    0    0  0.46928848565E+02 -0.28845324488E+02  0.39399808087E+02  0.11007443709E+03  0.86773655285E+02 0.  0.
         -6    2    1    2    0  502 -0.26598529834E+02  0.12826609824E+03  0.79071490454E+03  0.81866130853E+03  0.16678310486E+03 0.  0.
        -24    2    5    5    0    0 -0.77245277906E+02  0.90457083333E+02  0.62379380208E+03  0.64011339018E+03  0.80480605688E+02 0.  0.
          5    1    3    3  501    0 -0.20330318731E+02 -0.99420773755E+02  0.12382972986E+03  0.16016773742E+03  0.47000000000E+01 0. -1.
        -11    1    4    4    0    0  0.62543609503E+02  0.76389233640E+01  0.26381985058E+02  0.68308603964E+02  0.00000000000E+00 0.  1.
         12    1    4    4    0    0 -0.15614760939E+02 -0.36484247852E+02  0.13017823029E+02  0.41765833129E+02  0.00000000000E+00 0. -1.
         -5    1    5    5    0  502  0.50646748072E+02  0.37809014911E+02  0.16692110246E+03  0.17854791834E+03  0.47000000000E+01 0.  1.
         13    1    6    6    0    0  0.71427597711E+00  0.26105165509E+02  0.40951894727E+02  0.48570027158E+02  0.00000000000E+00 0. -1.
        -14    1    6    6    0    0 -0.77959553883E+02  0.64351917823E+02  0.58284190736E+03  0.59154336303E+03  0.00000000000E+00 0.  1.
</event>
<event>
12    1  0.9017558E-003  0.2753158E+03  0.7818608E-02  0.1098651E+00
         21   -1    0    0  501  502  0.00000000000E+00  0.00000000000E+00  0.62411942411E+03  0.62411942411E+03  0.00000000000E+00 0.  1.
         21   -1    0    0  502  503 -0.00000000000E+00 -0.00000000000E+00 -0.12054938313E+03  0.12054938313E+03  0.00000000000E+00 0. -1.
          6    2    1    2  501    0  0.20751571474E+03  0.41520534689E+02  0.27094267660E+03  0.38627547785E+03  0.17610248187E+03 0.  0.
         24    2    3    3    0    0  0.18305157739E+03 -0.14394076560E+02  0.25295913973E+03  0.32247551417E+03  0.79290992162E+02 0.  0.
         -6    2    1    2    0  503 -0.20751571474E+03 -0.41520534689E+02  0.23262736438E+03  0.35839332939E+03  0.17188240521E+03 0.  0.
        -24    2    5    5    0    0 -0.84713963111E+02 -0.74256877768E+02  0.79094337584E+02  0.15902829062E+03  0.79646365512E+02 0.  0.
          5    1    3    3  501    0  0.24464137348E+02  0.55914611248E+02  0.17983536865E+02  0.63799963679E+02  0.47000000000E+01 0. -1.
        -11    1    4    4    0    0  0.84810505213E+02  0.79932595822E+00  0.55368590905E+02  0.10128742062E+03  0.00000000000E+00 0.  1.
         12    1    4    4    0    0  0.98241072182E+02 -0.15193402518E+02  0.19759054883E+03  0.22118809355E+03  0.00000000000E+00 0. -1.
         -5    1    5    5    0  503 -0.12280175163E+03  0.32736343079E+02  0.15353302680E+03  0.19936503876E+03  0.47000000000E+01 0. -1.
         13    1    6    6    0    0 -0.77431368893E+02 -0.46977376173E+02  0.18868193457E+02  0.92512158579E+02  0.00000000000E+00 0. -1.
        -14    1    6    6    0    0 -0.72825942186E+01 -0.27279501595E+02  0.60226144127E+02  0.66516132045E+02  0.00000000000E+00 0.  1.
</event>
<event>
12    1  0.9017558E-003  0.2777791E+03  0.7818608E-02  0.1097466E+00
         21   -1    0    0  501  502  0.00000000000E+00  0.00000000000E+00  0.41322038325E+03  0.41322038325E+03  0.00000000000E+00 0.  1.
         21   -1    0    0  502  503 -0.00000000000E+00 -0.00000000000E+00 -0.30393007556E+03  0.30393007556E+03  0.00000000000E+00 0.  1.
          6    2    1    2  501    0  0.48860655759E+02 -0.21314425797E+03  0.27960755094E+03  0.39131429130E+03  0.16470778258E+03 0.  0.
         24    2    3    3    0    0  0.61990730350E+02 -0.22704824500E+03  0.27548403738E+03  0.37119432414E+03  0.80622671831E+02 0.  0.
         -6    2    1    2    0  503 -0.48860655759E+02  0.21314425797E+03 -0.17031724325E+03  0.32583616752E+03  0.17129917200E+03 0.  0.
        -24    2    5    5    0    0 -0.71771870659E+01  0.17990615381E+03 -0.65358724365E+02  0.20801993851E+03  0.81134430273E+02 0.  0.
          5    1    3    3  501    0 -0.13130074591E+02  0.13903987039E+02  0.41235135685E+01  0.20119967159E+02  0.47000000000E+01 0. -1.
        -11    1    4    4    0    0  0.75193341828E+02 -0.20165965587E+03  0.21465039757E+03  0.30396619654E+03  0.00000000000E+00 0.  1.
         12    1    4    4    0    0 -0.13202611479E+02 -0.25388589130E+02  0.60833639807E+02  0.67228127596E+02  0.00000000000E+00 0. -1.
         -5    1    5    5    0  503 -0.41683468693E+02  0.33238104158E+02 -0.10495851889E+03  0.11781622901E+03  0.47000000000E+01 0.  1.
         13    1    6    6    0    0 -0.26043219350E+02  0.15670518754E+02 -0.39185957178E+00  0.30396841712E+02  0.00000000000E+00 0. -1.
        -14    1    6    6    0    0  0.18866032284E+02  0.16423563505E+03 -0.64966864794E+02  0.17762309680E+03  0.00000000000E+00 0.  1.
</event>
<event>
12    1  0.9017558E-003  0.2005841E+03  0.7818608E-02  0.1149743E+00
         21   -1    0    0  503  502  0.00000000000E+00  0.00000000000E+00  0.97254431797E+02  0.97254431797E+02  0.00000000000E+00 0.  1.
         21   -1    0    0  501  503 -0.00000000000E+00 -0.00000000000E+00 -0.42900708278E+03  0.42900708278E+03  0.00000000000E+00 0.  1.
          6    2    1    2  501    0 -0.40867491898E+01 -0.10004017084E+03 -0.10980635707E+03  0.22867313207E+03  0.17380802047E+03 0.  0.
         24    2    3    3    0    0 -0.46279866408E+02 -0.10306756391E+03 -0.34547400250E+02  0.14221259292E+03  0.79159016895E+02 0.  0.
         -6    2    1    2    0  502  0.40867491898E+01  0.10004017084E+03 -0.22194629392E+03  0.29758838251E+03  0.17109632001E+03 0.  0.
        -24    2    5    5    0    0  0.31739731614E+02  0.48559910833E+02 -0.38783813152E+02  0.10527226522E+03  0.78819985789E+02 0.  0.
          5    1    3    3  501    0  0.42193117218E+02  0.30273930721E+01 -0.75258956819E+02  0.86460539154E+02  0.47000000000E+01 0. -1.
        -13    1    4    4    0    0 -0.28898134935E+02 -0.61283823917E+02  0.20652437338E+02  0.70833130981E+02  0.00000000000E+00 0.  1.
         14    1    4    4    0    0 -0.17381731473E+02 -0.41783739991E+02 -0.55199837588E+02  0.71379461937E+02  0.00000000000E+00 0. -1.
         -5    1    5    5    0  502 -0.27652982424E+02  0.51480260003E+02 -0.18316248077E+03  0.19231611728E+03  0.47000000000E+01 0.  1.
         11    1    6    6    0    0  0.56443263168E+02  0.42740480040E+02 -0.36859024789E+02  0.79819661108E+02  0.00000000000E+00 0. -1.
        -12    1    6    6    0    0 -0.24703531554E+02  0.58194307931E+01 -0.19247883623E+01  0.25452604115E+02  0.00000000000E+00 0.  1.
</event>
<event>
12    1  0.9017558E-003  0.1862879E+03  0.7818608E-02  0.1162664E+00
         21   -1    0    0  503  502  0.00000000000E+00  0.00000000000E+00  0.78062745253E+02  0.78062745253E+02  0.00000000000E+00 0.  1.
         21   -1    0    0  501  503 -0.00000000000E+00 -0.00000000000E+00 -0.48522620440E+03  0.48522620440E+03  0.00000000000E+00 0.  1.
          6    2    1    2  501    0  0.68613360643E+02 -0.18418089999E+02 -0.29473049298E+03  0.34866782979E+03  0.17220967666E+03 0.  0.
         24    2    3    3    0    0  0.92358632148E+02 -0.46921849670E+02 -0.28001133760E+03  0.30848019774E+03  0.77600942688E+02 0.  0.
         -6    2    1    2    0  502 -0.68613360643E+02  0.18418089999E+02 -0.11243296617E+03  0.21462111987E+03  0.16844593766E+03 0.  0.
        -24    2    5    5    0    0 -0.10600920533E+03 -0.16130387350E+02 -0.56037665126E+02  0.13849907006E+03  0.67406464702E+02 0.  0.
          5    1    3    3  501    0 -0.23745271505E+02  0.28503759671E+02 -0.14719155384E+02  0.40187632046E+02  0.47000000000E+01 0. -1.
        -13    1    4    4    0    0  0.29047854615E+02  0.12380041686E+02 -0.28889343504E+02  0.42797633789E+02  0.00000000000E+00 0.  1.
         14    1    4    4    0    0  0.63310777534E+02 -0.59301891355E+02 -0.25112199409E+03  0.26568256395E+03  0.00000000000E+00 0. -1.
         -5    1    5    5    0  502  0.37395844690E+02  0.34548477348E+02 -0.56395301042E+02  0.76122049807E+02  0.47000000000E+01 0.  1.
         13    1    6    6    0    0  0.83110660673E+01 -0.73557430871E+01 -0.52579081129E+00  0.11111130974E+02  0.00000000000E+00 0. -1.
        -14    1    6    6    0    0 -0.11432027140E+03 -0.87746442625E+01 -0.55511874315E+02  0.12738793909E+03  0.00000000000E+00 0.  1.
</event>
<event>
12    1  0.9017558E-003  0.2555065E+03  0.7818608E-02  0.1109973E+00
         21   -1    0    0  501  502  0.00000000000E+00  0.00000000000E+00  0.98259152290E+02  0.98259152290E+02  0.00000000000E+00 0.  1.
         21   -1    0    0  502  503 -0.00000000000E+00 -0.00000000000E+00 -0.11498195197E+04  0.11498195197E+04  0.00000000000E+00 0. -1.
          6    2    1    2  501    0  0.18695134291E+03 -0.26772957301E+02 -0.11923155853E+03  0.28137263384E+03  0.17113386182E+03 0.  0.
         24    2    3    3    0    0  0.18104640934E+03 -0.66381577359E+02 -0.12195864832E+03  0.24095929393E+03  0.77480018622E+02 0.  0.
         -6    2    1    2    0  503 -0.18695134291E+03  0.26772957301E+02 -0.93232880886E+03  0.96670603813E+03  0.17209288328E+03 0.  0.
        -24    2    5    5    0    0 -0.90401695331E+02 -0.49140996394E+02 -0.37036443938E+03  0.39145756540E+03  0.74039877830E+02 0.  0.
          5    1    3    3  501    0  0.59049335742E+01  0.39608620058E+02  0.27270897901E+01  0.40413339903E+02  0.47000000000E+01 0. -1.
        -13    1    4    4    0    0  0.14036729151E+03 -0.41403441844E+02 -0.50088479998E+02  0.15468056552E+03  0.00000000000E+00 0.  1.
         14    1    4    4    0    0  0.40679117828E+02 -0.24978135515E+02 -0.71870168323E+02  0.86278728408E+02  0.00000000000E+00 0. -1.
         -5    1    5    5    0  503 -0.96549647580E+02  0.75913953695E+02 -0.56196436948E+03  0.57524847273E+03  0.47000000000E+01 0.  1.
         11    1    6    6    0    0 -0.10048119691E+03 -0.34706308614E+02 -0.34134090373E+03  0.35751169401E+03  0.00000000000E+00 0. -1.
        -12    1    6    6    0    0  0.10079501580E+02 -0.14434687780E+02 -0.29023535642E+02  0.33945871392E+02  0.00000000000E+00 0.  1.
</event>
<event>
12    1  0.9017558E-003  0.1966915E+03  0.7818608E-02  0.1152780E+00
         21   -1    0    0  503  502  0.00000000000E+00  0.00000000000E+00  0.21206440179E+03  0.21206440179E+03  0.00000000000E+00 0. -1.
         21   -1    0    0  501  503 -0.00000000000E+00 -0.00000000000E+00 -0.18704233099E+03  0.18704233099E+03  0.00000000000E+00 0. -1.
          6    2    1    2  501    0 -0.91137024063E+02 -0.29081729214E+02  0.46851925792E+02  0.20120750478E+03  0.17069754802E+03 0.  0.
         24    2    3    3    0    0 -0.78767537672E+02 -0.73392529939E+02 -0.16947202663E+01  0.13416037138E+03  0.80033397588E+02 0.  0.
         -6    2    1    2    0  502  0.91137024063E+02  0.29081729214E+02 -0.21829855002E+02  0.19789922800E+03  0.17185999460E+03 0.  0.
        -24    2    5    5    0    0  0.12350035528E+03 -0.75837021698E+01 -0.86434022549E+01  0.14702967323E+03  0.78950402870E+02 0.  0.
          5    1    3    3  501    0 -0.12369486391E+02  0.44310800725E+02  0.48546646059E+02  0.67047133406E+02  0.47000000000E+01 0. -1.
        -13    1    4    4    0    0 -0.83803917391E+02 -0.49401313253E+02 -0.24886994288E+02  0.10041388752E+03  0.00000000000E+00 0.  1.
         14    1    4    4    0    0  0.50363797194E+01 -0.23991216686E+02  0.23192274021E+02  0.33746483862E+02  0.00000000000E+00 0. -1.
         -5    1    5    5    0  502 -0.32363331221E+02  0.36665431384E+02 -0.13186452747E+02  0.50869554768E+02  0.47000000000E+01 0.  1.
         13    1    6    6    0    0  0.11840685692E+03  0.18247448865E+02 -0.17657797347E+01  0.11981765785E+03  0.00000000000E+00 0. -1.
        -14    1    6    6    0    0  0.50934983681E+01 -0.25831151035E+02 -0.68776225202E+01  0.27212015378E+02  0.00000000000E+00 0.  1.
</event>
<event>
12    1  0.9017558E-003  0.1959530E+03  0.7818608E-02  0.1153771E+00
         21   -1    0    0  503  502  0.00000000000E+00  0.00000000000E+00  0.14709129893E+03  0.14709129893E+03  0.00000000000E+00 0. -1.
         21   -1    0    0  501  503 -0.00000000000E+00 -0.00000000000E+00 -0.56185963853E+03  0.56185963853E+03  0.00000000000E+00 0. -1.
          6    2    1    2  501    0  0.21275623863E+02 -0.87288580836E+02 -0.46888754367E+03  0.50818608465E+03  0.17414252641E+03 0.  0.
         24    2    3    3    0    0  0.78068103897E+02 -0.35804317660E+02 -0.31823546302E+03  0.33908802272E+03  0.79563177537E+02 0.  0.
         -6    2    1    2    0  502 -0.21275623863E+02  0.87288580836E+02  0.54119204081E+02  0.20076485281E+03  0.17118904567E+03 0.  0.
        -24    2    5    5    0    0  0.12271087781E+01  0.12500623462E+03  0.53029045025E+02  0.15658032124E+03  0.77956737307E+02 0.  0.
          5    1    3    3  501    0 -0.56792480033E+02 -0.51484263176E+02 -0.15065208065E+03  0.16909806193E+03  0.47000000000E+01 0. -1.
        -11    1    4    4    0    0  0.13316129789E+02  0.42511133439E+01 -0.23729664088E+01  0.14178231441E+02  0.00000000000E+00 0.  1.
         12    1    4    4    0    0  0.64751974108E+02 -0.40055431004E+02 -0.31586249661E+03  0.32490979128E+03  0.00000000000E+00 0. -1.
         -5    1    5    5    0  502 -0.22502732641E+02 -0.37717653788E+02  0.10901590565E+01  0.44184531574E+02  0.47000000000E+01 0.  1.
         11    1    6    6    0    0 -0.31893627682E+02  0.66337457639E+02  0.50303094082E+02  0.89153031620E+02  0.00000000000E+00 0. -1.
        -12    1    6    6    0    0  0.33120736460E+02  0.58668776985E+02  0.27259509421E+01  0.67427289617E+02  0.00000000000E+00 0.  1.
</event>
<event>
12    1  0.9017558E-003  0.1752860E+03  0.7818608E-02  0.1173918E+00
         21   -1    0    0  503  502  0.00000000000E+00  0.00000000000E+00  0.18844459751E+02  0.18844459751E+02  0.00000000000E+00 0. -1.
         21   -1    0    0  501  503 -0.00000000000E+00 -0.00000000000E+00 -0.16496644217E+04  0.16496644217E+04  0.00000000000E+00 0. -1.
          6    2    1    2  501    0 -0.23359432198E+02 -0.83959777158E+01 -0.97721476935E+03  0.99180737445E+03  0.16768126626E+03 0.  0.
         24    2    3    3    0    0 -0.38018586634E+02  0.27659830293E+02 -0.32056241124E+03  0.33398572573E+03  0.81090852464E+02 0.  0.
         -6    2    1    2    0  502  0.23359432198E+02  0.83959777158E+01 -0.65360519259E+03  0.67670150700E+03  0.17351952708E+03 0.  0.
        -24    2    5    5    0    0  0.52358113207E+02  0.93716601364E+01 -0.19990566471E+03  0.22205084214E+03  0.80716179786E+02 0.  0.
          5    1    3    3  501    0  0.14659154435E+02 -0.36055808009E+02 -0.65665235811E+03  0.65782164871E+03  0.47000000000E+01 0. -1.
        -13    1    4    4    0    0 -0.53948082238E+02 -0.80411637339E+01 -0.17917873254E+03  0.18729675408E+03  0.00000000000E+00 0.  1.
         14    1    4    4    0    0  0.15929495605E+02  0.35700994027E+02 -0.14138367870E+03  0.14668897166E+03  0.00000000000E+00 0. -1.
         -5    1    5    5    0  502 -0.28998681009E+02 -0.97568242058E+00 -0.45369952788E+03  0.45465066486E+03  0.47000000000E+01 0.  1.
         13    1    6    6    0    0  0.12820213815E+02  0.34922544856E+02 -0.36955878379E+02  0.52437381401E+02  0.00000000000E+00 0. -1.
        -14    1    6    6    0    0  0.39537899392E+02 -0.25550884719E+02 -0.16294978633E+03  0.16961346074E+03  0.00000000000E+00 0.  1.
</event>
<event>
12    1  0.9017558E-003  0.1764517E+03  0.7818608E-02  0.1172241E+00
         21   -1    0    0  501  502  0.00000000000E+00  0.00000000000E+00  0.27830795663E+02  0.27830795663E+02  0.00000000000E+00 0.  1.
         21   -1    0    0  502  503 -0.00000000000E+00 -0.00000000000E+00 -0.13193402558E+04  0.13193402558E+04  0.00000000000E+00 0.  1.
          6    2    1    2  501    0 -0.33802176220E+02 -0.75147972474E+01 -0.37366071837E+03  0.41322819866E+03  0.17302067051E+03 0.  0.
         24    2    3    3    0    0 -0.35011080759E+02  0.61990345729E+02 -0.15874890360E+03  0.18730430776E+03  0.69376585198E+02 0.  0.
         -6    2    1    2    0  503  0.33802176220E+02  0.75147972474E+01 -0.91784874179E+03  0.93394285283E+03  0.16912681703E+03 0.  0.
        -24    2    5    5    0    0  0.25869788384E+02  0.58492047446E+02 -0.41511846762E+03  0.42855050882E+03  0.85097772484E+02 0.  0.
          5    1    3    3  501    0  0.12089045395E+01 -0.69505142976E+02 -0.21491181477E+03  0.22592389090E+03  0.47000000000E+01 0. -1.
        -11    1    4    4    0    0 -0.39082711570E+02  0.23395122203E+02 -0.34514791380E+02  0.57149461157E+02  0.00000000000E+00 0.  1.
         12    1    4    4    0    0  0.40716308109E+01  0.38595223526E+02 -0.12423411222E+03  0.13015484661E+03  0.00000000000E+00 0. -1.
         -5    1    5    5    0  503  0.79323878354E+01 -0.50977250199E+02 -0.50273027417E+03  0.50539234400E+03  0.47000000000E+01 0.  1.
         13    1    6    6    0    0  0.19768380689E+02 -0.19762092322E+02 -0.10659059189E+03  0.11019475236E+03  0.00000000000E+00 0. -1.
        -14    1    6    6    0    0  0.61014076949E+01  0.78254139768E+02 -0.30852787574E+03  0.31835575646E+03  0.00000000000E+00 0.  1.
</event>
<event>
12    1  0.9017558E-003  0.2409601E+03  0.7818608E-02  0.1119163E+00
         21   -1    0    0  503  502  0.00000000000E+00  0.00000000000E+00  0.87663234860E+02  0.87663234860E+02  0.00000000000E+00 0.  1.
         21   -1    0    0  501  503 -0.00000000000E+00 -0.00000000000E+00 -0.81117717895E+03  0.81117717895E+03  0.00000000000E+00 0. -1.
          6    2    1    2  501    0  0.15695471309E+03 -0.63107673716E+02 -0.55438480731E+03  0.60448677913E+03  0.17159368032E+03 0.  0.
         24    2    3    3    0    0  0.57040283671E+02  0.29244637315E+02 -0.24450573583E+03  0.26602116566E+03  0.82917808426E+02 0.  0.
         -6    2    1    2    0  502 -0.15695471309E+03  0.63107673716E+02 -0.16912913678E+03  0.29435363468E+03  0.17152853085E+03 0.  0.
        -24    2    5    5    0    0 -0.26602109364E+02  0.44528898365E+02 -0.11412001529E+02  0.88845102144E+02  0.71223053739E+02 0.  0.
          5    1    3    3  501    0  0.99914429421E+02 -0.92352311031E+02 -0.30987907148E+03  0.33846561347E+03  0.47000000000E+01 0. -1.
        -13    1    4    4    0    0 -0.16367698649E+02 -0.83191219404E+01 -0.21584543067E+02  0.28337287244E+02  0.00000000000E+00 0.  1.
         14    1    4    4    0    0  0.73407982320E+02  0.37563759255E+02 -0.22292119276E+03  0.23768387842E+03  0.00000000000E+00 0. -1.
         -5    1    5    5    0  502 -0.13035260373E+03  0.18578775351E+02 -0.15771713525E+03  0.20550853253E+03  0.47000000000E+01 0.  1.
         11    1    6    6    0    0  0.22807834995E+02  0.26335143695E+02 -0.97009491351E+01  0.36164147228E+02  0.00000000000E+00 0. -1.
        -12    1    6    6    0    0 -0.49409944359E+02  0.18193754670E+02 -0.17110523937E+01  0.52680954916E+02  0.00000000000E+00 0.  1.
</event>
<event>
12    1  0.9017558E-003  0.2090816E+03  0.7818608E-02  0.1142446E+00
         21   -1    0    0  503  502  0.00000000000E+00  0.00000000000E+00  0.46594138769E+02  0.46594138769E+02  0.00000000000E+00 0.  1.
         21   -1    0    0  501  503 -0.00000000000E+00 -0.00000000000E+00 -0.12049576389E+04  0.12049576389E+04  0.00000000000E+00 0.  1.
          6    2    1    2  501    0  0.15596431401E+02 -0.11684227448E+03 -0.87628347788E+03  0.90088171618E+03  0.17268400959E+03 0.  0.
         24    2    3    3    0    0  0.16372255536E+02 -0.14429683925E+03 -0.83292110336E+03  0.84933813701E+03  0.80796522088E+02 0.  0.
         -6    2    1    2    0  502 -0.15596431401E+02  0.11684227448E+03 -0.28208002230E+03  0.35067006154E+03  0.17177015835E+03 0.  0.
        -24    2    5    5    0    0  0.36209004152E+02  0.65843773636E+01 -0.12183716753E+03  0.14932342131E+03  0.78094447633E+02 0.  0.
          5    1    3    3  501    0 -0.77582413507E+00  0.27454564774E+02 -0.43362374512E+02  0.51543579167E+02  0.47000000000E+01 0. -1.
        -13    1    4    4    0    0  0.24113473641E+02 -0.26537331666E+01 -0.13074017203E+03  0.13297178081E+03  0.00000000000E+00 0.  1.
         14    1    4    4    0    0 -0.77412181044E+01 -0.14164310608E+03 -0.70218093134E+03  0.71636635620E+03  0.00000000000E+00 0. -1.
         -5    1    5    5    0  502 -0.51805435553E+02  0.11025789711E+03 -0.16024285477E+03  0.20134664023E+03  0.47000000000E+01 0.  1.
         11    1    6    6    0    0 -0.15316272423E+02 -0.18773245763E+02 -0.61136746387E+02  0.65762639212E+02  0.00000000000E+00 0. -1.
        -12    1    6    6    0    0  0.51525276575E+02  0.25357623127E+02 -0.60700421145E+02  0.83560782093E+02  0.00000000000E+00 0.  1.
</event>
<event>
12    1  0.9017558E-003  0.1938055E+03  0.7818608E-02  0.1160375E+00
         21   -1    0    0  503  502  0.00000000000E+00  0.00000000000E+00  0.19768274798E+04  0.19768274798E+04  0.00000000000E+00 0. -1.
         21   -1    0    0  501  503 -0.00000000000E+00 -0.00000000000E+00 -0.17314684763E+02  0.17314684763E+02  0.00000000000E+00 0. -1.
          6    2    1    2  501    0 -0.18856911725E+02  0.28853608105E+01  0.10837000076E+04  0.10971423786E+04  0.17015223802E+03 0.  0.
         24    2    3    3    0    0 -0.63475062440E+02 -0.25070798594E+02  0.50141176678E+03  0.51245954870E+03  0.80891289384E+02 0.  0.
         -6    2    1    2    0  502  0.18856911725E+02 -0.28853608105E+01  0.87581278750E+03  0.89699978598E+03  0.19286437952E+03 0.  0.
        -24    2    5    5    0    0 -0.47351377351E+02  0.22552401041E+02  0.71261921938E+03  0.71899740413E+03  0.79877103040E+02 0.  0.
          5    1    3    3  501    0  0.44618150715E+02  0.27956159405E+02  0.58228824080E+03  0.58468282991E+03  0.47000000000E+01 0. -1.
        -13    1    4    4    0    0  0.10634064468E+02  0.17332048725E+02  0.87240641846E+02  0.89579087011E+02  0.00000000000E+00 0.  1.
         14    1    4    4    0    0 -0.74109126909E+02 -0.42402847319E+02  0.41417112493E+03  0.42288046169E+03  0.00000000000E+00 0. -1.
         -5    1    5    5    0  502  0.66208289076E+02 -0.25437761851E+02  0.16319356812E+03  0.17800238185E+03  0.47000000000E+01 0.  1.
         11    1    6    6    0    0  0.17769526706E+02 -0.11469625214E+02  0.20508582150E+03  0.20617347686E+03  0.00000000000E+00 0. -1.
        -12    1    6    6    0    0 -0.65120904056E+02  0.34022026255E+02  0.50753339788E+03  0.51282392727E+03  0.00000000000E+00 0.  1.
</event>
<event>
12    1  0.9017558E-003  0.3118748E+03  0.7818608E-02  0.1079470E+00
         21   -1    0    0  501  502  0.00000000000E+00  0.00000000000E+00  0.69715828729E+03  0.69715828729E+03  0.00000000000E+00 0.  1.
         21   -1    0    0  502  503 -0.00000000000E+00 -0.00000000000E+00 -0.15743814605E+03  0.15743814605E+03  0.00000000000E+00 0.  1.
          6    2    1    2  501    0  0.10796590423E+03 -0.23649257135E+03  0.12546588448E+03  0.33616600595E+03  0.17228036049E+03 0.  0.
         24    2    3    3    0    0  0.13782651733E+03 -0.17078834855E+03  0.66004324631E+02  0.24253658639E+03  0.79389016787E+02 0.  0.
         -6    2    1    2    0  503 -0.10796590423E+03  0.23649257135E+03  0.41425425676E+03  0.51843042740E+03  0.17198298181E+03 0.  0.
        -24    2    5    5    0    0  0.63460074836E+01  0.11457524145E+03  0.14479571032E+03  0.20131680937E+03  0.79968132682E+02 0.  0.
          5    1    3    3  501    0 -0.29860613103E+02 -0.65704222792E+02  0.59461559848E+02  0.93629419560E+02  0.47000000000E+01 0. -1.
        -11    1    4    4    0    0  0.76251713188E+02 -0.72029318058E+02  0.69967032884E+02  0.12608700216E+03  0.00000000000E+00 0.  1.
         12    1    4    4    0    0  0.61574804140E+02 -0.98759030497E+02 -0.39627082535E+01  0.11644958423E+03  0.00000000000E+00 0. -1.
         -5    1    5    5    0  503 -0.11431191171E+03  0.12191732989E+03  0.26945854644E+03  0.31711361802E+03  0.47000000000E+01 0.  1.
         13    1    6    6    0    0 -0.12110371223E+02  0.55124575630E+02  0.12305372578E+03  0.13537946432E+03  0.00000000000E+00 0. -1.
        -14    1    6    6    0    0  0.18456378707E+02  0.59450665823E+02  0.21741984538E+02  0.65937345059E+02  0.00000000000E+00 0.  1.
</event>
<event>
12    1  0.9017558E-003  0.1871854E+03  0.7818608E-02  0.1161026E+00
         21   -1    0    0  503  502  0.00000000000E+00  0.00000000000E+00  0.31296786616E+02  0.31296786616E+02  0.00000000000E+00 0. -1.
         21   -1    0    0  501  503 -0.00000000000E+00 -0.00000000000E+00 -0.11334215114E+04  0.11334215114E+04  0.00000000000E+00 0. -1.
          6    2    1    2  501    0  0.73126433601E+02 -0.78496366484E+01 -0.61556384062E+03  0.64339318779E+03  0.17212454832E+03 0.  0.
         24    2    3    3    0    0  0.58537016119E+02 -0.69913857333E+02 -0.44831600613E+03  0.46434362277E+03  0.79455830228E+02 0.  0.
         -6    2    1    2    0  502 -0.73126433601E+02  0.78496366484E+01 -0.48656088415E+03  0.52132511021E+03  0.17213159054E+03 0.  0.
        -24    2    5    5    0    0 -0.75794791851E+02  0.42012687843E+02 -0.19641346739E+03  0.22912338595E+03  0.80058474930E+02 0.  0.
          5    1    3    3  501    0  0.14589417482E+02  0.62064220685E+02 -0.16724783449E+03  0.17904956502E+03  0.47000000000E+01 0. -1.
        -11    1    4    4    0    0 -0.10425572550E+01 -0.36684487561E+02 -0.61976461081E+02  0.72027219031E+02  0.00000000000E+00 0.  1.
         12    1    4    4    0    0  0.59579573374E+02 -0.33229369773E+02 -0.38633954505E+03  0.39231640374E+03  0.00000000000E+00 0. -1.
         -5    1    5    5    0  502  0.26683582503E+01 -0.34163051194E+02 -0.29014741676E+03  0.29220172426E+03  0.47000000000E+01 0.  1.
         11    1    6    6    0    0 -0.67191633247E+02  0.60652019505E+02 -0.18419234883E+03  0.20523207453E+03  0.00000000000E+00 0. -1.
        -12    1    6    6    0    0 -0.86031586040E+01 -0.18639331663E+02 -0.12221118562E+02  0.23891311427E+02  0.00000000000E+00 0.  1.
</event>
<event>
12    1  0.9017558E-003  0.2012572E+03  0.7818608E-02  0.1148786E+00
         21   -1    0    0  501  502  0.00000000000E+00  0.00000000000E+00  0.81373873932E+02  0.81373873932E+02  0.00000000000E+00 0.  1.
         21   -1    0    0  502  503 -0.00000000000E+00 -0.00000000000E+00 -0.51750557410E+03  0.51750557410E+03  0.00000000000E+00 0.  1.
          6    2    1    2  501    0  0.10203717837E+03 -0.27091403592E+02 -0.27859843683E+03  0.34368815187E+03  0.17134446829E+03 0.  0.
         24    2    3    3    0    0 -0.10725659957E+02  0.86685991649E+01 -0.13695275858E+03  0.15908093730E+03  0.79752756297E+02 0.  0.
         -6    2    1    2    0  503 -0.10203717837E+03  0.27091403592E+02 -0.15753326334E+03  0.25519129617E+03  0.17076398526E+03 0.  0.
        -24    2    5    5    0    0 -0.95111757831E+00 -0.21379500079E+02 -0.94628133168E+02  0.12655628697E+03  0.81265137275E+02 0.  0.
          5    1    3    3  501    0  0.11276283833E+03 -0.35760002757E+02 -0.14164567825E+03  0.18460721457E+03  0.47000000000E+01 0. -1.
        -11    1    4    4    0    0  0.22850651883E+02 -0.16114809682E+02 -0.18591404941E+02  0.33577964802E+02  0.00000000000E+00 0.  1.
         12    1    4    4    0    0 -0.33576311841E+02  0.24783408847E+02 -0.11836135364E+03  0.12550297250E+03  0.00000000000E+00 0. -1.
         -5    1    5    5    0  503 -0.10108606079E+03  0.48470903671E+02 -0.62905130175E+02  0.12863500920E+03  0.47000000000E+01 0.  1.
         11    1    6    6    0    0  0.21859156199E+02  0.14356335191E+02 -0.39390276827E+01  0.26446984874E+02  0.00000000000E+00 0. -1.
        -12    1    6    6    0    0 -0.22810273778E+02 -0.35735835269E+02 -0.90689105485E+02  0.10010930209E+03  0.00000000000E+00 0.  1.
</event>
<event>
12    1  0.9017558E-003  0.1829562E+03  0.7818608E-02  0.1165211E+00
         21   -1    0    0  501  502  0.00000000000E+00  0.00000000000E+00  0.84561008108E+02  0.84561008108E+02  0.00000000000E+00 0.  1.
         21   -1    0    0  502  503 -0.00000000000E+00 -0.00000000000E+00 -0.49581435788E+03  0.49581435788E+03  0.00000000000E+00 0. -1.
          6    2    1    2  501    0  0.39027404294E+02  0.47394151701E+02 -0.73468597559E+02  0.19622499438E+03  0.17128125901E+03 0.  0.
         24    2    3    3    0    0  0.29861073300E+02  0.85595048233E+02 -0.94752093514E+02  0.15129830610E+03  0.75465371011E+02 0.  0.
         -6    2    1    2    0  503 -0.39027404294E+02 -0.47394151701E+02 -0.33778475221E+03  0.38415037161E+03  0.17234739708E+03 0.  0.
        -24    2    5    5    0    0 -0.81261101976E+02 -0.22033746962E+02 -0.30309862966E+03  0.32371815796E+03  0.76392498295E+02 0.  0.
          5    1    3    3  501    0  0.91663309943E+01 -0.38200896532E+02  0.21283495954E+02  0.44926688279E+02  0.47000000000E+01 0. -1.
        -11    1    4    4    0    0  0.17613159582E+02  0.20378247281E+02  0.87767712751E+01  0.28328926325E+02  0.00000000000E+00 0.  1.
         12    1    4    4    0    0  0.12247913717E+02  0.65216800952E+02 -0.10352886479E+03  0.12296937977E+03  0.00000000000E+00 0. -1.
         -5    1    5    5    0  503  0.42233697682E+02 -0.25360404739E+02 -0.34686122553E+02  0.60432213646E+02  0.47000000000E+01 0.  1.
         13    1    6    6    0    0 -0.82457772332E+01  0.23663724919E+02 -0.10033554031E+03  0.10341752931E+03  0.00000000000E+00 0. -1.
        -14    1    6    6    0    0 -0.73015324743E+02 -0.45697471881E+02 -0.20276308934E+03  0.22030062865E+03  0.00000000000E+00 0.  1.
</event>
<event>
12    1  0.9017558E-003  0.1993600E+03  0.7818608E-02  0.1150559E+00
         21   -1    0    0  501  502  0.00000000000E+00  0.00000000000E+00  0.22702879749E+03  0.22702879749E+03  0.00000000000E+00 0.  1.
         21   -1    0    0  502  503 -0.00000000000E+00 -0.00000000000E+00 -0.46670493353E+03  0.46670493353E+03  0.00000000000E+00 0.  1.
          6    2    1    2  501    0  0.55649694685E+02  0.80469580019E+02  0.15475412707E+03  0.25237523671E+03  0.17370140596E+03 0.  0.
         24    2    3    3    0    0  0.37761755905E+02  0.89241894670E+02  0.32793022929E+02  0.12870821289E+03  0.78104774105E+02 0.  0.
         -6    2    1    2    0  503 -0.55649694685E+02 -0.80469580019E+02 -0.39443026312E+03  0.44135849430E+03  0.17219130699E+03 0.  0.
        -24    2    5    5    0    0  0.30377581544E+02 -0.68218293121E+02 -0.18760520612E+03  0.21697159520E+03  0.79400420558E+02 0.  0.
          5    1    3    3  501    0  0.17887938780E+02 -0.87723146516E+01  0.12196110415E+03  0.12366702383E+03  0.47000000000E+01 0. -1.
        -11    1    4    4    0    0 -0.78321257035E+01 -0.64920334351E+01  0.19299361026E+02  0.21816370623E+02  0.00000000000E+00 0.  1.
         12    1    4    4    0    0  0.45593881608E+02  0.95733928105E+02  0.13493661902E+02  0.10689184226E+03  0.00000000000E+00 0. -1.
         -5    1    5    5    0  503 -0.86027276229E+02 -0.12251286898E+02 -0.20682505700E+03  0.22438689910E+03  0.47000000000E+01 0.  1.
         11    1    6    6    0    0  0.26072579241E+02  0.11759057792E+02 -0.56762626359E+02  0.63561392209E+02  0.00000000000E+00 0. -1.
        -12    1    6    6    0    0  0.43050023028E+01 -0.79977350913E+02 -0.13084257976E+03  0.15341020299E+03  0.00000000000E+00 0.  1.
</event>
<event>
12    1  0.9017558E-003  0.2099000E+03  0.7818608E-02  0.1142014E+00
         21   -1    0    0  503  502  0.00000000000E+00  0.00000000000E+00  0.11686175819E+03  0.11686175819E+03  0.00000000000E+00 0.  1.
         21   -1    0    0  501  503 -0.00000000000E+00 -0.00000000000E+00 -0.49872573739E+03  0.49872573739E+03  0.00000000000E+00 0.  1.
          6    2    1    2  501    0 -0.11545173201E+03  0.26920900347E+02 -0.34441223280E+03  0.40237249607E+03  0.17096783965E+03 0.  0.
         24    2    3    3    0    0 -0.51814246031E+02  0.65725791198E+02 -0.28265331943E+03  0.30546118324E+03  0.80056478549E+02 0.  0.
         -6    2    1    2    0  502  0.11545173201E+03 -0.26920900347E+02 -0.37451746404E+02  0.21321499951E+03  0.17321710483E+03 0.  0.
        -24    2    5    5    0    0  0.11433855792E+03  0.22149654267E+02 -0.65991176268E+02  0.15624353697E+03  0.80580980934E+02 0.  0.
          5    1    3    3  501    0 -0.63637485981E+02 -0.38804890851E+02 -0.61758913366E+02  0.96911312838E+02  0.47000000000E+01 0. -1.
        -13    1    4    4    0    0 -0.52848732613E+02  0.28504244674E+01 -0.12740667774E+03  0.13796222306E+03  0.00000000000E+00 0.  1.
         14    1    4    4    0    0  0.10344865815E+01  0.62875366730E+02 -0.15524664169E+03  0.16749896018E+03  0.00000000000E+00 0. -1.
         -5    1    5    5    0  502  0.11131740916E+01 -0.49070554613E+02  0.28539429863E+02  0.56971462536E+02  0.47000000000E+01 0.  1.
         11    1    6    6    0    0  0.12237308188E+02  0.14940847860E+02 -0.48763223955E+02  0.52448380880E+02  0.00000000000E+00 0. -1.
        -12    1    6    6    0    0  0.10210124973E+03  0.72088064070E+01 -0.17227952313E+02  0.10379515609E+03  0.00000000000E+00 0.  1.
</event>
<event>
12    1  0.9017558E-003  0.2060449E+03  0.7818608E-02  0.1145161E+00
         21   -1    0    0  501  502  0.00000000000E+00  0.00000000000E+00  0.12743557409E+04  0.12743557409E+04  0.00000000000E+00 0.  1.
         21   -1    0    0  502  503 -0.00000000000E+00 -0.00000000000E+00 -0.38860062865E+02  0.38860062865E+02  0.00000000000E+00 0.  1.
          6    2    1    2  501    0  0.16973853709E+02 -0.11127304760E+03  0.87051539346E+03  0.89409157984E+03  0.17009673735E+03 0.  0.
         24    2    3    3    0    0  0.40710212002E+02 -0.55819469247E+02  0.27321578045E+03  0.29373549237E+03  0.82828390567E+02 0.  0.
         -6    2    1    2    0  503 -0.16973853709E+02  0.11127304760E+03  0.36498028454E+03  0.41912422389E+03  0.17258245599E+03 0.  0.
        -24    2    5    5    0    0 -0.30811819193E+02  0.80389308158E+02  0.36589444260E+03  0.38494498552E+03  0.83018610443E+02 0.  0.
          5    1    3    3  501    0 -0.23736358293E+02 -0.55453578357E+02  0.59729961301E+03  0.60035608747E+03  0.47000000000E+01 0. -1.
        -13    1    4    4    0    0  0.21280683174E+02 -0.55472582526E+02  0.26670251494E+03  0.27324038202E+03  0.00000000000E+00 0.  1.
         14    1    4    4    0    0  0.19429528828E+02 -0.34688672125E+00  0.65132655071E+01  0.20495110354E+02  0.00000000000E+00 0. -1.
         -5    1    5    5    0  503  0.13837965484E+02  0.30883739446E+02 -0.91415806046E+00  0.34179238375E+02  0.47000000000E+01 0.  1.
         13    1    6    6    0    0 -0.28461341891E+02 -0.61496296346E+00  0.17882657143E+03  0.18107834992E+03  0.00000000000E+00 0. -1.
        -14    1    6    6    0    0 -0.23504773011E+01  0.81004271122E+02  0.18706787117E+03  0.20386663560E+03  0.00000000000E+00 0.  1.
</event>
<event>
12    1  0.9017558E-003  0.1935323E+03  0.7818608E-02  0.1155772E+00
         21   -1    0    0  503  502  0.00000000000E+00  0.00000000000E+00  0.36969929488E+03  0.36969929488E+03  0.00000000000E+00 0.  1.
         21   -1    0    0  501  503 -0.00000000000E+00 -0.00000000000E+00 -0.15213043872E+03  0.15213043872E+03  0.00000000000E+00 0.  1.
          6    2    1    2  501    0  0.54182966952E+02 -0.69865525421E+02  0.26156321597E+03  0.32537677825E+03  0.17215616841E+03 0.  0.
         24    2    3    3    0    0  0.49876712336E+02 -0.17984226305E+02  0.52166299611E+02  0.10955423168E+03  0.80434370973E+02 0.  0.
         -6    2    1    2    0  502 -0.54182966952E+02  0.69865525421E+02 -0.43994359811E+02  0.19645295534E+03  0.16982718987E+03 0.  0.
        -24    2    5    5    0    0  0.13860640555E+01  0.22427888327E+01  0.26361474546E+02  0.84057291999E+02  0.79773114033E+02 0.  0.
          5    1    3    3  501    0  0.43062546169E+01 -0.51881299116E+02  0.20939691636E+03  0.21582254657E+03  0.47000000000E+01 0. -1.
        -13    1    4    4    0    0  0.55640147345E+02 -0.37831671213E+02  0.57167573742E+02  0.88290389234E+02  0.00000000000E+00 0.  1.
         14    1    4    4    0    0 -0.57634350097E+01  0.19847444908E+02 -0.50012741314E+01  0.21263842443E+02  0.00000000000E+00 0. -1.
         -5    1    5    5    0  502 -0.55569031008E+02  0.67622736589E+02 -0.70355834358E+02  0.11239566335E+03  0.47000000000E+01 0.  1.
         13    1    6    6    0    0 -0.43117580061E+01  0.28692577206E+02  0.43309969928E+02  0.52130689033E+02  0.00000000000E+00 0. -1.
        -14    1    6    6    0    0  0.56978220616E+01 -0.26449788373E+02 -0.16948495382E+02  0.31926602966E+02  0.00000000000E+00 0.  1.
</event>
<event>
12    1  0.9017558E-003  0.2144688E+03  0.7818608E-02  0.1138362E+00
         21   -1    0    0  503  502  0.00000000000E+00  0.00000000000E+00  0.16369604337E+04  0.16369604337E+04  0.00000000000E+00 0. -1.
         21   -1    0    0  501  503 -0.00000000000E+00 -0.00000000000E+00 -0.30723715851E+02  0.30723715851E+02  0.00000000000E+00 0. -1.
          6    2    1    2  501    0 -0.55091604489E+01  0.12467048836E+03  0.55307857451E+03  0.59320549718E+03  0.17442411183E+03 0.  0.
         24    2    3    3    0    0 -0.15975742069E+02  0.10534280168E+03  0.55496942984E+03  0.57064947499E+03  0.79356317047E+02 0.  0.
         -6    2    1    2    0  502  0.55091604489E+01 -0.12467048836E+03  0.10531581433E+04  0.10744786523E+04  0.17259553297E+03 0.  0.
        -24    2    5    5    0    0 -0.49115157300E+02 -0.11247817366E+03  0.88586222133E+03  0.89800631984E+03  0.81239381257E+02 0.  0.
          5    1    3    3  501    0  0.10466581620E+02  0.19327686673E+02 -0.18908553293E+01  0.22556022185E+02  0.47000000000E+01 0. -1.
        -11    1    4    4    0    0  0.12954190157E+02 -0.53692551400E+01  0.12240165566E+03  0.12320229402E+03  0.00000000000E+00 0.  1.
         12    1    4    4    0    0 -0.28929932226E+02  0.11071205682E+03  0.43256777417E+03  0.44744718097E+03  0.00000000000E+00 0. -1.
         -5    1    5    5    0  502  0.54624317749E+02 -0.12192314698E+02  0.16729592198E+03  0.17647233250E+03  0.47000000000E+01 0.  1.
         13    1    6    6    0    0  0.60404318562E+01 -0.55879322282E+02  0.55491082470E+03  0.55774995190E+03  0.00000000000E+00 0. -1.
        -14    1    6    6    0    0 -0.55155589156E+02 -0.56598851377E+02  0.33095139664E+03  0.34025636795E+03  0.00000000000E+00 0.  1.
</event>
<event>
12    1  0.9017558E-003  0.2824944E+03  0.7818608E-02  0.1094543E+00
         21   -1    0    0  503  502  0.00000000000E+00  0.00000000000E+00  0.18285630749E+03  0.18285630749E+03  0.00000000000E+00 0. -1.
         21   -1    0    0  501  503 -0.00000000000E+00 -0.00000000000E+00 -0.48414540138E+03  0.48414540138E+03  0.00000000000E+00 0.  1.
          6    2    1    2  501    0 -0.20038291148E+03  0.96739105946E+02 -0.25829566023E+03  0.38277893164E+03  0.17404395015E+03 0.  0.
         24    2    3    3    0    0 -0.10446887232E+03  0.12385741502E+03 -0.18396843980E+03  0.25835412989E+03  0.81535667351E+02 0.  0.
         -6    2    1    2    0  502  0.20038291148E+03 -0.96739105946E+02 -0.42993433669E+02  0.28422277723E+03  0.17152954826E+03 0.  0.
        -24    2    5    5    0    0  0.85907124986E+02  0.12662385747E+02 -0.40022647849E+02  0.12577938782E+03  0.81720694591E+02 0.  0.
          5    1    3    3  501    0 -0.95914039156E+02 -0.27118309070E+02 -0.74327220435E+02  0.12442480175E+03  0.47000000000E+01 0. -1.
        -11    1    4    4    0    0 -0.42209247342E+02  0.72992802456E+00 -0.56353005645E+02  0.70411750450E+02  0.00000000000E+00 0.  1.
         12    1    4    4    0    0 -0.62259624980E+02  0.12312748699E+03 -0.12761543415E+03  0.18794237944E+03  0.00000000000E+00 0. -1.
         -5    1    5    5    0  502  0.11447578649E+03 -0.10940149169E+03 -0.29707858200E+01  0.15844338941E+03  0.47000000000E+01 0.  1.
         13    1    6    6    0    0  0.82135601663E+02 -0.19508154777E+02 -0.17198006333E+02  0.86154492542E+02  0.00000000000E+00 0. -1.
        -14    1    6    6    0    0  0.37715233223E+01  0.32170540524E+02 -0.22824641515E+02  0.39624895282E+02  0.00000000000E+00 0.  1.
</event>
<event>
12    1  0.9017558E-003  0.2160881E+03  0.7818608E-02  0.1137395E+00
         21   -1    0    0  501  502  0.00000000000E+00  0.00000000000E+00  0.78178582187E+02  0.78178582187E+02  0.00000000000E+00 0. -1.
         21   -1    0    0  502  503 -0.00000000000E+00 -0.00000000000E+00 -0.82841527977E+03  0.82841527977E+03  0.00000000000E+00 0.  1.
          6    2    1    2  501    0 -0.77683839943E+02  0.10408455277E+03 -0.62049945555E+03  0.65704918985E+03  0.17270115932E+03 0.  0.
         24    2    3    3    0    0 -0.13289516326E+02  0.10182681136E+03 -0.25664841123E+03  0.28750704237E+03  0.79035319127E+02 0.  0.
         -6    2    1    2    0  503  0.77683839943E+02 -0.10408455277E+03 -0.12973724203E+03  0.24954467211E+03  0.16903377856E+03 0.  0.
        -24    2    5    5    0    0  0.53532503475E+02 -0.12967023193E+03 -0.13831001746E+03  0.21302760062E+03  0.81061703156E+02 0.  0.
          5    1    3    3  501    0 -0.64394323616E+02  0.22577414059E+01 -0.36385104432E+03  0.36954214748E+03  0.47000000000E+01 0. -1.
        -13    1    4    4    0    0  0.15146233194E+02  0.62960191084E+02 -0.21259638422E+03  0.22223999780E+03  0.00000000000E+00 0.  1.
         14    1    4    4    0    0 -0.28435749520E+02  0.38866620278E+02 -0.44052027013E+02  0.65267044567E+02  0.00000000000E+00 0. -1.
         -5    1    5    5    0  503  0.24151336467E+02  0.25585679159E+02  0.85727754339E+01  0.36517071485E+02  0.47000000000E+01 0.  1.
         13    1    6    6    0    0  0.96032258053E+01 -0.90415489311E+02 -0.12151702468E+03  0.15176814534E+03  0.00000000000E+00 0. -1.
        -14    1    6    6    0    0  0.43929277670E+02 -0.39254742616E+02 -0.16792992785E+02  0.61259455280E+02  0.00000000000E+00 0.  1.
</event>
<event>
12    1  0.9017558E-003  0.1754518E+03  0.7818608E-02  0.1176914E+00
         21   -1    0    0  503  502  0.00000000000E+00  0.00000000000E+00  0.35727812966E+03  0.35727812966E+03  0.00000000000E+00 0.  1.
         21   -1    0    0  501  503 -0.00000000000E+00 -0.00000000000E+00 -0.87419687162E+02  0.87419687162E+02  0.00000000000E+00 0.  1.
          6    2    1    2  501    0  0.11969243980E+02  0.47207167628E+02  0.54851008298E+02  0.16718832403E+03  0.15023822119E+03 0.  0.
         24    2    3    3    0    0 -0.13461027394E+02 -0.89903340208E+01 -0.35405915571E+01  0.82120546189E+02  0.80431479867E+02 0.  0.
         -6    2    1    2    0  502 -0.11969243980E+02 -0.47207167628E+02  0.21500743420E+03  0.27750949279E+03  0.16855723761E+03 0.  0.
        -24    2    5    5    0    0  0.14268135483E+01 -0.86555709791E+02  0.98991398594E+02  0.15418239664E+03  0.80492159512E+02 0.  0.
          5    1    3    3  501    0  0.25430271374E+02  0.56197501649E+02  0.58391599855E+02  0.85067777845E+02  0.47000000000E+01 0. -1.
        -11    1    4    4    0    0 -0.29524423634E+02 -0.13684024135E+02  0.30239278572E+02  0.44422495157E+02  0.00000000000E+00 0.  1.
         12    1    4    4    0    0  0.16063396241E+02  0.46936901144E+01 -0.33779870129E+02  0.37698051032E+02  0.00000000000E+00 0. -1.
         -5    1    5    5    0  502 -0.13396057529E+02  0.39348542163E+02  0.11601603561E+03  0.12332709615E+03  0.47000000000E+01 0.  1.
         11    1    6    6    0    0  0.36990468725E+02 -0.31500584305E+02  0.22772245999E+02  0.53657774608E+02  0.00000000000E+00 0. -1.
        -12    1    6    6    0    0 -0.35563655177E+02 -0.55055125486E+02  0.76219152595E+02  0.10052462203E+03  0.00000000000E+00 0.  1.
</event>
<event>
12    1  0.9017558E-003  0.2540901E+03  0.7818608E-02  0.1111018E+00
         21   -1    0    0  503  502  0.00000000000E+00  0.00000000000E+00  0.25449439737E+04  0.25449439737E+04  0.00000000000E+00 0. -1.
         21   -1    0    0  501  503 -0.00000000000E+00 -0.00000000000E+00 -0.25209378867E+02  0.25209378867E+02  0.00000000000E+00 0.  1.
          6    2    1    2  501    0  0.18383399404E+03 -0.38805727375E+02  0.12950767357E+04  0.13197672233E+04  0.17105832491E+03 0.  0.
         24    2    3    3    0    0  0.14076512447E+03  0.32167271803E+02  0.71295895034E+03  0.73174060812E+03  0.79273570975E+02 0.  0.
         -6    2    1    2    0  502 -0.18383399404E+03  0.38805727375E+02  0.12246578591E+04  0.12503861292E+04  0.16845705230E+03 0.  0.
        -24    2    5    5    0    0 -0.47883068195E+02  0.36889302705E+02  0.32845700749E+03  0.34391804741E+03  0.82109735685E+02 0.  0.
          5    1    3    3  501    0  0.43068869569E+02 -0.70972999178E+02  0.58211778538E+03  0.58802661521E+03  0.47000000000E+01 0. -1.
        -11    1    4    4    0    0  0.13746124262E+01  0.17706191927E+02  0.32845570514E+02  0.37339393330E+02  0.00000000000E+00 0.  1.
         12    1    4    4    0    0  0.13939051204E+03  0.14461079877E+02  0.68011337983E+03  0.69440121479E+03  0.00000000000E+00 0. -1.
         -5    1    5    5    0  502 -0.13595092584E+03  0.19164246698E+01  0.89620085162E+03  0.90646808182E+03  0.47000000000E+01 0.  1.
         13    1    6    6    0    0 -0.31828119765E+02  0.40404463983E+02  0.32228270403E+03  0.32636128942E+03  0.00000000000E+00 0. -1.
        -14    1    6    6    0    0 -0.16054948430E+02 -0.35151612785E+01  0.61743034587E+01  0.17556757989E+02  0.00000000000E+00 0.  1.
</event>
<event>
12    1  0.9017558E-003  0.2791802E+03  0.7818608E-02  0.1096243E+00
         21   -1    0    0  503  502  0.00000000000E+00  0.00000000000E+00  0.31520895091E+03  0.31520895091E+03  0.00000000000E+00 0.  1.
         21   -1    0    0  501  503 -0.00000000000E+00 -0.00000000000E+00 -0.24724080295E+03  0.24724080295E+03  0.00000000000E+00 0. -1.
          6    2    1    2  501    0 -0.21505071231E+03  0.41424538804E+02  0.19488490455E+02  0.27909153798E+03  0.17189963360E+03 0.  0.
         24    2    3    3    0    0 -0.76749717557E+02 -0.37829679176E+02 -0.73498310331E+01  0.11737950467E+03  0.80014525731E+02 0.  0.
         -6    2    1    2    0  502  0.21505071231E+03 -0.41424538804E+02  0.48479657499E+02  0.28335821588E+03  0.17314387092E+03 0.  0.
        -24    2    5    5    0    0  0.95110689927E+02 -0.41189218196E+02 -0.27064248759E+02  0.14153213888E+03  0.92500149957E+02 0.  0.
          5    1    3    3  501    0 -0.13830099475E+03  0.79254217980E+02  0.26838321488E+02  0.16171203331E+03  0.47000000000E+01 0. -1.
        -11    1    4    4    0    0 -0.73214507914E+01  0.81493583454E+00  0.29057730068E+02  0.29976981816E+02  0.00000000000E+00 0.  1.
         12    1    4    4    0    0 -0.69428266765E+02 -0.38644615011E+02 -0.36407561101E+02  0.87402522851E+02  0.00000000000E+00 0. -1.
         -5    1    5    5    0  502  0.11994002238E+03 -0.23532060770E+00  0.75543906258E+02  0.14182607700E+03  0.47000000000E+01 0.  1.
         11    1    6    6    0    0 -0.11598292381E+02 -0.25263417884E+02 -0.18309605344E+02  0.33286668761E+02  0.00000000000E+00 0. -1.
        -12    1    6    6    0    0  0.10670898231E+03 -0.15925800312E+02 -0.87546434143E+01  0.10824547012E+03  0.00000000000E+00 0.  1.
</event>
<event>
12    1  0.9017558E-003  0.1864736E+03  0.7818608E-02  0.1161999E+00
         21   -1    0    0  503  502  0.00000000000E+00  0.00000000000E+00  0.25926889623E+03  0.25926889623E+03  0.00000000000E+00 0. -1.
         21   -1    0    0  501  503 -0.00000000000E+00 -0.00000000000E+00 -0.14849831158E+03  0.14849831158E+03  0.00000000000E+00 0. -1.
          6    2    1    2  501    0 -0.60996910346E+02  0.38553890820E+02 -0.10380290501E+02  0.18539379774E+03  0.17045845313E+03 0.  0.
         24    2    3    3    0    0 -0.61809796645E+02  0.77267548437E+02  0.22878735470E+02  0.13413308297E+03  0.87621472304E+02 0.  0.
         -6    2    1    2    0  502  0.60996910346E+02 -0.38553890820E+02  0.12115087515E+03  0.22237341007E+03  0.17194584434E+03 0.  0.
        -24    2    5    5    0    0  0.98838065589E+02  0.44764127070E+01  0.68629874998E+02  0.14450104328E+03  0.79884230531E+02 0.  0.
          5    1    3    3  501    0  0.81288629919E+00 -0.38713657617E+02 -0.33259025971E+02  0.51260714771E+02  0.47000000000E+01 0. -1.
        -11    1    4    4    0    0 -0.49401693673E+02 -0.40242723479E+01  0.13471331278E+02  0.51363400122E+02  0.00000000000E+00 0.  1.
         12    1    4    4    0    0 -0.12408102972E+02  0.81291820785E+02  0.94074041923E+01  0.82769682852E+02  0.00000000000E+00 0. -1.
         -5    1    5    5    0  502 -0.37841155243E+02 -0.43030303527E+02  0.52521000150E+02  0.77872366784E+02  0.47000000000E+01 0.  1.
         11    1    6    6    0    0  0.24295760621E+02 -0.33044991290E+02  0.91584499801E+01  0.42025380897E+02  0.00000000000E+00 0. -1.
        -12    1    6    6    0    0  0.74542304968E+02  0.37521403997E+02  0.59471425018E+02  0.10247566239E+03  0.00000000000E+00 0.  1.
</event>
<event>
12    1  0.9017558E-003  0.2100180E+03  0.7818608E-02  0.1141617E+00
         21   -1    0    0  503  502  0.00000000000E+00  0.00000000000E+00  0.94535725005E+02  0.94535725005E+02  0.00000000000E+00 0.  1.
         21   -1    0    0  501  503 -0.00000000000E+00 -0.00000000000E+00 -0.53112792129E+03  0.53112792129E+03  0.00000000000E+00 0.  1.
          6    2    1    2  501    0 -0.90401987546E+02 -0.85806996656E+02 -0.10876398628E+03  0.23651041558E+03  0.16903316816E+03 0.  0.
         24    2    3    3    0    0 -0.53891117424E+02  0.89865175261E+01 -0.22450328532E+02  0.10312754006E+03  0.84535567859E+02 0.  0.
         -6    2    1    2    0  502  0.90401987546E+02  0.85806996656E+02 -0.32782821000E+03  0.38915323071E+03  0.16862248270E+03 0.  0.
        -24    2    5    5    0    0  0.61175774705E+02 -0.12968334098E+02 -0.20595105470E+03  0.22950715820E+03  0.79668347761E+02 0.  0.
          5    1    3    3  501    0 -0.36510870122E+02 -0.94793514182E+02 -0.86313657750E+02  0.13338287552E+03  0.47000000000E+01 0. -1.
        -11    1    4    4    0    0 -0.69251118529E+02 -0.12544950457E+02 -0.28609718225E+02  0.75971107511E+02  0.00000000000E+00 0.  1.
         12    1    4    4    0    0  0.15360001105E+02  0.21531467983E+02  0.61593896927E+01  0.27156432550E+02  0.00000000000E+00 0. -1.
         -5    1    5    5    0  502  0.29226212841E+02  0.98775330754E+02 -0.12187715530E+03  0.15964607251E+03  0.47000000000E+01 0.  1.
         13    1    6    6    0    0  0.16304616208E+02 -0.38564002320E+02 -0.49957432847E+02  0.65182573448E+02  0.00000000000E+00 0. -1.
        -14    1    6    6    0    0  0.44871158497E+02  0.25595668222E+02 -0.15599362185E+03  0.16432458476E+03  0.00000000000E+00 0.  1.
</event>
<event>
12    1  0.9017558E-003  0.2691323E+03  0.7818608E-02  0.1102150E+00
         21   -1    0    0  501  502  0.00000000000E+00  0.00000000000E+00  0.23590259720E+04  0.23590259720E+04  0.00000000000E+00 0. -1.
         21   -1    0    0  502  503 -0.00000000000E+00 -0.00000000000E+00 -0.36392197655E+02  0.36392197655E+02  0.00000000000E+00 0. -1.
          6    2    1    2  501    0 -0.14078277553E+03  0.15154121614E+03  0.16515514622E+04  0.16733363203E+04  0.17218501288E+03 0.  0.
         24    2    3    3    0    0 -0.32537115412E+02  0.75751915257E+02  0.46580556939E+03  0.48024095394E+03  0.82822272482E+02 0.  0.
         -6    2    1    2    0  503  0.14078277553E+03 -0.15154121614E+03  0.67108231218E+03  0.72208184934E+03  0.16812554040E+03 0.  0.
        -24    2    5    5    0    0  0.44936452110E+02 -0.12522045095E+02  0.16858854769E+03  0.19195458066E+03  0.79046671558E+02 0.  0.
          5    1    3    3  501    0 -0.10824566012E+03  0.75789300884E+02  0.11857458928E+04  0.11930953664E+04  0.47000000000E+01 0. -1.
        -13    1    4    4    0    0  0.27500878903E+02  0.33971961692E+02  0.17141572620E+03  0.17690037793E+03  0.00000000000E+00 0.  1.
         14    1    4    4    0    0 -0.60037994315E+02  0.41779953565E+02  0.29438984319E+03  0.30334057601E+03  0.00000000000E+00 0. -1.
         -5    1    5    5    0  503  0.95846323424E+02 -0.13901917105E+03  0.50249376450E+03  0.53012726867E+03  0.47000000000E+01 0.  1.
         13    1    6    6    0    0  0.28708000506E+02 -0.29761946264E+02  0.29328056592E+02  0.50695735934E+02  0.00000000000E+00 0. -1.
        -14    1    6    6    0    0  0.16228451605E+02  0.17239901168E+02  0.13926049110E+03  0.14125884473E+03  0.00000000000E+00 0.  1.
</event>
<event>
12    1  0.9017558E-003  0.1991565E+03  0.7818608E-02  0.1150668E+00
         21   -1    0    0  501  502  0.00000000000E+00  0.00000000000E+00  0.14694823507E+03  0.14694823507E+03  0.00000000000E+00 0. -1.
         21   -1    0    0  502  503 -0.00000000000E+00 -0.00000000000E+00 -0.27200871237E+03  0.27200871237E+03  0.00000000000E+00 0.  1.
          6    2    1    2  501    0 -0.10069544903E+03  0.14188681407E+02 -0.39034530127E+02  0.20294581075E+03  0.17123789132E+03 0.  0.
         24    2    3    3    0    0 -0.63124113424E+02 -0.52393034133E+02  0.28424821884E+01  0.11565031107E+03  0.81469202925E+02 0.  0.
         -6    2    1    2    0  503  0.10069544903E+03 -0.14188681407E+02 -0.86025947173E+02  0.21601113669E+03  0.17005721229E+03 0.  0.
        -24    2    5    5    0    0  0.22611882765E+02  0.26488670527E+02  0.99149522241E+01  0.85709807233E+02  0.77684733828E+02 0.  0.
          5    1    3    3  501    0 -0.37571335601E+02  0.66581715539E+02 -0.41877012315E+02  0.87295499675E+02  0.47000000000E+01 0. -1.
        -11    1    4    4    0    0 -0.38926055051E+02  0.11338813868E+01 -0.29258268755E+02  0.48709031394E+02  0.00000000000E+00 0.  1.
         12    1    4    4    0    0 -0.24198058374E+02 -0.53526915520E+02  0.32100750943E+02  0.66941279680E+02  0.00000000000E+00 0. -1.
         -5    1    5    5    0  503  0.78083566260E+02 -0.40677351934E+02 -0.95940899397E+02  0.13030132945E+03  0.47000000000E+01 0.  1.
         13    1    6    6    0    0  0.38007922855E+02  0.16323975854E+02 -0.23475021749E+02  0.47562075581E+02  0.00000000000E+00 0. -1.
        -14    1    6    6    0    0 -0.15396040090E+02  0.10164694673E+02  0.33389973973E+02  0.38147731652E+02  0.00000000000E+00 0.  1.
</event>
<event>
12    1  0.9017558E-003  0.1952174E+03  0.7818608E-02  0.1154014E+00
         21   -1    0    0  503  502  0.00000000000E+00  0.00000000000E+00  0.12990769532E+04  0.12990769532E+04  0.00000000000E+00 0. -1.
         21   -1    0    0  501  503 -0.00000000000E+00 -0.00000000000E+00 -0.63412341270E+02  0.63412341270E+02  0.00000000000E+00 0.  1.
          6    2    1    2  501    0  0.37282124733E+02  0.83786120115E+02  0.11814257337E+03  0.22818304507E+03  0.17233619372E+03 0.  0.
         24    2    3    3    0    0 -0.75069587016E+01  0.77333567204E+02  0.13858038569E+03  0.17830828586E+03  0.80947430228E+02 0.  0.
         -6    2    1    2    0  502 -0.37282124733E+02 -0.83786120115E+02  0.11175220385E+04  0.11343062494E+04  0.17142079809E+03 0.  0.
        -24    2    5    5    0    0  0.13392335798E+02 -0.10950274506E+03  0.69111304769E+03  0.70410168964E+03  0.77147513435E+02 0.  0.
          5    1    3    3  501    0  0.44789083434E+02  0.64525529109E+01 -0.20437812322E+02  0.49874759212E+02  0.47000000000E+01 0. -1.
        -11    1    4    4    0    0 -0.42991449109E+02  0.35991782830E+02  0.85494816236E+02  0.10224009356E+03  0.00000000000E+00 0.  1.
         12    1    4    4    0    0  0.35484490407E+02  0.41341784374E+02  0.53085569458E+02  0.76068192298E+02  0.00000000000E+00 0. -1.
         -5    1    5    5    0  502 -0.50674460531E+02  0.25716624945E+02  0.42640899082E+03  0.43020455971E+03  0.47000000000E+01 0.  1.
         11    1    6    6    0    0  0.18373669659E+01 -0.13753314363E+01  0.24201270209E+03  0.24202358445E+03  0.00000000000E+00 0. -1.
        -12    1    6    6    0    0  0.11554968832E+02 -0.10812741362E+03  0.44910034560E+03  0.46207810520E+03  0.00000000000E+00 0.  1.
</event>
<event>
12    1  0.9017558E-003  0.1999506E+03  0.7818608E-02  0.1149915E+00
         21   -1    0    0  501  502  0.00000000000E+00  0.00000000000E+00  0.16876048002E+03  0.16876048002E+03  0.00000000000E+00 0.  1.
         21   -1    0    0  502  503 -0.00000000000E+00 -0.00000000000E+00 -0.27747955108E+03  0.27747955108E+03  0.00000000000E+00 0.  1.
          6    2    1    2  501    0 -0.10347955627E+03 -0.54438415616E-02  0.31821446465E+02  0.20183896334E+03  0.17034771520E+03 0.  0.
         24    2    3    3    0    0 -0.70696669203E+00 -0.16898724775E+01 -0.23376102535E+02  0.85074662791E+02  0.81779585523E+02 0.  0.
         -6    2    1    2    0  503  0.10347955627E+03  0.54438415616E-02 -0.14054051752E+03  0.24440106776E+03  0.17109128049E+03 0.  0.
        -24    2    5    5    0    0  0.13545033313E+03 -0.60493440595E+01 -0.84434553248E+02  0.17937214914E+03  0.81619769643E+02 0.  0.
          5    1    3    3  501    0 -0.10277258957E+03  0.16844286360E+01  0.55197549001E+02  0.11676430055E+03  0.47000000000E+01 0. -1.
        -13    1    4    4    0    0 -0.39742783641E+02 -0.10201241095E+01 -0.36751492573E+00  0.39757572510E+02  0.00000000000E+00 0.  1.
         14    1    4    4    0    0  0.39035816949E+02 -0.66974836801E+00 -0.23008587610E+02  0.45317090281E+02  0.00000000000E+00 0. -1.
         -5    1    5    5    0  503 -0.31970776862E+02  0.60547879011E+01 -0.56105964273E+02  0.65028918618E+02  0.47000000000E+01 0.  1.
         11    1    6    6    0    0  0.88541382396E+01  0.17184774651E+02 -0.37831214274E+02  0.42484267879E+02  0.00000000000E+00 0. -1.
        -12    1    6    6    0    0  0.12659619489E+03 -0.23234118710E+02 -0.46603338974E+02  0.13688788126E+03  0.00000000000E+00 0.  1.
</event>
<event>
12    1  0.9017558E-003  0.2419968E+03  0.7818608E-02  0.1118560E+00
         21   -1    0    0  501  502  0.00000000000E+00  0.00000000000E+00  0.13663323519E+03  0.13663323519E+03  0.00000000000E+00 0. -1.
         21   -1    0    0  502  503 -0.00000000000E+00 -0.00000000000E+00 -0.43207913073E+03  0.43207913073E+03  0.00000000000E+00 0.  1.
          6    2    1    2  501    0  0.52324450142E+02  0.16089166211E+03 -0.11872319618E+03  0.26905694952E+03  0.17225698753E+03 0.  0.
         24    2    3    3    0    0 -0.29070557822E+02  0.12764718780E+03 -0.80937215345E+02  0.17324352279E+03  0.79520962485E+02 0.  0.
         -6    2    1    2    0  503 -0.52324450142E+02 -0.16089166211E+03 -0.17672269937E+03  0.29965541640E+03  0.17302739982E+03 0.  0.
        -24    2    5    5    0    0  0.41975638643E+02 -0.94508823564E+02 -0.53318682699E+02  0.13068846896E+03  0.59520769675E+02 0.  0.
          5    1    3    3  501    0  0.81395007964E+02  0.33244474309E+02 -0.37785980835E+02  0.95813426727E+02  0.47000000000E+01 0. -1.
        -11    1    4    4    0    0 -0.12187998952E+02 -0.91970392068E+01 -0.90042590420E+01  0.17725956378E+02  0.00000000000E+00 0.  1.
         12    1    4    4    0    0 -0.16882558870E+02  0.13684422701E+03 -0.71932956303E+02  0.15551756641E+03  0.00000000000E+00 0. -1.
         -5    1    5    5    0  503 -0.94300088785E+02 -0.66382838548E+02 -0.12340401667E+03  0.16896694744E+03  0.47000000000E+01 0.  1.
         11    1    6    6    0    0  0.25876477357E+02 -0.88964201716E+01  0.20969715931E+01  0.27443317258E+02  0.00000000000E+00 0. -1.
        -12    1    6    6    0    0  0.16099161286E+02 -0.85612403392E+02 -0.55415654292E+02  0.10324515170E+03  0.00000000000E+00 0.  1.
</event>
<event>
12    1  0.9017558E-003  0.2043887E+03  0.7818608E-02  0.1147060E+00
         21   -1    0    0  501  502  0.00000000000E+00  0.00000000000E+00  0.10460179545E+03  0.10460179545E+03  0.00000000000E+00 0. -1.
         21   -1    0    0  502  503 -0.00000000000E+00 -0.00000000000E+00 -0.43384383742E+03  0.43384383742E+03  0.00000000000E+00 0. -1.
          6    2    1    2  501    0 -0.53911824006E+02 -0.82992293695E+02 -0.25164783597E+03  0.32419344361E+03  0.17883106540E+03 0.  0.
         24    2    3    3    0    0  0.19150101875E+02 -0.61014100626E+02 -0.61683073858E+02  0.11942580254E+03  0.79801465121E+02 0.  0.
         -6    2    1    2    0  503  0.53911824006E+02  0.82992293695E+02 -0.77594206008E+02  0.21425218926E+03  0.17346162174E+03 0.  0.
        -24    2    5    5    0    0 -0.57667143762E+01  0.10135507091E+03 -0.22342570807E+02  0.13074438889E+03  0.79301950565E+02 0.  0.
          5    1    3    3  501    0 -0.73061925881E+02 -0.21978193069E+02 -0.18996476211E+03  0.20476764106E+03  0.47000000000E+01 0. -1.
        -11    1    4    4    0    0  0.62888400949E+01  0.18149062521E+02 -0.17154086204E+01  0.19284206151E+02  0.00000000000E+00 0.  1.
         12    1    4    4    0    0  0.12861261780E+02 -0.79163163147E+02 -0.59967665238E+02  0.10014159639E+03  0.00000000000E+00 0. -1.
         -5    1    5    5    0  503  0.59678538382E+02 -0.18362777211E+02 -0.55251635201E+02  0.83507800370E+02  0.47000000000E+01 0.  1.
         13    1    6    6    0    0  0.53518679683E+01  0.44668183441E+02  0.28945245501E+02  0.53495012289E+02  0.00000000000E+00 0. -1.
        -14    1    6    6    0    0 -0.11118582345E+02  0.56686887464E+02 -0.51287816309E+02  0.77249376602E+02  0.00000000000E+00 0.  1.
</event>
<event>
12    1  0.9017558E-003  0.2748067E+03  0.7818608E-02  0.1098597E+00
         21   -1    0    0  501  502  0.00000000000E+00  0.00000000000E+00  0.43061352178E+03  0.43061352178E+03  0.00000000000E+00 0.  1.
         21   -1    0    0  502  503 -0.00000000000E+00 -0.00000000000E+00 -0.18035096381E+03  0.18035096381E+03  0.00000000000E+00 0.  1.
          6    2    1    2  501    0 -0.11748192991E+03 -0.17884129836E+03  0.17678866020E+03  0.32676127228E+03  0.17243110169E+03 0.  0.
         24    2    3    3    0    0 -0.12534762331E+03 -0.13470138702E+03  0.19424469948E+03  0.27841870084E+03  0.77003112711E+02 0.  0.
         -6    2    1    2    0  503  0.11748192991E+03  0.17884129836E+03  0.73473897769E+02  0.28420321332E+03  0.17200825257E+03 0.  0.
        -24    2    5    5    0    0  0.85559991469E+02  0.41504171298E+02  0.65027701044E+02  0.14287407668E+03  0.84506162550E+02 0.  0.
          5    1    3    3  501    0  0.78656934026E+01 -0.44139911340E+02 -0.17456039279E+02  0.48342571437E+02  0.47000000000E+01 0. -1.
        -11    1    4    4    0    0 -0.13243398904E+02 -0.18084071638E+02 -0.37703035056E+01  0.22729638142E+02  0.00000000000E+00 0.  1.
         12    1    4    4    0    0 -0.11210422441E+03 -0.11661731538E+03  0.19801500298E+03  0.25568906270E+03  0.00000000000E+00 0. -1.
         -5    1    5    5    0  503  0.31921938442E+02  0.13733712706E+03  0.84461967257E+01  0.14132913664E+03  0.47000000000E+01 0.  1.
         11    1    6    6    0    0  0.18207607976E+01 -0.19413899863E+02  0.25344827488E+02  0.31977725969E+02  0.00000000000E+00 0. -1.
        -12    1    6    6    0    0  0.83739230671E+02  0.60918071161E+02  0.39682873555E+02  0.11089635071E+03  0.00000000000E+00 0.  1.
</event>
<event>
12    1  0.9017558E-003  0.2371055E+03  0.7818608E-02  0.1122196E+00
         21   -1    0    0  501  502  0.00000000000E+00  0.00000000000E+00  0.11576191860E+04  0.11576191860E+04  0.00000000000E+00 0.  1.
         21   -1    0    0  502  503 -0.00000000000E+00 -0.00000000000E+00 -0.49537948077E+02  0.49537948077E+02  0.00000000000E+00 0.  1.
          6    2    1    2  501    0 -0.73388031000E+02 -0.14189431151E+03  0.65685844433E+03  0.69743068728E+03  0.17154226575E+03 0.  0.
         24    2    3    3    0    0  0.16438531275E+02 -0.68329000178E+02  0.18364323033E+03  0.21015725779E+03  0.74176541990E+02 0.  0.
         -6    2    1    2    0  503  0.73388031000E+02  0.14189431151E+03  0.45122279358E+03  0.50972644678E+03  0.17521199266E+03 0.  0.
        -24    2    5    5    0    0 -0.16913955678E+02  0.10275732308E+03  0.34587957330E+03  0.36548554856E+03  0.55694323199E+02 0.  0.
          5    1    3    3  501    0 -0.89826562276E+02 -0.73565311333E+02  0.47321521400E+03  0.48727342948E+03  0.47000000000E+01 0. -1.
        -11    1    4    4    0    0  0.15082983153E+02 -0.46924329252E+01  0.11677377310E+03  0.11783730051E+03  0.00000000000E+00 0.  1.
         12    1    4    4    0    0  0.13555481226E+01 -0.63636567252E+02  0.66869457227E+02  0.92319957280E+02  0.00000000000E+00 0. -1.
         -5    1    5    5    0  503  0.90301986678E+02  0.39136988431E+02  0.10534322028E+03  0.14424089822E+03  0.47000000000E+01 0.  1.
         13    1    6    6    0    0 -0.34243141051E+02  0.40169209290E+02  0.14080275239E+03  0.15037145063E+03  0.00000000000E+00 0. -1.
        -14    1    6    6    0    0  0.17329185373E+02  0.62588113790E+02  0.20507682091E+03  0.21511409793E+03  0.00000000000E+00 0.  1.
</event>
<event>
12    1  0.9017558E-003  0.1858016E+03  0.7818608E-02  0.1162398E+00
         21   -1    0    0  501  502  0.00000000000E+00  0.00000000000E+00  0.48502908325E+03  0.48502908325E+03  0.00000000000E+00 0. -1.
         21   -1    0    0  502  503 -0.00000000000E+00 -0.00000000000E+00 -0.88865444901E+02  0.88865444901E+02  0.00000000000E+00 0.  1.
          6    2    1    2  501    0  0.25821826870E+02 -0.63029584249E+02  0.69319622032E+02  0.19793012178E+03  0.17242861675E+03 0.  0.
         24    2    3    3    0    0 -0.38846391188E+01 -0.79808327535E+02  0.94755618693E+02  0.15511563505E+03  0.93261853926E+02 0.  0.
         -6    2    1    2    0  503 -0.25821826870E+02  0.63029584249E+02  0.32684401632E+03  0.37596440637E+03  0.17286621596E+03 0.  0.
        -24    2    5    5    0    0  0.46954606135E+01  0.56499207186E+02  0.33139908499E+03  0.34407727244E+03  0.73141015247E+02 0.  0.
          5    1    3    3  501    0  0.29706465989E+02  0.16778743287E+02 -0.25435996661E+02  0.42814486731E+02  0.47000000000E+01 0. -1.
        -11    1    4    4    0    0 -0.21915211960E+02 -0.90177355276E+02  0.49202510228E+02  0.10503865447E+03  0.00000000000E+00 0.  1.
         12    1    4    4    0    0  0.18030572841E+02  0.10369027740E+02  0.45553108465E+02  0.50076980581E+02  0.00000000000E+00 0. -1.
         -5    1    5    5    0  503 -0.30517287484E+02  0.65303770626E+01 -0.45550686729E+01  0.31887133935E+02  0.47000000000E+01 0.  1.
         11    1    6    6    0    0 -0.99802015682E+01  0.68143366462E+02  0.20408462679E+03  0.21539187011E+03  0.00000000000E+00 0. -1.
        -12    1    6    6    0    0  0.14675662182E+02 -0.11644159276E+02  0.12731445820E+03  0.12868540233E+03  0.00000000000E+00 0.  1.
</event>
<event>
12    1  0.9017558E-003  0.2027268E+03  0.7818608E-02  0.1147811E+00
         21   -1    0    0  501  502  0.00000000000E+00  0.00000000000E+00  0.39942121266E+03  0.39942121266E+03  0.00000000000E+00 0.  1.
         21   -1    0    0  502  503 -0.00000000000E+00 -0.00000000000E+00 -0.10329457492E+03  0.10329457492E+03  0.00000000000E+00 0.  1.
          6    2    1    2  501    0 -0.99882121478E+01  0.10443301335E+03  0.17642614243E+03  0.26874584894E+03  0.17347083021E+03 0.  0.
         24    2    3    3    0    0  0.58755048822E+01  0.88221535222E+02  0.20107332432E+03  0.23492214252E+03  0.83308885841E+02 0.  0.
         -6    2    1    2    0  503  0.99882121478E+01 -0.10443301335E+03  0.11970049531E+03  0.23396993864E+03  0.17148674862E+03 0.  0.
        -24    2    5    5    0    0 -0.65655054534E+01 -0.13503021941E+03  0.12206710043E+03  0.19878605875E+03  0.79619433116E+02 0.  0.
          5    1    3    3  501    0 -0.15863717030E+02  0.16211478128E+02 -0.24647181888E+02  0.33823706422E+02  0.47000000000E+01 0. -1.
        -11    1    4    4    0    0  0.25569507465E+02  0.16096438736E+02  0.12366601064E+03  0.12730348479E+03  0.00000000000E+00 0.  1.
         12    1    4    4    0    0 -0.19694002583E+02  0.72125096486E+02  0.77407313672E+02  0.10761865773E+03  0.00000000000E+00 0. -1.
         -5    1    5    5    0  503  0.16553717601E+02  0.30597206056E+02 -0.23666051143E+01  0.35183879897E+02  0.47000000000E+01 0.  1.
         13    1    6    6    0    0 -0.15621145738E+02 -0.69540710747E+00 -0.19202311991E+01  0.15754081156E+02  0.00000000000E+00 0. -1.
        -14    1    6    6    0    0  0.90556402843E+01 -0.13433481230E+03  0.12398733163E+03  0.18303197759E+03  0.00000000000E+00 0.  1.
</event>
<event>
12    1  0.9017558E-003  0.1884443E+03  0.7818608E-02  0.1160870E+00
         21   -1    0    0  503  502  0.00000000000E+00  0.00000000000E+00  0.13784470790E+04  0.13784470790E+04  0.00000000000E+00 0. -1.
         21   -1    0    0  501  503 -0.00000000000E+00 -0.00000000000E+00 -0.73449978113E+02  0.73449978113E+02  0.00000000000E+00 0.  1.
          6    2    1    2  501    0 -0.62111745832E+02  0.37853005022E+02  0.61376640209E+02  0.19408025841E+03  0.16914294481E+03 0.  0.
         24    2    3    3    0    0 -0.50795886349E+02  0.61356994210E+02 -0.14916475429E+02  0.11331383173E+03  0.79199876355E+02 0.  0.
         -6    2    1    2    0  502  0.62111745832E+02 -0.37853005022E+02  0.12436204607E+04  0.12578167987E+04  0.17384053018E+03 0.  0.
        -24    2    5    5    0    0  0.10007855310E+03 -0.52720135641E+02  0.10949393918E+04  0.11035745857E+04  0.78673153142E+02 0.  0.
          5    1    3    3  501    0 -0.11315859484E+02 -0.23503989188E+02  0.76293115638E+02  0.80766426672E+02  0.47000000000E+01 0. -1.
        -13    1    4    4    0    0 -0.30145517367E+02 -0.73044574350E+01 -0.26361271555E+02  0.40706559100E+02  0.00000000000E+00 0.  1.
         14    1    4    4    0    0 -0.20650368981E+02  0.68661451645E+02  0.11444796126E+02  0.72607272634E+02  0.00000000000E+00 0. -1.
         -5    1    5    5    0  502 -0.37966807263E+02  0.14867130619E+02  0.14868106889E+03  0.15424221301E+03  0.47000000000E+01 0.  1.
         11    1    6    6    0    0  0.93157653799E+02 -0.41014598668E+02  0.60919897995E+03  0.61764386416E+03  0.00000000000E+00 0. -1.
        -12    1    6    6    0    0  0.69208992970E+01 -0.11705536973E+02  0.48574041186E+03  0.48593072156E+03  0.00000000000E+00 0.  1.
</event>
<event>
12    1  0.9017558E-003  0.2042687E+03  0.7818608E-02  0.1146218E+00
         21   -1    0    0  503  502  0.00000000000E+00  0.00000000000E+00  0.76488872107E+02  0.76488872107E+02  0.00000000000E+00 0. -1.
         21   -1    0    0  501  503 -0.00000000000E+00 -0.00000000000E+00 -0.54729477270E+03  0.54729477270E+03  0.00000000000E+00 0.  1.
          6    2    1    2  501    0  0.87362318046E+01 -0.11058272428E+03 -0.21578151732E+03  0.29713190232E+03  0.17152505212E+03 0.  0.
         24    2    3    3    0    0 -0.16878966048E+02  0.10368703978E+02 -0.94990061450E+02  0.12422137005E+03  0.77559186983E+02 0.  0.
         -6    2    1    2    0  502 -0.87362318046E+01  0.11058272428E+03 -0.25502438327E+03  0.32665174249E+03  0.17134486906E+03 0.  0.
        -24    2    5    5    0    0 -0.36078873413E+02  0.12601651927E+03 -0.14090278682E+03  0.20819647306E+03  0.79437571877E+02 0.  0.
          5    1    3    3  501    0  0.25615197853E+02 -0.12095142826E+03 -0.12079145587E+03  0.17291053227E+03  0.47000000000E+01 0. -1.
        -13    1    4    4    0    0  0.30921305691E+02  0.50502074566E+00 -0.42302717076E+02  0.52401355551E+02  0.00000000000E+00 0.  1.
         14    1    4    4    0    0 -0.47800271739E+02  0.98636832322E+01 -0.52687344374E+02  0.71820014497E+02  0.00000000000E+00 0. -1.
         -5    1    5    5    0  502  0.27342641609E+02 -0.15433794992E+02 -0.11412159645E+03  0.11845526943E+03  0.47000000000E+01 0.  1.
         11    1    6    6    0    0 -0.10994149470E+02  0.16686790775E+01 -0.52287839228E+02  0.53457216010E+02  0.00000000000E+00 0. -1.
        -12    1    6    6    0    0 -0.25084723943E+02  0.12434784019E+03 -0.88614947594E+02  0.15473925705E+03  0.00000000000E+00 0.  1.
</event>
<event>
12    1  0.9017558E-003  0.1916691E+03  0.7818608E-02  0.1157029E+00
         21   -1    0    0  503  502  0.00000000000E+00  0.00000000000E+00  0.70241032261E+03  0.70241032261E+03  0.00000000000E+00 0.  1.
         21   -1    0    0  501  503 -0.00000000000E+00 -0.00000000000E+00 -0.55403379757E+02  0.55403379757E+02  0.00000000000E+00 0.  1.
          6    2    1    2  501    0 -0.16810776790E+02  0.88005716597E+02  0.23247490151E+03  0.30111483824E+03  0.16910930668E+03 0.  0.
         24    2    3    3    0    0  0.12190861091E+02  0.11679326931E+03  0.21088762659E+03  0.25466143547E+03  0.81176171462E+02 0.  0.
         -6    2    1    2    0  502  0.16810776790E+02 -0.88005716597E+02  0.41453204135E+03  0.45669886413E+03  0.16943857538E+03 0.  0.
        -24    2    5    5    0    0  0.29218185985E+02 -0.12317325922E+03  0.36266877905E+03  0.39264741736E+03  0.81351071803E+02 0.  0.
          5    1    3    3  501    0 -0.29001637881E+02 -0.28787552710E+02  0.21587274915E+02  0.46453402771E+02  0.47000000000E+01 0. -1.
        -11    1    4    4    0    0 -0.11142252880E+02  0.10442350050E+02  0.92763178437E+02  0.94011700056E+02  0.00000000000E+00 0.  1.
         12    1    4    4    0    0  0.23333113971E+02  0.10635091926E+03  0.11812444816E+03  0.16064973541E+03  0.00000000000E+00 0. -1.
         -5    1    5    5    0  502 -0.12407409195E+02  0.35167542626E+02  0.51863262295E+02  0.64051446769E+02  0.47000000000E+01 0.  1.
         13    1    6    6    0    0 -0.23343489178E+02 -0.98675329606E+01  0.69678711715E+02  0.74144518071E+02  0.00000000000E+00 0. -1.
        -14    1    6    6    0    0  0.52561675163E+02 -0.11330572626E+03  0.29299006734E+03  0.31850289929E+03  0.00000000000E+00 0.  1.
</event>
<event>
12    1  0.9017558E-003  0.1749329E+03  0.7818608E-02  0.1172934E+00
         21   -1    0    0  503  502  0.00000000000E+00  0.00000000000E+00  0.13861285941E+03  0.13861285941E+03  0.00000000000E+00 0.  1.
         21   -1    0    0  501  503 -0.00000000000E+00 -0.00000000000E+00 -0.26581137538E+03  0.26581137538E+03  0.00000000000E+00 0.  1.
          6    2    1    2  501    0  0.25091415696E+02 -0.15451408756E+02  0.20341203837E+02  0.17558044383E+03  0.17189067022E+03 0.  0.
         24    2    3    3    0    0 -0.41342424008E+02  0.18343358076E+02 -0.14058262270E+02  0.93355419713E+02  0.80448274335E+02 0.  0.
         -6    2    1    2    0  502 -0.25091415696E+02  0.15451408756E+02 -0.14753971981E+03  0.22884379095E+03  0.17243313650E+03 0.  0.
        -24    2    5    5    0    0 -0.60914890924E+02 -0.38628546866E+02 -0.72892376779E+02  0.12983733258E+03  0.79634450903E+02 0.  0.
          5    1    3    3  501    0  0.66433839703E+02 -0.33794766831E+02  0.34399466107E+02  0.82225024119E+02  0.47000000000E+01 0. -1.
        -11    1    4    4    0    0 -0.42126360680E+00  0.14004922740E+02  0.29974340618E+02  0.33087405753E+02  0.00000000000E+00 0.  1.
         12    1    4    4    0    0 -0.40921160401E+02  0.43384353354E+01 -0.44032602888E+02  0.60268013961E+02  0.00000000000E+00 0. -1.
         -5    1    5    5    0  502  0.35823475228E+02  0.54079955622E+02 -0.74647343031E+02  0.99006458371E+02  0.47000000000E+01 0.  1.
         13    1    6    6    0    0 -0.76487642820E+01 -0.31774892015E+02 -0.68567529768E+02  0.75958235209E+02  0.00000000000E+00 0. -1.
        -14    1    6    6    0    0 -0.53266126642E+02 -0.68536548512E+01 -0.43248470113E+01  0.53879097375E+02  0.00000000000E+00 0.  1.
</event>
<event>
12    1  0.9017558E-003  0.1902852E+03  0.7818608E-02  0.1159696E+00
         21   -1    0    0  501  502  0.00000000000E+00  0.00000000000E+00  0.28427107167E+03  0.28427107167E+03  0.00000000000E+00 0. -1.
         21   -1    0    0  502  503 -0.00000000000E+00 -0.00000000000E+00 -0.13551241424E+03  0.13551241424E+03  0.00000000000E+00 0. -1.
          6    2    1    2  501    0  0.11396472573E+02 -0.64103067229E+02  0.95736402484E+01  0.18402742167E+03  0.17185853056E+03 0.  0.
         24    2    3    3    0    0 -0.41723962518E+02 -0.22301179151E+02 -0.40683297755E+02  0.99664940151E+02  0.77715750909E+02 0.  0.
         -6    2    1    2    0  503 -0.11396472573E+02  0.64103067229E+02  0.13918501718E+03  0.23575606424E+03  0.17879980426E+03 0.  0.
        -24    2    5    5    0    0 -0.48204764753E+02  0.92018769958E+02  0.62978116481E+02  0.14651639511E+03  0.81912499118E+02 0.  0.
          5    1    3    3  501    0  0.53120435091E+02 -0.41801888078E+02  0.50256938003E+02  0.84362481522E+02  0.47000000000E+01 0. -1.
        -11    1    4    4    0    0 -0.40223136705E+02 -0.38564562362E+02 -0.54742710723E+02  0.78114598980E+02  0.00000000000E+00 0.  1.
         12    1    4    4    0    0 -0.15008258129E+01  0.16263383210E+02  0.14059412968E+02  0.21550341171E+02  0.00000000000E+00 0. -1.
         -5    1    5    5    0  503  0.36808292180E+02 -0.27915702729E+02  0.76206900701E+02  0.89239669130E+02  0.47000000000E+01 0.  1.
         11    1    6    6    0    0 -0.44853931501E+02  0.33773033998E+02 -0.56618053121E+01  0.56431808724E+02  0.00000000000E+00 0. -1.
        -12    1    6    6    0    0 -0.33508332525E+01  0.58245735960E+02  0.68639921793E+02  0.90084586388E+02  0.00000000000E+00 0.  1.
</event>
<event>
12    1  0.9017558E-003  0.2553026E+03  0.7818608E-02  0.1110067E+00
         21   -1    0    0  503  502  0.00000000000E+00  0.00000000000E+00  0.14390966167E+03  0.14390966167E+03  0.00000000000E+00 0. -1.
         21   -1    0    0  501  503 -0.00000000000E+00 -0.00000000000E+00 -0.46179609374E+03  0.46179609374E+03  0.00000000000E+00 0. -1.
          6    2    1    2  501    0 -0.14832097647E+03  0.11533168788E+03 -0.20288094551E+03  0.32609830282E+03  0.17285518436E+03 0.  0.
         24    2    3    3    0    0 -0.10121001693E+03  0.18656048708E+01 -0.90553214221E+02  0.15956421106E+03  0.83749058725E+02 0.  0.
         -6    2    1    2    0  502  0.14832097647E+03 -0.11533168788E+03 -0.11500548656E+03  0.27960745259E+03  0.17220207698E+03 0.  0.
        -24    2    5    5    0    0  0.49371840115E+02 -0.10575854509E+03 -0.10914599930E+03  0.17991291794E+03  0.82664142312E+02 0.  0.
          5    1    3    3  501    0 -0.47110959538E+02  0.11346608301E+03 -0.11232773129E+03  0.16653409176E+03  0.47000000000E+01 0. -1.
        -11    1    4    4    0    0 -0.68760864432E+02  0.13215093384E+02 -0.84158730163E+01  0.70523202489E+02  0.00000000000E+00 0.  1.
         12    1    4    4    0    0 -0.32449152495E+02 -0.11349488513E+02 -0.82137341204E+02  0.89041008571E+02  0.00000000000E+00 0. -1.
         -5    1    5    5    0  502  0.98949136351E+02 -0.95731427862E+01 -0.58594872607E+01  0.99694534646E+02  0.47000000000E+01 0.  1.
         11    1    6    6    0    0  0.17691904298E+02 -0.67153461334E+02 -0.11711224093E+02  0.70425447224E+02  0.00000000000E+00 0. -1.
        -12    1    6    6    0    0  0.31679935817E+02 -0.38605083755E+02 -0.97434775208E+02  0.10948747072E+03  0.00000000000E+00 0.  1.
</event>
<event>
12    1  0.9017558E-003  0.1811201E+03  0.7818608E-02  0.1166827E+00
         21   -1    0    0  503  502  0.00000000000E+00  0.00000000000E+00  0.61137576830E+03  0.61137576830E+03  0.00000000000E+00 0.  1.
         21   -1    0    0  501  503 -0.00000000000E+00 -0.00000000000E+00 -0.55884046734E+02  0.55884046734E+02  0.00000000000E+00 0.  1.
          6    2    1    2  501    0 -0.54312538240E+02  0.24688634259E+02  0.20894661994E+03  0.27623807817E+03  0.17055616487E+03 0.  0.
         24    2    3    3    0    0 -0.48651439068E+02  0.57643160234E+02  0.21597574710E+03  0.24174826148E+03  0.78147310570E+02 0.  0.
         -6    2    1    2    0  502  0.54312538240E+02 -0.24688634259E+02  0.34654510162E+03  0.39102173686E+03  0.17101201937E+03 0.  0.
        -24    2    5    5    0    0  0.37793637712E+02  0.20920108834E+02  0.78874367168E+02  0.11895052632E+03  0.77859180007E+02 0.  0.
          5    1    3    3  501    0 -0.56610991729E+01 -0.32954525975E+02 -0.70291271635E+01  0.34489816682E+02  0.47000000000E+01 0. -1.
        -11    1    4    4    0    0 -0.20600019161E+01  0.21205857025E+02  0.15623295108E+03  0.15767899981E+03  0.00000000000E+00 0.  1.
         12    1    4    4    0    0 -0.46591437152E+02  0.36437303209E+02  0.59742796025E+02  0.84069261671E+02  0.00000000000E+00 0. -1.
         -5    1    5    5    0  502  0.16518900529E+02 -0.45608743093E+02  0.26767073446E+03  0.27207121054E+03  0.47000000000E+01 0.  1.
         11    1    6    6    0    0 -0.13566872889E+02 -0.18793030879E+02  0.28747564128E+02  0.36927774004E+02  0.00000000000E+00 0. -1.
        -12    1    6    6    0    0  0.51360510600E+02  0.39713139713E+02  0.50126803039E+02  0.82022752319E+02  0.00000000000E+00 0.  1.
</event>
<event>
12    1  0.9017558E-003  0.1947360E+03  0.7818608E-02  0.1156567E+00
         21   -1    0    0  501  502  0.00000000000E+00  0.00000000000E+00  0.36542317414E+02  0.36542317414E+02  0.00000000000E+00 0.  1.
         21   -1    0    0  502  503 -0.00000000000E+00 -0.00000000000E+00 -0.13314655041E+04  0.13314655041E+04  0.00000000000E+00 0. -1.
          6    2    1    2  501    0 -0.89517027949E+02  0.11261271184E+02 -0.31096509248E+03  0.36690789189E+03  0.17257461537E+03 0.  0.
         24    2    3    3    0    0 -0.12500854387E+03  0.19653658967E+02 -0.19783185570E+03  0.24794865880E+03  0.79546790737E+02 0.  0.
         -6    2    1    2    0  503  0.89517027949E+02 -0.11261271184E+02 -0.98395809421E+03  0.10010999296E+04  0.16089569108E+03 0.  0.
        -24    2    5    5    0    0  0.38588810988E+02  0.49197143305E+02 -0.44808119062E+03  0.45940347499E+03  0.79783107225E+02 0.  0.
          5    1    3    3  501    0  0.35491515924E+02 -0.83923877822E+01 -0.11313323677E+03  0.11895923309E+03  0.47000000000E+01 0. -1.
        -13    1    4    4    0    0 -0.23054533469E+02  0.53690045447E+01  0.13757670042E+01  0.23711399329E+02  0.00000000000E+00 0.  1.
         14    1    4    4    0    0 -0.10195401040E+03  0.14284654422E+02 -0.19920762271E+03  0.22423725947E+03  0.00000000000E+00 0. -1.
         -5    1    5    5    0  503  0.50928216961E+02 -0.60458414490E+02 -0.53587690359E+03  0.54169645463E+03  0.47000000000E+01 0.  1.
         11    1    6    6    0    0  0.62116809989E+02  0.35502900289E+02 -0.36593999622E+03  0.37286865630E+03  0.00000000000E+00 0. -1.
        -12    1    6    6    0    0 -0.23527999000E+02  0.13694243016E+02 -0.82141194398E+02  0.86534818691E+02  0.00000000000E+00 0.  1.
</event>
<event>
12    1  0.9017558E-003  0.2667327E+03  0.7818608E-02  0.1103382E+00
         21   -1    0    0  503  502  0.00000000000E+00  0.00000000000E+00  0.10472459648E+04  0.10472459648E+04  0.00000000000E+00 0. -1.
         21   -1    0    0  501  503 -0.00000000000E+00 -0.00000000000E+00 -0.68269328383E+02  0.68269328383E+02  0.00000000000E+00 0. -1.
          6    2    1    2  501    0  0.12093064548E+03  0.16557282510E+03  0.54786288433E+03  0.60934396278E+03  0.17060991622E+03 0.  0.
         24    2    3    3    0    0  0.72211010748E+02  0.70944304633E+01  0.28377464063E+03  0.29748871617E+03  0.52026229594E+02 0.  0.
         -6    2    1    2    0  502 -0.12093064548E+03 -0.16557282510E+03  0.43111375206E+03  0.50617133038E+03  0.16826100874E+03 0.  0.
        -24    2    5    5    0    0 -0.11282343454E+03 -0.45730919713E+02  0.22105027218E+03  0.26414537158E+03  0.78032750159E+02 0.  0.
          5    1    3    3  501    0  0.48719634732E+02  0.15847839463E+03  0.26408824370E+03  0.31185524660E+03  0.47000000000E+01 0. -1.
        -11    1    4    4    0    0  0.50055881568E+02  0.19253324168E+02  0.24771911572E+03  0.25345816630E+03  0.00000000000E+00 0.  1.
         12    1    4    4    0    0  0.22155129180E+02 -0.12158893705E+02  0.36055524908E+02  0.44030549866E+02  0.00000000000E+00 0. -1.
         -5    1    5    5    0  502 -0.81072109389E+01 -0.11984190538E+03  0.21006347988E+03  0.24202595880E+03  0.47000000000E+01 0.  1.
         13    1    6    6    0    0 -0.88452423392E+02 -0.66278084571E+02  0.18896957755E+03  0.21892034382E+03  0.00000000000E+00 0. -1.
        -14    1    6    6    0    0 -0.24371011150E+02  0.20547164858E+02  0.32080694631E+02  0.45225027763E+02  0.00000000000E+00 0.  1.
</event>
<event>
12    1  0.9017558E-003  0.1834551E+03  0.7818608E-02  0.1165384E+00
         21   -1    0    0  501  502  0.00000000000E+00  0.00000000000E+00  0.90630658628E+03  0.90630658628E+03  0.00000000000E+00 0.  1.
         21   -1    0    0  502  503 -0.00000000000E+00 -0.00000000000E+00 -0.43737481285E+02  0.43737481285E+02  0.00000000000E+00 0. -1.
          6    2    1    2  501    0 -0.40762627561E+02  0.36309601797E+02  0.62963398032E+03  0.65581608463E+03  0.17514510753E+03 0.  0.
         24    2    3    3    0    0 -0.45627200148E+02  0.66596206943E+02  0.60689361373E+03  0.61734327877E+03  0.79221015420E+02 0.  0.
         -6    2    1    2    0  503  0.40762627561E+02 -0.36309601797E+02  0.23293512467E+03  0.29422798294E+03  0.17126399111E+03 0.  0.
        -24    2    5    5    0    0  0.10401968785E+02 -0.25358868865E+02  0.24527437439E+03  0.25935628616E+03  0.79717571771E+02 0.  0.
          5    1    3    3  501    0  0.48645725870E+01 -0.30286605146E+02  0.22740366592E+02  0.38472805857E+02  0.47000000000E+01 0. -1.
        -11    1    4    4    0    0 -0.44804036957E+02  0.15619949986E+02  0.14322218880E+03  0.15087736719E+03  0.00000000000E+00 0.  1.
         12    1    4    4    0    0 -0.82316319147E+00  0.50976256957E+02  0.46367142493E+03  0.46646591158E+03  0.00000000000E+00 0. -1.
         -5    1    5    5    0  503  0.30360658776E+02 -0.10950732931E+02 -0.12339249719E+02  0.34871696785E+02  0.47000000000E+01 0.  1.
         11    1    6    6    0    0  0.31250428289E+02 -0.11114499978E+01  0.36136603907E+02  0.47787851294E+02  0.00000000000E+00 0. -1.
        -12    1    6    6    0    0 -0.20848459504E+02 -0.24247418868E+02  0.20913777049E+03  0.21156843486E+03  0.00000000000E+00 0.  1.
</event>
<event>
12    1  0.9017558E-003  0.1860207E+03  0.7818608E-02  0.1162564E+00
         21   -1    0    0  503  502  0.00000000000E+00  0.00000000000E+00  0.14865479133E+03  0.14865479133E+03  0.00000000000E+00 0.  1.
         21   -1    0    0  501  503 -0.00000000000E+00 -0.00000000000E+00 -0.23365017800E+03  0.23365017800E+03  0.00000000000E+00 0.  1.
          6    2    1    2  501    0 -0.61072736525E+02  0.23439474753E+02 -0.65166951710E+02  0.19523052008E+03  0.17201434897E+03 0.  0.
         24    2    3    3    0    0 -0.88789485048E+02  0.62746651398E+02 -0.54282781171E+02  0.14569439737E+03  0.80371152637E+02 0.  0.
         -6    2    1    2    0  502  0.61072736525E+02 -0.23439474753E+02 -0.19828434963E+02  0.18707444926E+03  0.17413900944E+03 0.  0.
        -24    2    5    5    0    0 -0.11705849370E+02 -0.37958398259E+02  0.34677332733E+02  0.94876345065E+02  0.78874181704E+02 0.  0.
          5    1    3    3  501    0  0.27716748524E+02 -0.39307176645E+02 -0.10884170539E+02  0.49536122707E+02  0.47000000000E+01 0. -1.
        -11    1    4    4    0    0 -0.74053807388E+02  0.39032595762E+02  0.10493581503E+01  0.83717447841E+02  0.00000000000E+00 0.  1.
         12    1    4    4    0    0 -0.14735677660E+02  0.23714055636E+02 -0.55332139322E+02  0.61976949527E+02  0.00000000000E+00 0. -1.
         -5    1    5    5    0  502  0.72778585895E+02  0.14518923506E+02 -0.54505767696E+02  0.92198104193E+02  0.47000000000E+01 0.  1.
         11    1    6    6    0    0 -0.34283658179E+02 -0.29960780423E+02 -0.77205539507E+01  0.46180347930E+02  0.00000000000E+00 0. -1.
        -12    1    6    6    0    0  0.22577808809E+02 -0.79976178364E+01  0.42397886684E+02  0.48695997134E+02  0.00000000000E+00 0.  1.
</event>
<event>
12    1  0.9017558E-003  0.1840682E+03  0.7818608E-02  0.1164276E+00
         21   -1    0    0  501  502  0.00000000000E+00  0.00000000000E+00  0.24685797480E+03  0.24685797480E+03  0.00000000000E+00 0. -1.
         21   -1    0    0  502  503 -0.00000000000E+00 -0.00000000000E+00 -0.17619343693E+03  0.17619343693E+03  0.00000000000E+00 0. -1.
          6    2    1    2  501    0  0.20998358339E+02 -0.59318310343E+02  0.13630044982E+03  0.22903907790E+03  0.17297830381E+03 0.  0.
         24    2    3    3    0    0  0.41126357087E+02 -0.10191048514E+03  0.83706942862E+02  0.15827611682E+03  0.77248641694E+02 0.  0.
         -6    2    1    2    0  503 -0.20998358339E+02  0.59318310343E+02 -0.65635911948E+02  0.19401233382E+03  0.17138587965E+03 0.  0.
        -24    2    5    5    0    0 -0.46799611051E+02  0.31218019316E+01 -0.88074341114E+02  0.12806291910E+03  0.80268751355E+02 0.  0.
          5    1    3    3  501    0 -0.20127998748E+02  0.42592174793E+02  0.52593506962E+02  0.70762961087E+02  0.47000000000E+01 0. -1.
        -13    1    4    4    0    0  0.48877612102E+02 -0.42177897698E+02  0.13835268897E+02  0.66025833463E+02  0.00000000000E+00 0.  1.
         14    1    4    4    0    0 -0.77512550143E+01 -0.59732587438E+02  0.69871673966E+02  0.92250283355E+02  0.00000000000E+00 0. -1.
         -5    1    5    5    0  503  0.25801252712E+02  0.56196508411E+02  0.22438429165E+02  0.65949414724E+02  0.47000000000E+01 0.  1.
         11    1    6    6    0    0 -0.64761629480E+02  0.52688211376E+01 -0.88711730149E+02  0.10996181244E+03  0.00000000000E+00 0. -1.
        -12    1    6    6    0    0  0.17962018430E+02 -0.21470192060E+01  0.63738903504E+00  0.18101106660E+02  0.00000000000E+00 0.  1.
</event>
<event>
12    1  0.9017558E-003  0.1825336E+03  0.7818608E-02  0.1165611E+00
         21   -1    0    0  503  502  0.00000000000E+00  0.00000000000E+00  0.12260194430E+04  0.12260194430E+04  0.00000000000E+00 0. -1.
         21   -1    0    0  501  503 -0.00000000000E+00 -0.00000000000E+00 -0.27365736462E+02  0.27365736462E+02  0.00000000000E+00 0. -1.
          6    2    1    2  501    0  0.19616914138E+02  0.58857813908E+02  0.66734405293E+03  0.69159476228E+03  0.17060528905E+03 0.  0.
         24    2    3    3    0    0 -0.43602326473E+02  0.70236528894E+02  0.40927604293E+03  0.42561104976E+03  0.82483655957E+02 0.  0.
         -6    2    1    2    0  502 -0.19616914138E+02 -0.58857813908E+02  0.53130965364E+03  0.56179041722E+03  0.17166670978E+03 0.  0.
        -24    2    5    5    0    0  0.54078546549E+02 -0.34914513165E+02  0.25255288874E+03  0.27242606808E+03  0.79306295646E+02 0.  0.
          5    1    3    3  501    0  0.63219240610E+02 -0.11378714985E+02  0.25806801000E+03  0.26598371252E+03  0.47000000000E+01 0. -1.
        -13    1    4    4    0    0  0.14430541554E+02  0.10713638724E+02  0.17404170560E+02  0.25018547862E+02  0.00000000000E+00 0.  1.
         14    1    4    4    0    0 -0.58032868026E+02  0.59522890170E+02  0.39187187237E+03  0.40059250190E+03  0.00000000000E+00 0. -1.
         -5    1    5    5    0  502 -0.73695460686E+02 -0.23943300744E+02  0.27875676490E+03  0.28936434914E+03  0.47000000000E+01 0.  1.
         11    1    6    6    0    0 -0.92365887847E+01 -0.37340043183E+02  0.10595975423E+03  0.11272560896E+03  0.00000000000E+00 0. -1.
        -12    1    6    6    0    0  0.63315135333E+02  0.24255300181E+01  0.14659313451E+03  0.15970045912E+03  0.00000000000E+00 0.  1.
</event>
<event>
12    1  0.9017558E-003  0.2085703E+03  0.7818608E-02  0.1143698E+00
         21   -1    0    0  501  502  0.00000000000E+00  0.00000000000E+00  0.15146327444E+04  0.15146327444E+04  0.00000000000E+00 0.  1.
         21   -1    0    0  502  503 -0.00000000000E+00 -0.00000000000E+00 -0.33264237756E+02  0.33264237756E+02  0.00000000000E+00 0.  1.
          6    2    1    2  501    0 -0.49329922004E+02  0.10784287796E+03  0.10546112992E+04  0.10750379349E+04  0.17157517746E+03 0.  0.
         24    2    3    3    0    0 -0.25251773275E+02  0.12004606866E+03  0.10250068861E+04  0.10346995365E+04  0.70109226575E+02 0.  0.
         -6    2    1    2    0  503  0.49329922004E+02 -0.10784287796E+03  0.42675720746E+03  0.47285904728E+03  0.16556097652E+03 0.  0.
        -24    2    5    5    0    0 -0.69399942129E+01  0.11228665552E+02  0.11525611686E+03  0.13462930969E+03  0.68314215978E+02 0.  0.
          5    1    3    3  501    0 -0.24078148730E+02 -0.12203190696E+02  0.29604413134E+02  0.40338398412E+02  0.47000000000E+01 0. -1.
        -13    1    4    4    0    0  0.10039327037E+02  0.14059653505E+02  0.42716473760E+02  0.46077750320E+02  0.00000000000E+00 0.  1.
         14    1    4    4    0    0 -0.35291100311E+02  0.10598641515E+03  0.98229041234E+03  0.98862178619E+03  0.00000000000E+00 0. -1.
         -5    1    5    5    0  503  0.56269916217E+02 -0.11907154351E+03  0.31150109060E+03  0.33822973759E+03  0.47000000000E+01 0.  1.
         13    1    6    6    0    0  0.26710391461E+02  0.25754838541E+01  0.20696727587E+02  0.33888532897E+02  0.00000000000E+00 0. -1.
        -14    1    6    6    0    0 -0.33650385674E+02  0.86531816976E+01  0.94559389273E+02  0.10074077680E+03  0.00000000000E+00 0.  1.
</event>
<event>
12    1  0.9017558E-003  0.2199492E+03  0.7818608E-02  0.1134262E+00
         21   -1    0    0  503  502  0.00000000000E+00  0.00000000000E+00  0.43639691321E+03  0.43639691321E+03  0.00000000000E+00 0.  1.
         21   -1    0    0  501  503 -0.00000000000E+00 -0.00000000000E+00 -0.11311749420E+03  0.11311749420E+03  0.00000000000E+00 0.  1.
          6    2    1    2  501    0 -0.11528368778E+03  0.67976601559E+02  0.11624306825E+03  0.24877719941E+03  0.17454654681E+03 0.  0.
         24    2    3    3    0    0 -0.24919398512E+02  0.83269928177E+02  0.10219880414E+03  0.15593905009E+03  0.79482919016E+02 0.  0.
         -6    2    1    2    0  502  0.11528368778E+03 -0.67976601559E+02  0.20703635076E+03  0.30073720800E+03  0.17224305707E+03 0.  0.
        -24    2    5    5    0    0  0.53563418912E+02  0.24620712760E+02  0.97583718882E+02  0.14457824145E+03  0.88910440147E+02 0.  0.
          5    1    3    3  501    0 -0.90364289267E+02 -0.15293326618E+02  0.14044264109E+02  0.92838149315E+02  0.47000000000E+01 0. -1.
        -13    1    4    4    0    0 -0.27928902947E+02  0.25273875256E+02  0.88628423034E+02  0.96300517962E+02  0.00000000000E+00 0.  1.
         14    1    4    4    0    0  0.30095044344E+01  0.57996052921E+02  0.13570381107E+02  0.59638532131E+02  0.00000000000E+00 0. -1.
         -5    1    5    5    0  502  0.61720268867E+02 -0.92597314319E+02  0.10945263188E+03  0.15615896655E+03  0.47000000000E+01 0.  1.
         13    1    6    6    0    0 -0.20842743528E+02  0.82106739821E+01  0.22169618115E+01  0.22511109362E+02  0.00000000000E+00 0. -1.
        -14    1    6    6    0    0  0.74406162440E+02  0.16410038778E+02  0.95366757070E+02  0.12206713209E+03  0.00000000000E+00 0.  1.
</event>
<event>
12    1  0.9017558E-003  0.2094116E+03  0.7818608E-02  0.1142845E+00
         21   -1    0    0  501  502  0.00000000000E+00  0.00000000000E+00  0.17608682072E+02  0.17608682072E+02  0.00000000000E+00 0.  1.
         21   -1    0    0  502  503 -0.00000000000E+00 -0.00000000000E+00 -0.26287589324E+04  0.26287589324E+04  0.00000000000E+00 0.  1.
          6    2    1    2  501    0 -0.11373543012E+03 -0.93188265689E+00 -0.94161736940E+03  0.96375260916E+03  0.17099475092E+03 0.  0.
         24    2    3    3    0    0 -0.89257329439E+02 -0.60686171508E+02 -0.49144615927E+03  0.50894939801E+03  0.76553771932E+02 0.  0.
         -6    2    1    2    0  503  0.11373543012E+03  0.93188265689E+00 -0.16695328810E+04  0.16826150053E+04  0.17583116655E+03 0.  0.
        -24    2    5    5    0    0  0.12807706689E+02 -0.51813601025E+02 -0.69607506944E+03  0.70250751521E+03  0.78406760097E+02 0.  0.
          5    1    3    3  501    0 -0.24478100680E+02  0.59754288852E+02 -0.45017121013E+03  0.45480321115E+03  0.47000000000E+01 0. -1.
        -13    1    4    4    0    0 -0.27699991873E+02  0.13735145379E+02 -0.69110887244E+02  0.75711680102E+02  0.00000000000E+00 0.  1.
         14    1    4    4    0    0 -0.61557337566E+02 -0.74421316887E+02 -0.42233527203E+03  0.43323771790E+03  0.00000000000E+00 0. -1.
         -5    1    5    5    0  503  0.10092772343E+03  0.52745483682E+02 -0.97345781152E+03  0.98010749013E+03  0.47000000000E+01 0.  1.
         11    1    6    6    0    0 -0.16891229284E+02 -0.16948938716E+02 -0.57339840398E+02  0.62132418649E+02  0.00000000000E+00 0. -1.
        -12    1    6    6    0    0  0.29698935974E+02 -0.34864662309E+02 -0.63873522904E+03  0.64037509656E+03  0.00000000000E+00 0.  1.
</event>
<event>
12    1  0.9017558E-003  0.1947016E+03  0.7818608E-02  0.1154311E+00
         21   -1    0    0  503  502  0.00000000000E+00  0.00000000000E+00  0.55555754760E+03  0.55555754760E+03  0.00000000000E+00 0.  1.
         21   -1    0    0  501  503 -0.00000000000E+00 -0.00000000000E+00 -0.68352013546E+02  0.68352013546E+02  0.00000000000E+00 0.  1.
          6    2    1    2  501    0 -0.72144539375E+02  0.52907523233E+02  0.22870934937E+03  0.30029097565E+03  0.17280816819E+03 0.  0.
         24    2    3    3    0    0 -0.10282969055E+03 -0.13108297018E+01  0.13377898946E+03  0.18664647939E+03  0.79777357171E+02 0.  0.
         -6    2    1    2    0  502  0.72144539375E+02 -0.52907523233E+02  0.25849618469E+03  0.32361858549E+03  0.17292967011E+03 0.  0.
        -24    2    5    5    0    0  0.59287141434E+02 -0.72018315204E+02  0.27044862475E+03  0.29724651931E+03  0.80693443029E+02 0.  0.
          5    1    3    3  501    0  0.30685151170E+02  0.54218352934E+02  0.94930359908E+02  0.11364449626E+03  0.47000000000E+01 0. -1.
        -13    1    4    4    0    0 -0.59205034541E+02 -0.30494542239E+02  0.36082115070E+02  0.75743463409E+02  0.00000000000E+00 0.  1.
         14    1    4    4    0    0 -0.43624656005E+02  0.29183712537E+02  0.97696874389E+02  0.11090301598E+03  0.00000000000E+00 0. -1.
         -5    1    5    5    0  502  0.12857397941E+02  0.19110791971E+02 -0.11952440061E+02  0.26372066187E+02  0.47000000000E+01 0.  1.
         11    1    6    6    0    0 -0.41634540428E+01 -0.31256577010E+02  0.24315930611E+02  0.39819247073E+02  0.00000000000E+00 0. -1.
        -12    1    6    6    0    0  0.63450595477E+02 -0.40761738193E+02  0.24613269414E+03  0.25742727223E+03  0.00000000000E+00 0.  1.
</event>
<event>
12    1  0.9017558E-003  0.1895436E+03  0.7818608E-02  0.1158987E+00
         21   -1    0    0  503  502  0.00000000000E+00  0.00000000000E+00  0.50965071008E+03  0.50965071008E+03  0.00000000000E+00 0. -1.
         21   -1    0    0  501  503 -0.00000000000E+00 -0.00000000000E+00 -0.72970357335E+02  0.72970357335E+02  0.00000000000E+00 0.  1.
          6    2    1    2  501    0  0.79089059378E+02  0.61770802397E+01  0.27427298005E+03  0.33339535465E+03  0.17214400740E+03 0.  0.
         24    2    3    3    0    0  0.11416551600E+03 -0.22522741120E+02  0.22906213521E+03  0.26920697527E+03  0.80385911944E+02 0.  0.
         -6    2    1    2    0  502 -0.79089059378E+02 -0.61770802397E+01  0.16240737270E+03  0.24922571277E+03  0.17159273168E+03 0.  0.
        -24    2    5    5    0    0 -0.54033048882E+02 -0.68840986512E+02  0.12576102299E+03  0.17228668653E+03  0.78792230944E+02 0.  0.
          5    1    3    3  501    0 -0.35076456624E+02  0.28699821359E+02  0.45210844841E+02  0.64188379373E+02  0.47000000000E+01 0. -1.
        -11    1    4    4    0    0  0.11066197621E+03 -0.42915164356E+02  0.17628394675E+03  0.21251779735E+03  0.00000000000E+00 0.  1.
         12    1    4    4    0    0  0.35035397934E+01  0.20392423236E+02  0.52778188458E+02  0.56689177922E+02  0.00000000000E+00 0. -1.
         -5    1    5    5    0  502 -0.25056010496E+02  0.62663906272E+02  0.36646349708E+02  0.76939026237E+02  0.47000000000E+01 0.  1.
         13    1    6    6    0    0 -0.56325505226E+02 -0.17967723361E+02  0.97556087426E+02  0.11407274791E+03  0.00000000000E+00 0. -1.
        -14    1    6    6    0    0  0.22924563439E+01 -0.50873263151E+02  0.28204935563E+02  0.58213938622E+02  0.00000000000E+00 0.  1.
</event>
<event>
12    1  0.9017558E-003  0.2139283E+03  0.7818608E-02  0.1140102E+00
         21   -1    0    0  503  502  0.00000000000E+00  0.00000000000E+00  0.16582337193E+03  0.16582337193E+03  0.00000000000E+00 0.  1.
         21   -1    0    0  501  503 -0.00000000000E+00 -0.00000000000E+00 -0.28595788014E+03  0.28595788014E+03  0.00000000000E+00 0. -1.
          6    2    1    2  501    0  0.32512793222E+02  0.10859463821E+03 -0.11929099981E+03  0.23785127404E+03  0.17173528686E+03 0.  0.
         24    2    3    3    0    0  0.60326512574E+02  0.11139920882E+03 -0.47654385053E+02  0.16080996580E+03  0.86832210843E+02 0.  0.
         -6    2    1    2    0  502 -0.32512793222E+02 -0.10859463821E+03 -0.84350840196E+00  0.21392997803E+03  0.18142614702E+03 0.  0.
        -24    2    5    5    0    0 -0.27578130461E+02  0.17517441747E+02 -0.59759240659E+01  0.87529664346E+02  0.80983433041E+02 0.  0.
          5    1    3    3  501    0 -0.27813719352E+02 -0.28045706073E+01 -0.71636614762E+02  0.77041308238E+02  0.47000000000E+01 0. -1.
        -13    1    4    4    0    0  0.78794976057E+02  0.69262211671E+02 -0.46595090789E+02  0.11479113512E+03  0.00000000000E+00 0.  1.
         14    1    4    4    0    0 -0.18468463483E+02  0.42136997151E+02 -0.10592942639E+01  0.46018830675E+02  0.00000000000E+00 0. -1.
         -5    1    5    5    0  502 -0.49346627609E+01 -0.12611207996E+03  0.51324156639E+01  0.12640031368E+03  0.47000000000E+01 0.  1.
         13    1    6    6    0    0 -0.33449993882E+02 -0.17956447896E+02 -0.26339445040E+02  0.46207169106E+02  0.00000000000E+00 0. -1.
        -14    1    6    6    0    0  0.58718634215E+01  0.35473889643E+02  0.20363520974E+02  0.41322495241E+02  0.00000000000E+00 0.  1.
</event>
<event>
12    1  0.9017558E-003  0.2004924E+03  0.7818608E-02  0.1149468E+00
         21   -1    0    0  501  502  0.00000000000E+00  0.00000000000E+00  0.21299737357E+03  0.21299737357E+03  0.00000000000E+00 0. -1.
         21   -1    0    0  502  503 -0.00000000000E+00 -0.00000000000E+00 -0.22494392825E+03  0.22494392825E+03  0.00000000000E+00 0. -1.
          6    2    1    2  501    0  0.10196618019E+03 -0.17071479179E+02  0.82664603557E+02  0.21686550593E+03  0.17178088857E+03 0.  0.
         24    2    3    3    0    0  0.12033291395E+03  0.59961779713E+01  0.10550506857E+03  0.17927254704E+03  0.80568990931E+02 0.  0.
         -6    2    1    2    0  503 -0.10196618019E+03  0.17071479179E+02 -0.94611158230E+02  0.22107579589E+03  0.17098157493E+03 0.  0.
        -24    2    5    5    0    0 -0.10993012459E+03 -0.28000769458E+02 -0.10462015784E+03  0.17398862056E+03  0.80361603229E+02 0.  0.
          5    1    3    3  501    0 -0.18366733760E+02 -0.23067657150E+02 -0.22840465017E+02  0.37592958884E+02  0.47000000000E+01 0. -1.
        -11    1    4    4    0    0 -0.99717031638E+00 -0.15062857486E+02 -0.27094223060E+01  0.15337046440E+02  0.00000000000E+00 0.  1.
         12    1    4    4    0    0  0.12133008426E+03  0.21059035457E+02  0.10821449088E+03  0.16393550060E+03  0.00000000000E+00 0. -1.
         -5    1    5    5    0  503  0.79639444033E+01  0.45072248637E+02  0.10008999615E+02  0.47087175334E+02  0.47000000000E+01 0.  1.
         13    1    6    6    0    0 -0.14285179595E+02  0.22037933911E+02 -0.42755180588E+01  0.26608587746E+02  0.00000000000E+00 0. -1.
        -14    1    6    6    0    0 -0.95644944995E+02 -0.50038703370E+02 -0.10034463979E+03  0.14738003281E+03  0.00000000000E+00 0.  1.
</event>
<event>
12    1  0.9017558E-003  0.1860942E+03  0.7818608E-02  0.1162240E+00
         21   -1    0    0  501  502  0.00000000000E+00  0.00000000000E+00  0.89589762937E+03  0.89589762937E+03  0.00000000000E+00 0. -1.
         21   -1    0    0  502  503 -0.00000000000E+00 -0.00000000000E+00 -0.46947942049E+02  0.46947942049E+02  0.00000000000E+00 0. -1.
          6    2    1    2  501    0 -0.54044084032E+02  0.47551359373E+02  0.62565317768E+03  0.65274263043E+03  0.17160754073E+03 0.  0.
         24    2    3    3    0    0 -0.67707380834E+02 -0.36376041320E+01  0.55327686674E+03  0.56292383479E+03  0.78552090495E+02 0.  0.
         -6    2    1    2    0  503  0.54044084032E+02 -0.47551359373E+02  0.22329650964E+03  0.29010294100E+03  0.17063554835E+03 0.  0.
        -24    2    5    5    0    0 -0.35824953758E+02 -0.32829940445E+02  0.12791178286E+03  0.15814271884E+03  0.79287218554E+02 0.  0.
          5    1    3    3  501    0  0.13663296802E+02  0.51188963505E+02  0.72376310942E+02  0.89818795638E+02  0.47000000000E+01 0. -1.
        -11    1    4    4    0    0 -0.52244308443E+02  0.54729763981E+01  0.14447996375E+03  0.15373314919E+03  0.00000000000E+00 0.  1.
         12    1    4    4    0    0 -0.15463072391E+02 -0.91105805301E+01  0.40879690299E+03  0.40919068559E+03  0.00000000000E+00 0. -1.
         -5    1    5    5    0  503  0.89869037789E+02 -0.14721418928E+02  0.95384726786E+02  0.13196022216E+03  0.47000000000E+01 0.  1.
         13    1    6    6    0    0 -0.15436773428E+02 -0.43118156199E+02  0.23911416252E+02  0.51664544855E+02  0.00000000000E+00 0. -1.
        -14    1    6    6    0    0 -0.20388180329E+02  0.10288215754E+02  0.10400036661E+03  0.10647817398E+03  0.00000000000E+00 0.  1.
</event>
<event>
12    1  0.9017558E-003  0.1746812E+03  0.7818608E-02  0.1173292E+00
         21   -1    0    0  503  502  0.00000000000E+00  0.00000000000E+00  0.11774722233E+03  0.11774722233E+03  0.00000000000E+00 0. -1.
         21   -1    0    0  501  503 -0.00000000000E+00 -0.00000000000E+00 -0.28758454285E+03  0.28758454285E+03  0.00000000000E+00 0. -1.
          6    2    1    2  501    0 -0.24465808839E+02 -0.16613077156E+01 -0.15041667366E+03  0.23051830759E+03  0.17295137662E+03 0.  0.
         24    2    3    3    0    0 -0.43625144142E+02 -0.17122563516E+01 -0.13053173250E+02  0.91745457330E+02  0.79628880348E+02 0.  0.
         -6    2    1    2    0  502  0.24465808839E+02  0.16613077156E+01 -0.19420646858E+02  0.17481345759E+03  0.17199199890E+03 0.  0.
        -24    2    5    5    0    0  0.41934168985E+02  0.60984411937E+02  0.73347343177E+01  0.10726854866E+03  0.77299224937E+02 0.  0.
          5    1    3    3  501    0  0.19159335303E+02  0.50948636032E-01 -0.13736350041E+03  0.13877285026E+03  0.47000000000E+01 0. -1.
        -11    1    4    4    0    0 -0.51140535682E+02 -0.11499623801E+02  0.20278167821E+02  0.56203201222E+02  0.00000000000E+00 0.  1.
         12    1    4    4    0    0  0.75153915403E+01  0.97873674497E+01 -0.33331341072E+02  0.35542256108E+02  0.00000000000E+00 0. -1.
         -5    1    5    5    0  502 -0.17468360147E+02 -0.59323104222E+02 -0.26755381176E+02  0.67544908931E+02  0.47000000000E+01 0.  1.
         13    1    6    6    0    0  0.38394306822E+02  0.48836469234E+02  0.38876312987E+02  0.73283635520E+02  0.00000000000E+00 0. -1.
        -14    1    6    6    0    0  0.35398621639E+01  0.12147942703E+02 -0.31541578669E+02  0.33984913138E+02  0.00000000000E+00 0.  1.
</event>
<event>
12    1  0.9017558E-003  0.1891993E+03  0.7818608E-02  0.1159216E+00
         21   -1    0    0  501  502  0.00000000000E+00  0.00000000000E+00  0.24419895550E+03  0.24419895550E+03  0.00000000000E+00 0. -1.
         21   -1    0    0  502  503 -0.00000000000E+00 -0.00000000000E+00 -0.14983229744E+03  0.14983229744E+03  0.00000000000E+00 0. -1.
          6    2    1    2  501    0  0.35555355167E+02 -0.68402444755E+02  0.76660356942E+02  0.20414014697E+03  0.17278110877E+03 0.  0.
         24    2    3    3    0    0  0.10433935163E+02 -0.17122498017E+02 -0.28487500291E+02  0.84395082095E+02  0.76869664158E+02 0.  0.
         -6    2    1    2    0  503 -0.35555355167E+02  0.68402444755E+02  0.17706301112E+02  0.18989110598E+03  0.17263267738E+03 0.  0.
        -24    2    5    5    0    0 -0.35743831792E+02 -0.14455229386E+02  0.48185841549E+02  0.10148000898E+03  0.80558933261E+02 0.  0.
          5    1    3    3  501    0  0.25121420004E+02 -0.51279946738E+02  0.10514785723E+03  0.11974506487E+03  0.47000000000E+01 0. -1.
        -13    1    4    4    0    0  0.26781657748E+02  0.18106114893E+02  0.54928225432E+01  0.32791152583E+02  0.00000000000E+00 0.  1.
         14    1    4    4    0    0 -0.16347722584E+02 -0.35228612910E+02 -0.33980322834E+02  0.51603929513E+02  0.00000000000E+00 0. -1.
         -5    1    5    5    0  503  0.18847662442E+00  0.82857674141E+02 -0.30479540437E+02  0.88411097000E+02  0.47000000000E+01 0.  1.
         11    1    6    6    0    0 -0.35032676285E+02  0.29224308675E+02  0.25038065724E+02  0.52040881626E+02  0.00000000000E+00 0. -1.
        -12    1    6    6    0    0 -0.71115550643E+00 -0.43679538061E+02  0.23147775825E+02  0.49439127349E+02  0.00000000000E+00 0.  1.
</event>
<event>
12    1  0.9017558E-003  0.3778656E+03  0.7818608E-02  0.1051746E+00
         21   -1    0    0  501  502  0.00000000000E+00  0.00000000000E+00  0.48381878957E+03  0.48381878957E+03  0.00000000000E+00 0.  1.
         21   -1    0    0  502  503 -0.00000000000E+00 -0.00000000000E+00 -0.31374533728E+03  0.31374533728E+03  0.00000000000E+00 0.  1.
          6    2    1    2  501    0  0.10995755933E+03  0.31826687163E+03 -0.12605166449E+02  0.37785725602E+03  0.17097587336E+03 0.  0.
         24    2    3    3    0    0  0.96916206325E+02  0.30239913128E+03 -0.53358113323E+02  0.33197964982E+03  0.80780034584E+02 0.  0.
         -6    2    1    2    0  503 -0.10995755933E+03 -0.31826687163E+03  0.18267861873E+03  0.41970687082E+03  0.17145819677E+03 0.  0.
        -24    2    5    5    0    0 -0.14009141329E+03 -0.25107940156E+03  0.17355743222E+03  0.34535977046E+03  0.80527751769E+02 0.  0.
          5    1    3    3  501    0  0.13041353005E+02  0.15867740356E+02  0.40752946875E+02  0.45877606206E+02  0.47000000000E+01 0. -1.
        -11    1    4    4    0    0  0.31396247588E+02  0.18876043407E+02 -0.44494139097E+01  0.36902935675E+02  0.00000000000E+00 0.  1.
         12    1    4    4    0    0  0.65519958737E+02  0.28352308787E+03 -0.48908699414E+02  0.29507671414E+03  0.00000000000E+00 0. -1.
         -5    1    5    5    0  503  0.30133853962E+02 -0.67187470074E+02  0.91211865124E+01  0.74347100367E+02  0.47000000000E+01 0.  1.
         11    1    6    6    0    0 -0.93083278336E+02 -0.16682597233E+03  0.15741701560E+03  0.24753892330E+03  0.00000000000E+00 0. -1.
        -12    1    6    6    0    0 -0.47008134956E+02 -0.84253429231E+02  0.16140416620E+02  0.97820847154E+02  0.00000000000E+00 0.  1.
</event>
<event>
12    1  0.9017558E-003  0.2314310E+03  0.7818608E-02  0.1125747E+00
         21   -1    0    0  501  502  0.00000000000E+00  0.00000000000E+00  0.38677983505E+03  0.38677983505E+03  0.00000000000E+00 0. -1.
         21   -1    0    0  502  503 -0.00000000000E+00 -0.00000000000E+00 -0.27126592204E+03  0.27126592204E+03  0.00000000000E+00 0. -1.
          6    2    1    2  501    0 -0.14336977610E+03 -0.56976488328E+02  0.28832499884E+03  0.36971829158E+03  0.17250825269E+03 0.  0.
         24    2    3    3    0    0 -0.15637379612E+03 -0.76584475386E+02  0.19577890499E+03  0.27411260566E+03  0.80562987515E+02 0.  0.
         -6    2    1    2    0  503  0.14336977610E+03  0.56976488328E+02 -0.17281108583E+03  0.28832746551E+03  0.17166200237E+03 0.  0.
        -24    2    5    5    0    0  0.32446512859E+02 -0.15972175760E+02 -0.11287347946E+03  0.14258768172E+03  0.79264986074E+02 0.  0.
          5    1    3    3  501    0  0.13004020015E+02  0.19607987058E+02  0.92546093855E+02  0.95605685923E+02  0.47000000000E+01 0. -1.
        -11    1    4    4    0    0 -0.12070932949E+03 -0.58408583027E+02  0.19160147070E+03  0.23386626172E+03  0.00000000000E+00 0.  1.
         12    1    4    4    0    0 -0.35664466625E+02 -0.18175892359E+02  0.41774342909E+01  0.40246343933E+02  0.00000000000E+00 0. -1.
         -5    1    5    5    0  503  0.11092326325E+03  0.72948664088E+02 -0.59937606373E+02  0.14573978379E+03  0.47000000000E+01 0.  1.
         13    1    6    6    0    0  0.28769038852E+02  0.29561653386E+02 -0.48830368735E+02  0.63921466333E+02  0.00000000000E+00 0. -1.
        -14    1    6    6    0    0  0.36774740063E+01 -0.45533829146E+02 -0.64043110725E+02  0.78666215385E+02  0.00000000000E+00 0.  1.
</event>
<event>
12    1  0.9017558E-003  0.3210569E+03  0.7818608E-02  0.1075222E+00
         21   -1    0    0  503  502  0.00000000000E+00  0.00000000000E+00  0.66959041405E+03  0.66959041405E+03  0.00000000000E+00 0.  1.
         21   -1    0    0  501  503 -0.00000000000E+00 -0.00000000000E+00 -0.23412113300E+03  0.23412113300E+03  0.00000000000E+00 0. -1.
          6    2    1    2  501    0 -0.26351760896E+03 -0.62451790512E+02 -0.47211208602E+02  0.32400644638E+03  0.17149204853E+03 0.  0.
         24    2    3    3    0    0 -0.22466474076E+03 -0.10703876879E+03 -0.33758235124E+02  0.26317375373E+03  0.78671865693E+02 0.  0.
         -6    2    1    2    0  502  0.26351760896E+03  0.62451790512E+02  0.48268048965E+03  0.57970510067E+03  0.17244069208E+03 0.  0.
        -24    2    5    5    0    0  0.48645905665E+02  0.34088330681E+02  0.10430086459E+03  0.14362303799E+03  0.78869945236E+02 0.  0.
          5    1    3    3  501    0 -0.38852868205E+02  0.44586978280E+02 -0.13452973478E+02  0.60832692652E+02  0.47000000000E+01 0. -1.
        -11    1    4    4    0    0 -0.14318238993E+03 -0.10346580829E+03 -0.40819415041E+02  0.18130801117E+03  0.00000000000E+00 0.  1.
         12    1    4    4    0    0 -0.81482350831E+02 -0.35729605014E+01  0.70611799165E+01  0.81865742563E+02  0.00000000000E+00 0. -1.
         -5    1    5    5    0  502  0.21487170330E+03  0.28363459831E+02  0.37837962505E+03  0.43608206268E+03  0.47000000000E+01 0.  1.
         11    1    6    6    0    0 -0.21105935753E+02  0.14066649002E+02  0.19388005112E+02  0.31925317232E+02  0.00000000000E+00 0. -1.
        -12    1    6    6    0    0  0.69751841418E+02  0.20021681679E+02  0.84912859478E+02  0.11169772076E+03  0.00000000000E+00 0.  1.
</event>
<event>
12    1  0.9017558E-003  0.3152233E+03  0.7818608E-02  0.1078036E+00
         21   -1    0    0  501  502  0.00000000000E+00  0.00000000000E+00  0.32240924359E+03  0.32240924359E+03  0.00000000000E+00 0. -1.
         21   -1    0    0  502  503 -0.00000000000E+00 -0.00000000000E+00 -0.43517272293E+03  0.43517272293E+03  0.00000000000E+00 0.  1.
          6    2    1    2  501    0 -0.10394425052E+03 -0.24169715135E+03  0.14943234830E+03  0.34756687310E+03  0.17102860689E+03 0.  0.
         24    2    3    3    0    0 -0.12624368130E+03 -0.12707557719E+03  0.92638049345E+02  0.21763207303E+03  0.81830566664E+02 0.  0.
         -6    2    1    2    0  503  0.10394425052E+03  0.24169715135E+03 -0.26219582764E+03  0.41001509342E+03  0.17361971263E+03 0.  0.
        -24    2    5    5    0    0  0.40432234231E+02  0.33213053777E+02 -0.61198156304E+02  0.11349941249E+03  0.79993935986E+02 0.  0.
          5    1    3    3  501    0  0.22299430780E+02 -0.11462157416E+03  0.56794298951E+02  0.12993480007E+03  0.47000000000E+01 0. -1.
        -13    1    4    4    0    0 -0.37619325305E+02 -0.29181761506E+01  0.43018905883E+02  0.57221985738E+02  0.00000000000E+00 0.  1.
         14    1    4    4    0    0 -0.88624355993E+02 -0.12415740104E+03  0.49619143461E+02  0.16041008730E+03  0.00000000000E+00 0. -1.
         -5    1    5    5    0  503  0.63512016288E+02  0.20848409757E+03 -0.20099767134E+03  0.29651568093E+03  0.47000000000E+01 0.  1.
         13    1    6    6    0    0  0.11633696409E+02 -0.26054417880E+02 -0.10672794851E+02  0.30464473295E+02  0.00000000000E+00 0. -1.
        -14    1    6    6    0    0  0.28798537822E+02  0.59267471656E+02 -0.50525361453E+02  0.83034939195E+02  0.00000000000E+00 0.  1.
</event>
<event>
12    1  0.9017558E-003  0.2406142E+03  0.7818608E-02  0.1119906E+00
         21   -1    0    0  501  502  0.00000000000E+00  0.00000000000E+00  0.86914606576E+03  0.86914606576E+03  0.00000000000E+00 0.  1.
         21   -1    0    0  502  503 -0.00000000000E+00 -0.00000000000E+00 -0.66208506819E+02  0.66208506819E+02  0.00000000000E+00 0.  1.
          6    2    1    2  501    0 -0.14048159208E+03  0.90317992743E+02  0.43777797047E+03  0.49804835628E+03  0.16884962611E+03 0.  0.
         24    2    3    3    0    0 -0.14893342031E+02  0.61098892098E+02  0.13023088786E+03  0.16453154649E+03  0.78458010326E+02 0.  0.
         -6    2    1    2    0  503  0.14048159208E+03 -0.90317992743E+02  0.36515958847E+03  0.43730621630E+03  0.17321311797E+03 0.  0.
        -24    2    5    5    0    0  0.91006931275E+02 -0.12233286760E+03  0.21308063760E+03  0.27414129492E+03  0.80638076745E+02 0.  0.
          5    1    3    3  501    0 -0.12558825005E+03  0.29219100645E+02  0.30754708260E+03  0.33351680979E+03  0.47000000000E+01 0. -1.
        -11    1    4    4    0    0  0.45019856924E+01  0.66250232669E+02  0.53658750667E+02  0.85373431037E+02  0.00000000000E+00 0.  1.
         12    1    4    4    0    0 -0.19395327724E+02 -0.51513405716E+01  0.76572137197E+02  0.79158115453E+02  0.00000000000E+00 0. -1.
         -5    1    5    5    0  503  0.49474660802E+02  0.32014874858E+02  0.15207895087E+03  0.16316492139E+03  0.47000000000E+01 0.  1.
         13    1    6    6    0    0 -0.10386178038E+02 -0.41241190415E+02  0.57078087414E+02  0.71180169597E+02  0.00000000000E+00 0. -1.
        -14    1    6    6    0    0  0.10139310931E+03 -0.81091677186E+02  0.15600255019E+03  0.20296112532E+03  0.00000000000E+00 0.  1.
</event>
<event>
12    1  0.9017558E-003  0.1828706E+03  0.7818608E-02  0.1165053E+00
         21   -1    0    0  503  502  0.00000000000E+00  0.00000000000E+00  0.70072136558E+02  0.70072136558E+02  0.00000000000E+00 0.  1.
         21   -1    0    0  501  503 -0.00000000000E+00 -0.00000000000E+00 -0.47777408143E+03  0.47777408143E+03  0.00000000000E+00 0.  1.
          6    2    1    2  501    0  0.16855870668E+02 -0.60136522017E+02 -0.19474163509E+03  0.26714397042E+03  0.17187517226E+03 0.  0.
         24    2    3    3    0    0 -0.53638590789E+02 -0.40308384081E+02 -0.15348471660E+03  0.18296055476E+03  0.73587649211E+02 0.  0.
         -6    2    1    2    0  502 -0.16855870668E+02  0.60136522017E+02 -0.21296030978E+03  0.28070224757E+03  0.17187535190E+03 0.  0.
        -24    2    5    5    0    0 -0.16858594889E+02 -0.32768016593E+02 -0.85312686086E+02  0.12275523387E+03  0.80203727477E+02 0.  0.
          5    1    3    3  501    0  0.70494461457E+02 -0.19828137936E+02 -0.41256918484E+02  0.84183415664E+02  0.47000000000E+01 0. -1.
        -13    1    4    4    0    0 -0.13464990964E+02 -0.31640828772E+02 -0.13289234906E+02  0.36865319630E+02  0.00000000000E+00 0.  1.
         14    1    4    4    0    0 -0.40173599825E+02 -0.86675553088E+01 -0.14019548170E+03  0.14609523513E+03  0.00000000000E+00 0. -1.
         -5    1    5    5    0  502  0.27242207686E-02  0.92904538610E+02 -0.12764762370E+03  0.15794701370E+03  0.47000000000E+01 0.  1.
         11    1    6    6    0    0  0.85511996352E+01 -0.11753668836E+02  0.12726647093E+02  0.19319401971E+02  0.00000000000E+00 0. -1.
        -12    1    6    6    0    0 -0.25409794524E+02 -0.21014347757E+02 -0.98039333179E+02  0.10343583189E+03  0.00000000000E+00 0.  1.
</event>
<event>
12    1  0.9017558E-003  0.3140118E+03  0.7818608E-02  0.1078572E+00
         21   -1    0    0  503  502  0.00000000000E+00  0.00000000000E+00  0.46566498277E+03  0.46566498277E+03  0.00000000000E+00 0.  1.
         21   -1    0    0  501  503 -0.00000000000E+00 -0.00000000000E+00 -0.29851534306E+03  0.29851534306E+03  0.00000000000E+00 0.  1.
          6    2    1    2  501    0 -0.21648353035E+02  0.26089113943E+03  0.29058071031E+03  0.42783236867E+03  0.17340861760E+03 0.  0.
         24    2    3    3    0    0  0.25352182176E+02  0.11994749402E+03  0.71721792288E+02  0.16326578445E+03  0.80508176102E+02 0.  0.
         -6    2    1    2    0  502  0.21648353035E+02 -0.26089113943E+03 -0.12343107060E+03  0.33634795716E+03  0.17135308949E+03 0.  0.
        -24    2    5    5    0    0  0.11663244189E+02 -0.18873626223E+03 -0.15477473155E+03  0.25690902600E+03  0.79307138179E+02 0.  0.
          5    1    3    3  501    0 -0.47000535211E+02  0.14094364541E+03  0.21885891802E+03  0.26456658422E+03  0.47000000000E+01 0. -1.
        -13    1    4    4    0    0  0.34824659459E+02  0.10004591718E+03  0.86471252637E+02  0.13674509126E+03  0.00000000000E+00 0.  1.
         14    1    4    4    0    0 -0.94724772826E+01  0.19901576844E+02 -0.14749460349E+02  0.26520693191E+02  0.00000000000E+00 0. -1.
         -5    1    5    5    0  502  0.99851088468E+01 -0.72154877199E+02  0.31343660957E+02  0.79438931164E+02  0.47000000000E+01 0.  1.
         11    1    6    6    0    0  0.17862043499E+02 -0.68632145644E+02 -0.10510202122E+03  0.12679061037E+03  0.00000000000E+00 0. -1.
        -12    1    6    6    0    0 -0.61987993102E+01 -0.12010411658E+03 -0.49672710336E+02  0.13011841563E+03  0.00000000000E+00 0.  1.
</event>
<event>
12    1  0.9017558E-003  0.2311368E+03  0.7818608E-02  0.1125968E+00
         21   -1    0    0  503  502  0.00000000000E+00  0.00000000000E+00  0.30758045671E+02  0.30758045671E+02  0.00000000000E+00 0.  1.
         21   -1    0    0  501  503 -0.00000000000E+00 -0.00000000000E+00 -0.21618046333E+04  0.21618046333E+04  0.00000000000E+00 0.  1.
          6    2    1    2  501    0  0.45634089795E+01 -0.15468461525E+03 -0.15532790995E+04  0.15702769951E+04  0.17072119230E+03 0.  0.
         24    2    3    3    0    0 -0.22958828830E+02 -0.87410106708E+02 -0.49234650057E+03  0.50684697740E+03  0.79505643198E+02 0.  0.
         -6    2    1    2    0  502 -0.45634089795E+01  0.15468461525E+03 -0.57776748821E+03  0.62228568395E+03  0.17168589669E+03 0.  0.
        -24    2    5    5    0    0 -0.41440503923E+00  0.40936633943E+02 -0.12108000076E+03  0.15160387138E+03  0.81531512344E+02 0.  0.
          5    1    3    3  501    0  0.27522237810E+02 -0.67274508547E+02 -0.10609325989E+04  0.10634300177E+04  0.47000000000E+01 0. -1.
        -13    1    4    4    0    0 -0.11707489405E+02  0.72206641209E+01 -0.17399881247E+03  0.17454165703E+03  0.00000000000E+00 0.  1.
         14    1    4    4    0    0 -0.11251339425E+02 -0.94630770829E+02 -0.31834768811E+03  0.33230532038E+03  0.00000000000E+00 0. -1.
         -5    1    5    5    0  502 -0.41490039402E+01  0.11374798131E+03 -0.45668748745E+03  0.47068181256E+03  0.47000000000E+01 0.  1.
         13    1    6    6    0    0 -0.32966106142E+02 -0.62700518474E+01 -0.51067006432E+02  0.61105784098E+02  0.00000000000E+00 0. -1.
        -14    1    6    6    0    0  0.32551701103E+02  0.47206685790E+02 -0.70012994325E+02  0.90498087286E+02  0.00000000000E+00 0.  1.
</event>
<event>
12    1  0.9017558E-003  0.2153885E+03  0.7818608E-02  0.1137390E+00
         21   -1    0    0  501  502  0.00000000000E+00  0.00000000000E+00  0.22354413556E+03  0.22354413556E+03  0.00000000000E+00 0. -1.
         21   -1    0    0  502  503 -0.00000000000E+00 -0.00000000000E+00 -0.41358005005E+03  0.41358005005E+03  0.00000000000E+00 0. -1.
          6    2    1    2  501    0  0.39054501938E+02  0.12352178394E+03  0.12988295073E+03  0.25151892113E+03  0.17207353534E+03 0.  0.
         24    2    3    3    0    0 -0.28996753049E+02  0.70268982846E+02  0.17963462763E+02  0.11004490967E+03  0.77515511435E+02 0.  0.
         -6    2    1    2    0  503 -0.39054501938E+02 -0.12352178394E+03 -0.31991886522E+03  0.38560526448E+03  0.17193153997E+03 0.  0.
        -24    2    5    5    0    0  0.36653099572E+02 -0.56040578452E+02 -0.97418481692E+02  0.14103653244E+03  0.76921692422E+02 0.  0.
          5    1    3    3  501    0  0.68051254988E+02  0.53252801092E+02  0.11191948797E+03  0.14147401145E+03  0.47000000000E+01 0. -1.
        -11    1    4    4    0    0  0.26593321496E+02  0.21289514019E+02  0.12204704670E+01  0.34087207329E+02  0.00000000000E+00 0.  1.
         12    1    4    4    0    0 -0.55590074545E+02  0.48979468827E+02  0.16742992296E+02  0.75957702345E+02  0.00000000000E+00 0. -1.
         -5    1    5    5    0  503 -0.75707601510E+02 -0.67481205486E+02 -0.22250038353E+03  0.24456873204E+03  0.47000000000E+01 0.  1.
         11    1    6    6    0    0 -0.25864073756E+01 -0.37828723173E+02 -0.89306901466E+02  0.97022803760E+02  0.00000000000E+00 0. -1.
        -12    1    6    6    0    0  0.39239506948E+02 -0.18211855278E+02 -0.81115802256E+01  0.44013728676E+02  0.00000000000E+00 0.  1.
</event>
<event>
12    1  0.9017558E-003  0.2081634E+03  0.7818608E-02  0.1143140E+00
         21   -1    0    0  503  502  0.00000000000E+00  0.00000000000E+00  0.50023392959E+02  0.50023392959E+02  0.00000000000E+00 0.  1.
         21   -1    0    0  501  503 -0.00000000000E+00 -0.00000000000E+00 -0.93717316649E+03  0.93717316649E+03  0.00000000000E+00 0.  1.
          6    2    1    2  501    0 -0.48742224600E+02  0.10617798348E+03 -0.58102740918E+03  0.61700349614E+03  0.17161263181E+03 0.  0.
         24    2    3    3    0    0 -0.68587903635E+02  0.87706430069E+02 -0.57180024976E+03  0.58798144017E+03  0.79811840932E+02 0.  0.
         -6    2    1    2    0  502  0.48742224600E+02 -0.10617798348E+03 -0.30612236435E+03  0.37019306331E+03  0.17228590636E+03 0.  0.
        -24    2    5    5    0    0  0.73889478722E+01  0.13209076916E+02 -0.11779228337E+03  0.14335904229E+03  0.80297675698E+02 0.  0.
          5    1    3    3  501    0  0.19845679036E+02  0.18471553412E+02 -0.92271594124E+01  0.29022055969E+02  0.47000000000E+01 0. -1.
        -11    1    4    4    0    0 -0.21493190076E+02  0.22744680176E+02 -0.43295998146E+02  0.53421167634E+02  0.00000000000E+00 0.  1.
         12    1    4    4    0    0 -0.47094713560E+02  0.64961749892E+02 -0.52850425162E+03  0.53456027254E+03  0.00000000000E+00 0. -1.
         -5    1    5    5    0  502  0.41353276728E+02 -0.11938706040E+03 -0.18833008098E+03  0.22683402102E+03  0.47000000000E+01 0.  1.
         11    1    6    6    0    0 -0.17355882823E+02  0.33476615519E+02 -0.25086921821E+02  0.45290883207E+02  0.00000000000E+00 0. -1.
        -12    1    6    6    0    0  0.24744830696E+02 -0.20267538603E+02 -0.92705361545E+02  0.98068159086E+02  0.00000000000E+00 0.  1.
</event>
<event>
12    1  0.9017558E-003  0.2008740E+03  0.7818608E-02  0.1149041E+00
         21   -1    0    0  501  502  0.00000000000E+00  0.00000000000E+00  0.36504414742E+03  0.36504414742E+03  0.00000000000E+00 0.  1.
         21   -1    0    0  502  503 -0.00000000000E+00 -0.00000000000E+00 -0.12429366941E+03  0.12429366941E+03  0.00000000000E+00 0.  1.
          6    2    1    2  501    0 -0.24190842013E+02 -0.10078065798E+03  0.20211416968E+03  0.28495702719E+03  0.17207100830E+03 0.  0.
         24    2    3    3    0    0 -0.57135840569E+02 -0.19632187780E+02  0.57133300190E+02  0.11551090105E+03  0.80178720345E+02 0.  0.
         -6    2    1    2    0  503  0.24190842013E+02  0.10078065798E+03  0.38636308327E+02  0.20438078964E+03  0.17186275045E+03 0.  0.
        -24    2    5    5    0    0  0.64575109450E+02  0.61820361281E+02 -0.20562811459E+02  0.12267754883E+03  0.81457043539E+02 0.  0.
          5    1    3    3  501    0  0.32944998555E+02 -0.81148470199E+02  0.14498086949E+03  0.16944612614E+03  0.47000000000E+01 0. -1.
        -11    1    4    4    0    0 -0.39726609853E+02 -0.38006500981E+02  0.21960568636E+01  0.55022907166E+02  0.00000000000E+00 0.  1.
         12    1    4    4    0    0 -0.17409230715E+02  0.18374313201E+02  0.54937243326E+02  0.60487993883E+02  0.00000000000E+00 0. -1.
         -5    1    5    5    0  503 -0.40384267437E+02  0.38960296699E+02  0.59199119786E+02  0.81703240809E+02  0.47000000000E+01 0.  1.
         13    1    6    6    0    0  0.43763308615E+02 -0.69129211495E+01  0.86603502926E+01  0.45144405268E+02  0.00000000000E+00 0. -1.
        -14    1    6    6    0    0  0.20811800834E+02  0.68733282431E+02 -0.29223161751E+02  0.77533143561E+02  0.00000000000E+00 0.  1.
</event>
<event>
12    1  0.9017558E-003  0.1820224E+03  0.7818608E-02  0.1166427E+00
         21   -1    0    0  501  502  0.00000000000E+00  0.00000000000E+00  0.49993429402E+03  0.49993429402E+03  0.00000000000E+00 0.  1.
         21   -1    0    0  502  503 -0.00000000000E+00 -0.00000000000E+00 -0.65787944871E+02  0.65787944871E+02  0.00000000000E+00 0. -1.
          6    2    1    2  501    0 -0.21848216040E+02  0.52612003153E+02  0.23975286614E+03  0.30102092387E+03  0.17287796958E+03 0.  0.
         24    2    3    3    0    0 -0.71299911647E+02  0.29822666565E+02  0.21284075924E+03  0.24010150531E+03  0.79840310707E+02 0.  0.
         -6    2    1    2    0  503  0.21848216040E+02 -0.52612003153E+02  0.19439348301E+03  0.26470131502E+03  0.17038953171E+03 0.  0.
        -24    2    5    5    0    0 -0.19718564669E+01  0.65541928300E+01  0.18237987074E+03  0.19962865193E+03  0.80884706581E+02 0.  0.
          5    1    3    3  501    0  0.49451695607E+02  0.22789336588E+02  0.26912106900E+02  0.60919418565E+02  0.47000000000E+01 0. -1.
        -13    1    4    4    0    0 -0.81324281820E+02  0.22767483318E+02  0.12164825411E+03  0.14808880727E+03  0.00000000000E+00 0.  1.
         14    1    4    4    0    0  0.10024370173E+02  0.70551832469E+01  0.91192505133E+02  0.92012698039E+02  0.00000000000E+00 0. -1.
         -5    1    5    5    0  503  0.23820072507E+02 -0.59166195983E+02  0.12013612261E+02  0.65072663084E+02  0.47000000000E+01 0.  1.
         13    1    6    6    0    0 -0.24917812773E+02  0.29231921756E+02  0.48243260790E+02  0.61666967289E+02  0.00000000000E+00 0. -1.
        -14    1    6    6    0    0  0.22945956306E+02 -0.22677728926E+02  0.13413660995E+03  0.13796168465E+03  0.00000000000E+00 0.  1.
</event>
<event>
12    1  0.9017558E-003  0.2173528E+03  0.7818608E-02  0.1136046E+00
         21   -1    0    0  501  502  0.00000000000E+00  0.00000000000E+00  0.21746958346E+03  0.21746958346E+03  0.00000000000E+00 0.  1.
         21   -1    0    0  502  503 -0.00000000000E+00 -0.00000000000E+00 -0.24829622105E+03  0.24829622105E+03  0.00000000000E+00 0. -1.
          6    2    1    2  501    0 -0.29996932754E+01  0.13288680135E+03  0.68130539195E+02  0.22778064791E+03  0.17197195428E+03 0.  0.
         24    2    3    3    0    0 -0.42159253473E+02  0.12565339379E+03  0.92892104499E+02  0.18065296543E+03  0.80251933403E+02 0.  0.
         -6    2    1    2    0  503  0.29996932754E+01 -0.13288680135E+03 -0.98957176791E+02  0.23798515660E+03  0.17081133390E+03 0.  0.
        -24    2    5    5    0    0 -0.51415088887E+02 -0.13034515602E+03 -0.75145185471E+02  0.17834851174E+03  0.80796173663E+02 0.  0.
          5    1    3    3  501    0  0.39159560198E+02  0.72334075600E+01 -0.24761565305E+02  0.47127682483E+02  0.47000000000E+01 0. -1.
        -11    1    4    4    0    0  0.19410919594E+02  0.58429503786E+02  0.22773487102E+02  0.65646191260E+02  0.00000000000E+00 0.  1.
         12    1    4    4    0    0 -0.61570173067E+02  0.67223890007E+02  0.70118617397E+02  0.11500677417E+03  0.00000000000E+00 0. -1.
         -5    1    5    5    0  503  0.54414782162E+02 -0.25416453360E+01 -0.23811991319E+02  0.59636644853E+02  0.47000000000E+01 0.  1.
         13    1    6    6    0    0 -0.59596902985E+01 -0.97113991424E+02 -0.73637667540E+02  0.12202111014E+03  0.00000000000E+00 0. -1.
        -14    1    6    6    0    0 -0.45455398588E+02 -0.33231164593E+02 -0.15075179313E+01  0.56327401603E+02  0.00000000000E+00 0.  1.
</event>
<event>
12    1  0.9017558E-003  0.1785247E+03  0.7818608E-02  0.1169316E+00
         21   -1    0    0  503  502  0.00000000000E+00  0.00000000000E+00  0.69249853024E+02  0.69249853024E+02  0.00000000000E+00 0.  1.
         21   -1    0    0  501  503 -0.00000000000E+00 -0.00000000000E+00 -0.60785735700E+03  0.60785735700E+03  0.00000000000E+00 0.  1.
          6    2    1    2  501    0 -0.33108140654E+02 -0.35265226814E+02 -0.43642703651E+03  0.47140861533E+03  0.17151600277E+03 0.  0.
         24    2    3    3    0    0 -0.33793677535E+02 -0.62933959835E+02 -0.15971598178E+03  0.19327712384E+03  0.82122809385E+02 0.  0.
         -6    2    1    2    0  502  0.33108140654E+02  0.35265226814E+02 -0.10218046746E+03  0.20569859470E+03  0.17184667215E+03 0.  0.
        -24    2    5    5    0    0 -0.45538112553E+02  0.14857741031E+02 -0.36354250675E+02  0.10102348096E+03  0.81176597608E+02 0.  0.
          5    1    3    3  501    0  0.68553688138E+00  0.27668733021E+02 -0.27671105473E+03  0.27813149149E+03  0.47000000000E+01 0. -1.
        -11    1    4    4    0    0 -0.27092071155E+02 -0.82075323418E+02 -0.14255523391E+03  0.16671032886E+03  0.00000000000E+00 0.  1.
         12    1    4    4    0    0 -0.67016063797E+01  0.19141363583E+02 -0.17160747869E+02  0.26566794976E+02  0.00000000000E+00 0. -1.
         -5    1    5    5    0  502  0.78646253207E+02  0.20407485783E+02 -0.65826216789E+02  0.10467511374E+03  0.47000000000E+01 0.  1.
         11    1    6    6    0    0 -0.17321992523E+02  0.19244763196E+02 -0.59095709037E+02  0.64519106953E+02  0.00000000000E+00 0. -1.
        -12    1    6    6    0    0 -0.28216120030E+02 -0.43870221651E+01  0.22741458362E+02  0.36504374005E+02  0.00000000000E+00 0.  1.
</event>
<event>
12    1  0.9017558E-003  0.2588263E+03  0.7818608E-02  0.1109387E+00
         21   -1    0    0  503  502  0.00000000000E+00  0.00000000000E+00  0.27067991616E+02  0.27067991616E+02  0.00000000000E+00 0. -1.
         21   -1    0    0  501  503 -0.00000000000E+00 -0.00000000000E+00 -0.25262963998E+04  0.25262963998E+04  0.00000000000E+00 0.  1.
          6    2    1    2  501    0  0.17288401235E+03  0.51146219379E+02 -0.15330393809E+04  0.15531082869E+04  0.17155404421E+03 0.  0.
         24    2    3    3    0    0  0.92429533532E+02 -0.36914053019E+02 -0.69644893502E+03  0.70804426636E+03  0.79873012078E+02 0.  0.
         -6    2    1    2    0  502 -0.17288401235E+03 -0.51146219379E+02 -0.96618902735E+03  0.10002561045E+04  0.18570465965E+03 0.  0.
        -24    2    5    5    0    0 -0.14435122108E+03  0.23972192395E+02 -0.49779486239E+03  0.52499609178E+03  0.80057668739E+02 0.  0.
          5    1    3    3  501    0  0.80454478821E+02  0.88060272398E+02 -0.83659044586E+03  0.84506402056E+03  0.47000000000E+01 0. -1.
        -11    1    4    4    0    0  0.10888275827E+02  0.13711095621E+02 -0.30125575277E+02  0.34843923134E+02  0.00000000000E+00 0.  1.
         12    1    4    4    0    0  0.81541257705E+02 -0.50625148640E+02 -0.66632335974E+03  0.67320034323E+03  0.00000000000E+00 0. -1.
         -5    1    5    5    0  502 -0.28532791277E+02 -0.75118411774E+02 -0.46839416495E+03  0.47526001276E+03  0.47000000000E+01 0.  1.
         11    1    6    6    0    0 -0.82138158140E+02 -0.16363814657E+01 -0.15263040944E+03  0.17333608006E+03  0.00000000000E+00 0. -1.
        -12    1    6    6    0    0 -0.62213062936E+02  0.25608573860E+02 -0.34516445296E+03  0.35166001171E+03  0.00000000000E+00 0.  1.
</event>
<event>
12    1  0.9017558E-003  0.2011443E+03  0.7818608E-02  0.1149043E+00
         21   -1    0    0  503  502  0.00000000000E+00  0.00000000000E+00  0.21339374701E+03  0.21339374701E+03  0.00000000000E+00 0. -1.
         21   -1    0    0  501  503 -0.00000000000E+00 -0.00000000000E+00 -0.19945202412E+03  0.19945202412E+03  0.00000000000E+00 0.  1.
          6    2    1    2  501    0  0.10125312847E+03 -0.24070371589E+02 -0.41584118018E+02  0.20539782370E+03  0.17212625684E+03 0.  0.
         24    2    3    3    0    0  0.11942677746E+03  0.86028748091E+01 -0.39708354439E+02  0.16766943867E+03  0.11045144917E+03 0.  0.
         -6    2    1    2    0  502 -0.10125312847E+03  0.24070371589E+02  0.55525840915E+02  0.20744794743E+03  0.17064569456E+03 0.  0.
        -24    2    5    5    0    0 -0.41881669301E+02  0.77640001249E+01  0.97339912094E+02  0.13287332398E+03  0.79786639348E+02 0.  0.
          5    1    3    3  501    0 -0.18173648986E+02 -0.32673246398E+02 -0.18757635792E+01  0.37728385026E+02  0.47000000000E+01 0. -1.
        -13    1    4    4    0    0 -0.14684197687E+02 -0.14503446477E+02  0.98117065353E+01  0.22852684887E+02  0.00000000000E+00 0.  1.
         14    1    4    4    0    0  0.13411097514E+03  0.23106321286E+02 -0.49520060974E+02  0.14481675378E+03  0.00000000000E+00 0. -1.
         -5    1    5    5    0  502 -0.59371459169E+02  0.16306371464E+02 -0.41814071179E+02  0.74574623450E+02  0.47000000000E+01 0.  1.
         11    1    6    6    0    0 -0.59327759737E+02  0.24625600517E+02  0.57419394565E+02  0.86157937234E+02  0.00000000000E+00 0. -1.
        -12    1    6    6    0    0  0.17446090437E+02 -0.16861600392E+02  0.39920517529E+02  0.46715386749E+02  0.00000000000E+00 0.  1.
</event>
<event>
12    1  0.9017558E-003  0.1804310E+03  0.7818608E-02  0.1167485E+00
         21   -1    0    0  503  502  0.00000000000E+00  0.00000000000E+00  0.20542857832E+03  0.20542857832E+03  0.00000000000E+00 0.  1.
         21   -1    0    0  501  503 -0.00000000000E+00 -0.00000000000E+00 -0.16623034580E+03  0.16623034580E+03  0.00000000000E+00 0.  1.
          6    2    1    2  501    0 -0.34944525316E+02 -0.39422349936E+02 -0.21433859749E+02  0.18169963598E+03  0.17256913353E+03 0.  0.
         24    2    3    3    0    0 -0.67235232035E+02 -0.74434914014E+02 -0.47160723514E+01  0.13100305031E+03  0.84133376257E+02 0.  0.
         -6    2    1    2    0  502  0.34944525316E+02  0.39422349936E+02  0.60632092264E+02  0.18995928814E+03  0.17214249625E+03 0.  0.
        -24    2    5    5    0    0 -0.19308931678E+02  0.30925054436E+02  0.91775164383E+02  0.12665350193E+03  0.79304696708E+02 0.  0.
          5    1    3    3  501    0  0.32290706719E+02  0.35012564077E+02 -0.16717787397E+02  0.50696585675E+02  0.47000000000E+01 0. -1.
        -11    1    4    4    0    0  0.19464283995E+02 -0.20904700180E+02  0.35090663829E+01  0.28778088678E+02  0.00000000000E+00 0.  1.
         12    1    4    4    0    0 -0.86699516030E+02 -0.53530213833E+02 -0.82251387344E+01  0.10222496163E+03  0.00000000000E+00 0. -1.
         -5    1    5    5    0  502  0.54253456993E+02  0.84972954996E+01 -0.31143072119E+02  0.63305786209E+02  0.47000000000E+01 0.  1.
         13    1    6    6    0    0  0.24384136195E+02  0.24377957095E+02  0.68566059374E+02  0.76747478057E+02  0.00000000000E+00 0. -1.
        -14    1    6    6    0    0 -0.43693067873E+02  0.65470973417E+01  0.23209105009E+02  0.49906023876E+02  0.00000000000E+00 0.  1.
</event>
<event>
12    1  0.9017558E-003  0.1825179E+03  0.7818608E-02  0.1166165E+00
         21   -1    0    0  501  502  0.00000000000E+00  0.00000000000E+00  0.12684586797E+04  0.12684586797E+04  0.00000000000E+00 0.  1.
         21   -1    0    0  502  503 -0.00000000000E+00 -0.00000000000E+00 -0.26754187942E+02  0.26754187942E+02  0.00000000000E+00 0.  1.
          6    2    1    2  501    0 -0.53012089444E+00 -0.46010468933E+02  0.73787789066E+03  0.75934532844E+03  0.17327522044E+03 0.  0.
         24    2    3    3    0    0 -0.98098287077E+01 -0.80760805289E+02  0.30215420067E+03  0.32211435645E+03  0.76432697418E+02 0.  0.
         -6    2    1    2    0  503  0.53012089444E+00  0.46010468933E+02  0.50382660114E+03  0.53586753924E+03  0.17662256741E+03 0.  0.
        -24    2    5    5    0    0  0.39881138331E+01 -0.43823173724E+02  0.19494786993E+03  0.21413752563E+03  0.76901445267E+02 0.  0.
          5    1    3    3  501    0  0.92797078133E+01  0.34750336355E+02  0.43572368998E+03  0.43723097199E+03  0.47000000000E+01 0. -1.
        -11    1    4    4    0    0 -0.11597026721E+02 -0.30036318024E+02  0.23868212938E+03  0.24084399580E+03  0.00000000000E+00 0.  1.
         12    1    4    4    0    0  0.17871980129E+01 -0.50724487265E+02  0.63472071297E+02  0.81270360647E+02  0.00000000000E+00 0. -1.
         -5    1    5    5    0  503 -0.34579929387E+01  0.89833642658E+02  0.30887873121E+03  0.32173001362E+03  0.47000000000E+01 0.  1.
         11    1    6    6    0    0 -0.18131226461E+01  0.20840177772E+02  0.73582923916E+02  0.76498673945E+02  0.00000000000E+00 0. -1.
        -12    1    6    6    0    0  0.58012364792E+01 -0.64663351496E+02  0.12136494601E+03  0.13763885168E+03  0.00000000000E+00 0.  1.
</event>
<event>
12    1  0.9017558E-003  0.1845903E+03  0.7818608E-02  0.1163994E+00
         21   -1    0    0  503  502  0.00000000000E+00  0.00000000000E+00  0.52625808082E+03  0.52625808082E+03  0.00000000000E+00 0. -1.
         21   -1    0    0  501  503 -0.00000000000E+00 -0.00000000000E+00 -0.63932663294E+02  0.63932663294E+02  0.00000000000E+00 0.  1.
          6    2    1    2  501    0 -0.54621504678E+02  0.22070280733E+02  0.22777177000E+03  0.29317834360E+03  0.17493700547E+03 0.  0.
         24    2    3    3    0    0 -0.48373884042E+02 -0.35526379745E+02  0.62552128929E+02  0.11803261040E+03  0.80104756224E+02 0.  0.
         -6    2    1    2    0  502  0.54621504678E+02 -0.22070280733E+02  0.23455364753E+03  0.29701240052E+03  0.17242490083E+03 0.  0.
        -24    2    5    5    0    0  0.10042640169E+03 -0.25823455356E+02  0.14118481130E+03  0.19283944582E+03  0.80632424747E+02 0.  0.
          5    1    3    3  501    0 -0.62476206355E+01  0.57596660478E+02  0.16521964107E+03  0.17514573320E+03  0.47000000000E+01 0. -1.
        -11    1    4    4    0    0  0.40094912679E+01 -0.38871742987E+02  0.51062360950E+02  0.64299713288E+02  0.00000000000E+00 0.  1.
         12    1    4    4    0    0 -0.52383375310E+02  0.33453632418E+01  0.11489767978E+02  0.53732897114E+02  0.00000000000E+00 0. -1.
         -5    1    5    5    0  502 -0.45804897016E+02  0.37531746229E+01  0.93368836235E+02  0.10417295470E+03  0.47000000000E+01 0.  1.
         13    1    6    6    0    0  0.52445468556E+01  0.23422760455E+02  0.22008387678E+02  0.32565320622E+02  0.00000000000E+00 0. -1.
        -14    1    6    6    0    0  0.95181854838E+02 -0.49246215811E+02  0.11917642362E+03  0.16027412520E+03  0.00000000000E+00 0.  1.
</event>
<event>
12    1  0.9017558E-003  0.2728281E+03  0.7818608E-02  0.1099963E+00
         21   -1    0    0  503  502  0.00000000000E+00  0.00000000000E+00  0.31139952605E+03  0.31139952605E+03  0.00000000000E+00 0. -1.
         21   -1    0    0  501  503 -0.00000000000E+00 -0.00000000000E+00 -0.23847793474E+03  0.23847793474E+03  0.00000000000E+00 0.  1.
          6    2    1    2  501    0 -0.13536735852E+03 -0.16157734924E+03  0.56408001301E+02  0.27859829745E+03  0.17321543577E+03 0.  0.
         24    2    3    3    0    0 -0.14563764761E+03 -0.16369774661E+03  0.82346947734E+02  0.25022764597E+03  0.88462299090E+02 0.  0.
         -6    2    1    2    0  502  0.13536735852E+03  0.16157734924E+03  0.16513590005E+02  0.27127916334E+03  0.16996506779E+03 0.  0.
        -24    2    5    5    0    0  0.12951416632E+03  0.58923270992E+02 -0.14087828568E+02  0.16389826906E+03  0.80114321718E+02 0.  0.
          5    1    3    3  501    0  0.10270289092E+02  0.21203973731E+01 -0.25938946433E+02  0.28370651475E+02  0.47000000000E+01 0. -1.
        -11    1    4    4    0    0 -0.24372051149E+02 -0.91678524727E+02  0.40165349652E+02  0.10301555264E+03  0.00000000000E+00 0.  1.
         12    1    4    4    0    0 -0.12126559646E+03 -0.72019221885E+02  0.42181598082E+02  0.14721209333E+03  0.00000000000E+00 0. -1.
         -5    1    5    5    0  502  0.58531922026E+01  0.10265407825E+03  0.30601418574E+02  0.10738089429E+03  0.47000000000E+01 0.  1.
         11    1    6    6    0    0  0.80198890601E+02  0.41164605488E+02  0.30414603245E+02  0.95139029264E+02  0.00000000000E+00 0. -1.
        -12    1    6    6    0    0  0.49315275716E+02  0.17758665504E+02 -0.44502431814E+02  0.68759239792E+02  0.00000000000E+00 0.  1.
</event>
<event>
12    1  0.9017558E-003  0.2121684E+03  0.7818608E-02  0.1140728E+00
         21   -1    0    0  501  502  0.00000000000E+00  0.00000000000E+00  0.12038532549E+04  0.12038532549E+04  0.00000000000E+00 0.  1.
         21   -1    0    0  502  503 -0.00000000000E+00 -0.00000000000E+00 -0.47733223005E+02  0.47733223005E+02  0.00000000000E+00 0.  1.
          6    2    1    2  501    0  0.29608082604E+02 -0.11985640325E+03  0.88460257800E+03  0.90969068081E+03  0.17254917498E+03 0.  0.
         24    2    3    3    0    0  0.10464107765E+02 -0.14833624415E+03  0.82013670379E+03  0.83650918008E+03  0.70783165974E+02 0.  0.
         -6    2    1    2    0  503 -0.29608082604E+02  0.11985640325E+03  0.27151745391E+03  0.34189579712E+03  0.16711915615E+03 0.  0.
        -24    2    5    5    0    0  0.40892156504E+02  0.52545014052E+02  0.10321296893E+03  0.14734606955E+03  0.81392876177E+02 0.  0.
          5    1    3    3  501    0  0.19143974840E+02  0.28479840897E+02  0.64465874213E+02  0.73181500724E+02  0.47000000000E+01 0. -1.
        -13    1    4    4    0    0  0.31474519171E+02 -0.34141019574E+02  0.29979622086E+03  0.30337110709E+03  0.00000000000E+00 0.  1.
         14    1    4    4    0    0 -0.21010411406E+02 -0.11419522457E+03  0.52034048293E+03  0.53313807299E+03  0.00000000000E+00 0. -1.
         -5    1    5    5    0  503 -0.70500239108E+02  0.67311389195E+02  0.16830448499E+03  0.19454972757E+03  0.47000000000E+01 0.  1.
         11    1    6    6    0    0 -0.16214359722E+02 -0.30051131807E+00  0.51322526586E+02  0.53823763371E+02  0.00000000000E+00 0. -1.
        -12    1    6    6    0    0  0.57106516225E+02  0.52845525370E+02  0.51890442344E+02  0.93522306183E+02  0.00000000000E+00 0.  1.
</event>
<event>
12    1  0.9017558E-003  0.2247643E+03  0.7818608E-02  0.1131208E+00
         21   -1    0    0  501  502  0.00000000000E+00  0.00000000000E+00  0.54744946201E+03  0.54744946201E+03  0.00000000000E+00 0.  1.
         21   -1    0    0  502  503 -0.00000000000E+00 -0.00000000000E+00 -0.91444522070E+02  0.91444522070E+02  0.00000000000E+00 0.  1.
          6    2    1    2  501    0 -0.72282023227E+02  0.12474500283E+03  0.19213658706E+03  0.29227389012E+03  0.16649790433E+03 0.  0.
         24    2    3    3    0    0 -0.51555450650E+02  0.27059034716E+01  0.95515268678E+02  0.13517232504E+03  0.80517727874E+02 0.  0.
         -6    2    1    2    0  503  0.72282023227E+02 -0.12474500283E+03  0.26386835289E+03  0.34662009396E+03  0.17243252382E+03 0.  0.
        -24    2    5    5    0    0  0.96548951270E+02 -0.11860573203E+03  0.27014288070E+03  0.32038968905E+03  0.79267630170E+02 0.  0.
          5    1    3    3  501    0 -0.20726572577E+02  0.12203909936E+03  0.96621318377E+02  0.15710156507E+03  0.47000000000E+01 0. -1.
        -11    1    4    4    0    0 -0.40607819982E+02 -0.58960283194E+01  0.10858294021E+03  0.11607761670E+03  0.00000000000E+00 0.  1.
         12    1    4    4    0    0 -0.10947630668E+02  0.86019317910E+01 -0.13067671529E+02  0.19094708350E+02  0.00000000000E+00 0. -1.
         -5    1    5    5    0  503 -0.24266928044E+02 -0.61392708051E+01 -0.62745278164E+01  0.26230404915E+02  0.47000000000E+01 0.  1.
         11    1    6    6    0    0  0.72528178472E+02 -0.29496272098E+02  0.14638258087E+03  0.16600670686E+03  0.00000000000E+00 0. -1.
        -12    1    6    6    0    0  0.24020772798E+02 -0.89109459928E+02  0.12376029983E+03  0.15438298218E+03  0.00000000000E+00 0.  1.
</event>
<event>
12    1  0.9017558E-003  0.2453411E+03  0.7818608E-02  0.1116474E+00
         21   -1    0    0  503  502  0.00000000000E+00  0.00000000000E+00  0.11478017769E+04  0.11478017769E+04  0.00000000000E+00 0.  1.
         21   -1    0    0  501  503 -0.00000000000E+00 -0.00000000000E+00 -0.55802763291E+02  0.55802763291E+02  0.00000000000E+00 0.  1.
          6    2    1    2  501    0 -0.16662408596E+03  0.50885785685E+02  0.69784132106E+03  0.73932818209E+03  0.17108682662E+03 0.  0.
         24    2    3    3    0    0 -0.69432967953E+02 -0.34696389071E+02  0.26424366266E+03  0.28678045927E+03  0.79959628004E+02 0.  0.
         -6    2    1    2    0  502  0.16662408596E+03 -0.50885785685E+02  0.39415769255E+03  0.46427635811E+03  0.17274055949E+03 0.  0.
        -24    2    5    5    0    0  0.15946416307E+03 -0.74771552930E+02  0.39353681490E+03  0.43889388656E+03  0.82079318641E+02 0.  0.
          5    1    3    3  501    0 -0.97191118009E+02  0.85582174756E+02  0.43359765840E+03  0.45254772281E+03  0.47000000000E+01 0. -1.
        -13    1    4    4    0    0 -0.20163756091E+02  0.20188522861E+02  0.13491176982E+03  0.13789611725E+03  0.00000000000E+00 0.  1.
         14    1    4    4    0    0 -0.49269211863E+02 -0.54884911931E+02  0.12933189284E+03  0.14888434203E+03  0.00000000000E+00 0. -1.
         -5    1    5    5    0  502  0.71599228934E+01  0.23885767245E+02  0.62087765223E+00  0.25382471546E+02  0.47000000000E+01 0.  1.
         11    1    6    6    0    0  0.39773950048E+02 -0.35732149883E+02  0.20738620394E+03  0.21416767081E+03  0.00000000000E+00 0. -1.
        -12    1    6    6    0    0  0.11969021302E+03 -0.39039403047E+02  0.18615061096E+03  0.22472621575E+03  0.00000000000E+00 0.  1.
</event>
<event>
12    1  0.9017558E-003  0.2435245E+03  0.7818608E-02  0.1118177E+00
         21   -1    0    0  503  502  0.00000000000E+00  0.00000000000E+00  0.74608541754E+03  0.74608541754E+03  0.00000000000E+00 0. -1.
         21   -1    0    0  501  503 -0.00000000000E+00 -0.00000000000E+00 -0.80627057068E+02  0.80627057068E+02  0.00000000000E+00 0. -1.
          6    2    1    2  501    0 -0.15629350963E+03 -0.73699477078E+02  0.25653103815E+03  0.35076527352E+03  0.16543527284E+03 0.  0.
         24    2    3    3    0    0 -0.56203484331E+02  0.21304536932E+02  0.12520832302E+03  0.16020945138E+03  0.79857555772E+02 0.  0.
         -6    2    1    2    0  502  0.15629350963E+03  0.73699477078E+02  0.40892732232E+03  0.47594720109E+03  0.17159518993E+03 0.  0.
        -24    2    5    5    0    0  0.32376645334E+02  0.85682063499E+02  0.19149990560E+03  0.22535641280E+03  0.75654714155E+02 0.  0.
          5    1    3    3  501    0 -0.10009002530E+03 -0.95004014011E+02  0.13132271513E+03  0.19055582214E+03  0.47000000000E+01 0. -1.
        -13    1    4    4    0    0 -0.65739008876E+02  0.26125712632E+02  0.56113654551E+02  0.90293479142E+02  0.00000000000E+00 0.  1.
         14    1    4    4    0    0  0.95355245448E+01 -0.48211756994E+01  0.69094668469E+02  0.69915972240E+02  0.00000000000E+00 0. -1.
         -5    1    5    5    0  502  0.12391686430E+03 -0.11982586421E+02  0.21742741672E+03  0.25059078829E+03  0.47000000000E+01 0.  1.
         11    1    6    6    0    0  0.30389564327E+02 -0.25881234932E+01  0.50262850617E+02  0.58792670933E+02  0.00000000000E+00 0. -1.
        -12    1    6    6    0    0  0.19870810067E+01  0.88270186993E+02  0.14123705498E+03  0.16656374186E+03  0.00000000000E+00 0.  1.
</event>
<event>
12    1  0.9017558E-003  0.1808353E+03  0.7818608E-02  0.1167648E+00
         21   -1    0    0  501  502  0.00000000000E+00  0.00000000000E+00  0.31629818776E+03  0.31629818776E+03  0.00000000000E+00 0.  1.
         21   -1    0    0  502  503 -0.00000000000E+00 -0.00000000000E+00 -0.14049089891E+03  0.14049089891E+03  0.00000000000E+00 0.  1.
          6    2    1    2  501    0 -0.45186843181E+02  0.24870042528E+01  0.20814650978E+03  0.27572879310E+03  0.17508101502E+03 0.  0.
         24    2    3    3    0    0  0.44666631256E+01 -0.57659103277E+02  0.91854629239E+02  0.13562555823E+03  0.81317254397E+02 0.  0.
         -6    2    1    2    0  503  0.45186843181E+02 -0.24870042528E+01 -0.32339220936E+02  0.18106029358E+03  0.17230487142E+03 0.  0.
        -24    2    5    5    0    0  0.52348836358E+02  0.17118333459E+02 -0.82011378249E+02  0.12697631605E+03  0.79772681210E+02 0.  0.
          5    1    3    3  501    0 -0.49653506307E+02  0.60146107529E+02  0.11629188055E+03  0.14010323487E+03  0.47000000000E+01 0. -1.
        -13    1    4    4    0    0 -0.34378136664E+02 -0.47239135177E+02  0.64271761412E+02  0.86857650715E+02  0.00000000000E+00 0.  1.
         14    1    4    4    0    0  0.38844799790E+02 -0.10419968100E+02  0.27582867827E+02  0.48767907515E+02  0.00000000000E+00 0. -1.
         -5    1    5    5    0  503 -0.71619931773E+01 -0.19605337712E+02  0.49672157313E+02  0.54083977527E+02  0.47000000000E+01 0.  1.
         11    1    6    6    0    0 -0.17121596763E+02  0.19716126198E+02 -0.32182672174E+02  0.41443927133E+02  0.00000000000E+00 0. -1.
        -12    1    6    6    0    0  0.69470433121E+02 -0.25977927389E+01 -0.49828706074E+02  0.85532388919E+02  0.00000000000E+00 0.  1.
</event>
<event>
12    1  0.9017558E-003  0.2151530E+03  0.7818608E-02  0.1137592E+00
         21   -1    0    0  501  502  0.00000000000E+00  0.00000000000E+00  0.89872797810E+03  0.89872797810E+03  0.00000000000E+00 0. -1.
         21   -1    0    0  502  503 -0.00000000000E+00 -0.00000000000E+00 -0.52845860561E+02  0.52845860561E+02  0.00000000000E+00 0. -1.
          6    2    1    2  501    0  0.70122892283E+02 -0.10757929778E+03  0.34592664547E+03  0.40737702812E+03  0.17262755765E+03 0.  0.
         24    2    3    3    0    0 -0.20444133837E+02 -0.14172564150E+02  0.14876547918E+03  0.17111061155E+03  0.80801295815E+02 0.  0.
         -6    2    1    2    0  503 -0.70122892283E+02  0.10757929778E+03  0.49995547207E+03  0.54419681054E+03  0.17234897510E+03 0.  0.
        -24    2    5    5    0    0 -0.79284387875E+02  0.57049638761E+02  0.46317258163E+03  0.48085448290E+03  0.84566647714E+02 0.  0.
          5    1    3    3  501    0  0.90567026120E+02 -0.93406733629E+02  0.19716116629E+03  0.23626641657E+03  0.47000000000E+01 0. -1.
        -11    1    4    4    0    0  0.36465461909E+01 -0.36303880544E+02  0.12620226122E+03  0.13137077217E+03  0.00000000000E+00 0.  1.
         12    1    4    4    0    0 -0.24090680028E+02  0.22131316394E+02  0.22563217959E+02  0.39739839383E+02  0.00000000000E+00 0. -1.
         -5    1    5    5    0  503  0.91614955920E+01  0.50529659018E+02  0.36782890435E+02  0.63342327639E+02  0.47000000000E+01 0.  1.
         11    1    6    6    0    0 -0.74067368947E+02  0.34220448113E+02  0.19126889546E+03  0.20794423431E+03  0.00000000000E+00 0. -1.
        -12    1    6    6    0    0 -0.52170189283E+01  0.22829190649E+02  0.27190368617E+03  0.27291024859E+03  0.00000000000E+00 0.  1.
</event>
<event>
12    1  0.9017558E-003  0.2094713E+03  0.7818608E-02  0.1142092E+00
         21   -1    0    0  503  502  0.00000000000E+00  0.00000000000E+00  0.29940236281E+03  0.29940236281E+03  0.00000000000E+00 0.  1.
         21   -1    0    0  501  503 -0.00000000000E+00 -0.00000000000E+00 -0.14674189604E+03  0.14674189604E+03  0.00000000000E+00 0. -1.
          6    2    1    2  501    0 -0.61720062394E+02  0.10064977864E+03  0.62589385468E+02  0.21862214030E+03  0.17302735337E+03 0.  0.
         24    2    3    3    0    0 -0.22368444754E+02 -0.15879313907E+02  0.23854809875E+02  0.89587119602E+02  0.81879790629E+02 0.  0.
         -6    2    1    2    0  502  0.61720062394E+02 -0.10064977864E+03  0.90071081301E+02  0.22752211855E+03  0.17237682763E+03 0.  0.
        -24    2    5    5    0    0  0.97191045832E+02 -0.50622151296E+02  0.23634150412E+02  0.13698533073E+03  0.78725511607E+02 0.  0.
          5    1    3    3  501    0 -0.39351617639E+02  0.11652909255E+03  0.38734575594E+02  0.12903502070E+03  0.47000000000E+01 0. -1.
        -13    1    4    4    0    0 -0.20828109994E+02 -0.21485056219E+02  0.52461555088E+02  0.60395633690E+02  0.00000000000E+00 0.  1.
         14    1    4    4    0    0 -0.15403347601E+01  0.56057423117E+01 -0.28606745213E+02  0.29191485911E+02  0.00000000000E+00 0. -1.
         -5    1    5    5    0  502 -0.35470983438E+02 -0.50027627343E+02  0.66436930888E+02  0.90536787824E+02  0.47000000000E+01 0.  1.
         11    1    6    6    0    0  0.30385871715E+02 -0.35706391202E+02 -0.24888111901E+02  0.53081688807E+02  0.00000000000E+00 0. -1.
        -12    1    6    6    0    0  0.66805174117E+02 -0.14915760093E+02  0.48522262314E+02  0.83903641923E+02  0.00000000000E+00 0.  1.
</event>
<event>
12    1  0.9017558E-003  0.2017463E+03  0.7818608E-02  0.1149030E+00
         21   -1    0    0  503  502  0.00000000000E+00  0.00000000000E+00  0.29781721678E+03  0.29781721678E+03  0.00000000000E+00 0. -1.
         21   -1    0    0  501  503 -0.00000000000E+00 -0.00000000000E+00 -0.15246735050E+03  0.15246735050E+03  0.00000000000E+00 0. -1.
          6    2    1    2  501    0 -0.94690383683E+02  0.34292225415E+02 -0.57321396923E+01  0.19823828276E+03  0.17065560008E+03 0.  0.
         24    2    3    3    0    0 -0.99301911691E+02  0.81987659259E+02 -0.98615393232E+01  0.14991372853E+03  0.76118526703E+02 0.  0.
         -6    2    1    2    0  502  0.94690383683E+02 -0.34292225415E+02  0.15108200597E+03  0.25204628452E+03  0.17481227511E+03 0.  0.
        -24    2    5    5    0    0  0.65600389340E+02  0.24184558380E+02  0.24129311601E+02  0.10920077839E+03  0.80338548517E+02 0.  0.
          5    1    3    3  501    0  0.46115280073E+01 -0.47695433844E+02  0.41293996310E+01  0.48324554229E+02  0.47000000000E+01 0. -1.
        -11    1    4    4    0    0 -0.72377518251E+01  0.16098077975E+02 -0.30111947681E+02  0.34903618138E+02  0.00000000000E+00 0.  1.
         12    1    4    4    0    0 -0.92064159865E+02  0.65889581283E+02  0.20250408358E+02  0.11501011039E+03  0.00000000000E+00 0. -1.
         -5    1    5    5    0  502  0.29089994343E+02 -0.58476783795E+02  0.12695269436E+03  0.14284550613E+03  0.47000000000E+01 0.  1.
         11    1    6    6    0    0 -0.12809112108E+01  0.36011137097E+02 -0.27899152075E+01  0.36141753629E+02  0.00000000000E+00 0. -1.
        -12    1    6    6    0    0  0.66881300551E+02 -0.11826578717E+02  0.26919226808E+02  0.73059024764E+02  0.00000000000E+00 0.  1.
</event>
<event>
12    1  0.9017558E-003  0.2589962E+03  0.7818608E-02  0.1107821E+00
         21   -1    0    0  503  502  0.00000000000E+00  0.00000000000E+00  0.17731443609E+03  0.17731443609E+03  0.00000000000E+00 0. -1.
         21   -1    0    0  501  503 -0.00000000000E+00 -0.00000000000E+00 -0.37949211159E+03  0.37949211159E+03  0.00000000000E+00 0. -1.
          6    2    1    2  501    0  0.12466901508E+03 -0.14895397625E+03 -0.81350935281E+02  0.27101267358E+03  0.17058793687E+03 0.  0.
         24    2    3    3    0    0  0.49782578816E+02 -0.10887030685E+02 -0.60085289639E+02  0.11244162490E+03  0.80224961134E+02 0.  0.
         -6    2    1    2    0  502 -0.12466901508E+03  0.14895397625E+03 -0.12082674023E+03  0.28579387410E+03  0.17131662780E+03 0.  0.
        -24    2    5    5    0    0 -0.10107079715E+03  0.17191780395E+03 -0.12966603196E+03  0.25137823302E+03  0.81281602116E+02 0.  0.
          5    1    3    3  501    0  0.74886436268E+02 -0.13806694556E+03 -0.21265645642E+02  0.15857104867E+03  0.47000000000E+01 0. -1.
        -11    1    4    4    0    0  0.16150798735E+02 -0.39413864539E+02 -0.52643571415E+02  0.67717402704E+02  0.00000000000E+00 0.  1.
         12    1    4    4    0    0  0.33631780081E+02  0.28526833854E+02 -0.74417182239E+01  0.44724222198E+02  0.00000000000E+00 0. -1.
         -5    1    5    5    0  502 -0.23598217935E+02 -0.22963827703E+02  0.88392917385E+01  0.34415641079E+02  0.47000000000E+01 0.  1.
         13    1    6    6    0    0 -0.60654159716E+02  0.78716360369E+02 -0.10938782819E+03  0.14778663484E+03  0.00000000000E+00 0. -1.
        -14    1    6    6    0    0 -0.40416637434E+02  0.93201443579E+02 -0.20278203775E+02  0.10359159819E+03  0.00000000000E+00 0.  1.
</event>
<event>
12    1  0.9017558E-003  0.2047533E+03  0.7818608E-02  0.1146020E+00
         21   -1    0    0  503  502  0.00000000000E+00  0.00000000000E+00  0.68954725866E+02  0.68954725866E+02  0.00000000000E+00 0.  1.
         21   -1    0    0  501  503 -0.00000000000E+00 -0.00000000000E+00 -0.68718013161E+03  0.68718013161E+03  0.00000000000E+00 0. -1.
          6    2    1    2  501    0 -0.11006417232E+03  0.52534574166E+01 -0.17734513581E+03  0.27002854753E+03  0.17123784174E+03 0.  0.
         24    2    3    3    0    0 -0.37311703886E+02  0.45440847032E+02 -0.39001250156E+02  0.10856936184E+03  0.82517725307E+02 0.  0.
         -6    2    1    2    0  502  0.11006417232E+03 -0.52534574166E+01 -0.44088026993E+03  0.48610630995E+03  0.17257523377E+03 0.  0.
        -24    2    5    5    0    0  0.11080992776E+03 -0.34475889641E+02 -0.21868689930E+03  0.26194901997E+03  0.85591483687E+02 0.  0.
          5    1    3    3  501    0 -0.72752468431E+02 -0.40187389615E+02 -0.13834388566E+03  0.16145918570E+03  0.47000000000E+01 0. -1.
        -13    1    4    4    0    0 -0.63460656405E+02  0.26950094376E+02 -0.30780224657E+02  0.75504865592E+02  0.00000000000E+00 0.  1.
         14    1    4    4    0    0  0.26148952518E+02  0.18490752656E+02 -0.82210254990E+01  0.33064496243E+02  0.00000000000E+00 0. -1.
         -5    1    5    5    0  502 -0.74575544685E+00  0.29222432224E+02 -0.22219337064E+03  0.22415728998E+03  0.47000000000E+01 0.  1.
         13    1    6    6    0    0  0.63190166242E+02 -0.59246554484E+02 -0.16310721597E+03  0.18468111769E+03  0.00000000000E+00 0. -1.
        -14    1    6    6    0    0  0.47619761523E+02  0.24770664843E+02 -0.55579683326E+02  0.77267902281E+02  0.00000000000E+00 0.  1.
</event>
<event>
12    1  0.9017558E-003  0.1835470E+03  0.7818608E-02  0.1165036E+00
         21   -1    0    0  503  502  0.00000000000E+00  0.00000000000E+00  0.86518281231E+03  0.86518281231E+03  0.00000000000E+00 0.  1.
         21   -1    0    0  501  503 -0.00000000000E+00 -0.00000000000E+00 -0.52982771638E+02  0.52982771638E+02  0.00000000000E+00 0.  1.
          6    2    1    2  501    0  0.14348134323E+02 -0.50544746045E+02  0.16302752071E+03  0.24354386434E+03  0.17313289993E+03 0.  0.
         24    2    3    3    0    0  0.23395971730E+02 -0.92004126578E+02  0.15759788350E+03  0.20050534025E+03  0.79706761215E+02 0.  0.
         -6    2    1    2    0  502 -0.14348134323E+02  0.50544746045E+02  0.64917251997E+03  0.67462171961E+03  0.17586603874E+03 0.  0.
        -24    2    5    5    0    0  0.27702237586E+02 -0.20616526635E+02  0.45772650811E+03  0.46604121726E+03  0.80550635111E+02 0.  0.
          5    1    3    3  501    0 -0.90478374065E+01  0.41459380533E+02  0.54296372113E+01  0.43038524094E+02  0.47000000000E+01 0. -1.
        -13    1    4    4    0    0  0.16459099730E+02 -0.11231106241E+02  0.97690928062E+02  0.99702342685E+02  0.00000000000E+00 0.  1.
         14    1    4    4    0    0  0.69368720001E+01 -0.80773020338E+02  0.59906955436E+02  0.10080299756E+03  0.00000000000E+00 0. -1.
         -5    1    5    5    0  502 -0.42050371909E+02  0.71161272681E+02  0.19144601186E+03  0.20858050235E+03  0.47000000000E+01 0.  1.
         11    1    6    6    0    0  0.30207556750E+02 -0.29071061202E+02  0.10300262731E+03  0.11120775295E+03  0.00000000000E+00 0. -1.
        -12    1    6    6    0    0 -0.25053191642E+01  0.84545345668E+01  0.35472388080E+03  0.35483346430E+03  0.00000000000E+00 0.  1.
</event>
<event>
12    1  0.9017558E-003  0.2390849E+03  0.7818608E-02  0.1120634E+00
         21   -1    0    0  501  502  0.00000000000E+00  0.00000000000E+00  0.41743254597E+03  0.41743254597E+03  0.00000000000E+00 0. -1.
         21   -1    0    0  502  503 -0.00000000000E+00 -0.00000000000E+00 -0.13754699060E+03  0.13754699060E+03  0.00000000000E+00 0. -1.
          6    2    1    2  501    0  0.10783109948E+03 -0.12674955827E+03  0.11159816889E+03  0.26260606681E+03  0.16974922236E+03 0.  0.
         24    2    3    3    0    0  0.40649412043E+02 -0.12329168313E+03  0.26240217569E+02  0.15382460754E+03  0.78232007761E+02 0.  0.
         -6    2    1    2    0  503 -0.10783109948E+03  0.12674955827E+03  0.16828738648E+03  0.29237346977E+03  0.17166422119E+03 0.  0.
        -24    2    5    5    0    0 -0.50005373447E+02  0.12676258765E+03  0.17074440943E+03  0.23430504700E+03  0.84710747221E+02 0.  0.
          5    1    3    3  501    0  0.67181687438E+02 -0.34578751342E+01  0.85357951318E+02  0.10878145927E+03  0.47000000000E+01 0. -1.
        -11    1    4    4    0    0  0.49065215611E+02 -0.42275238414E+02  0.31861333597E+02  0.72178499185E+02  0.00000000000E+00 0.  1.
         12    1    4    4    0    0 -0.84158035684E+01 -0.81016444718E+02 -0.56211160281E+01  0.81646108357E+02  0.00000000000E+00 0. -1.
         -5    1    5    5    0  503 -0.57825726034E+02 -0.13029383419E-01 -0.24570229483E+01  0.58068422769E+02  0.47000000000E+01 0.  1.
         11    1    6    6    0    0 -0.63570482533E+02  0.10084071063E+03  0.92857422246E+02  0.15110445406E+03  0.00000000000E+00 0. -1.
        -12    1    6    6    0    0  0.13565109086E+02  0.25921877021E+02  0.77886987184E+02  0.83200592939E+02  0.00000000000E+00 0.  1.
</event>
<event>
12    1  0.9017558E-003  0.1744949E+03  0.7818608E-02  0.1173580E+00
         21   -1    0    0  503  502  0.00000000000E+00  0.00000000000E+00  0.31361314550E+03  0.31361314550E+03  0.00000000000E+00 0. -1.
         21   -1    0    0  501  503 -0.00000000000E+00 -0.00000000000E+00 -0.96944726423E+02  0.96944726423E+02  0.00000000000E+00 0. -1.
          6    2    1    2  501    0  0.27008807655E+02  0.22252753247E+02  0.92566217332E+02  0.19752716957E+03  0.17094975112E+03 0.  0.
         24    2    3    3    0    0 -0.42999681009E+01  0.74295882334E+02  0.83021423285E+02  0.13586745972E+03  0.77646906121E+02 0.  0.
         -6    2    1    2    0  502 -0.27008807655E+02 -0.22252753247E+02  0.12410220175E+03  0.21303070236E+03  0.16957612730E+03 0.  0.
        -24    2    5    5    0    0 -0.57572847455E+02 -0.81280226337E+01  0.18969614353E+02  0.10253808054E+03  0.82301361934E+02 0.  0.
          5    1    3    3  501    0  0.31308775756E+02 -0.52043129087E+02  0.95447940471E+01  0.61659709843E+02  0.47000000000E+01 0. -1.
        -11    1    4    4    0    0  0.17460854540E+01 -0.68038577193E+01  0.45963896000E+02  0.46497537889E+02  0.00000000000E+00 0.  1.
         12    1    4    4    0    0 -0.60460535550E+01  0.81099740054E+02  0.37057527285E+02  0.89369921835E+02  0.00000000000E+00 0. -1.
         -5    1    5    5    0  502  0.30564039800E+02 -0.14124730613E+02  0.10513258740E+03  0.11049262182E+03  0.47000000000E+01 0.  1.
         13    1    6    6    0    0  0.16133273206E+02 -0.20434222259E+02  0.43981572665E+01  0.26404236990E+02  0.00000000000E+00 0. -1.
        -14    1    6    6    0    0 -0.73706120661E+02  0.12306199626E+02  0.14571457086E+02  0.76133843551E+02  0.00000000000E+00 0.  1.
</event>
<event>
12    1  0.9017558E-003  0.1906060E+03  0.7818608E-02  0.1158259E+00
         21   -1    0    0  501  502  0.00000000000E+00  0.00000000000E+00  0.12418847970E+03  0.12418847970E+03  0.00000000000E+00 0.  1.
         21   -1    0    0  502  503 -0.00000000000E+00 -0.00000000000E+00 -0.35050413562E+03  0.35050413562E+03  0.00000000000E+00 0.  1.
          6    2    1    2  501    0 -0.74106242714E+02  0.34668885738E+02 -0.15095495490E+02  0.19120286837E+03  0.17215398933E+03 0.  0.
         24    2    3    3    0    0  0.26613016478E+02  0.41268201727E+02  0.16427520900E+02  0.85355285942E+02  0.67855318697E+02 0.  0.
         -6    2    1    2    0  503  0.74106242714E+02 -0.34668885738E+02 -0.21122016043E+03  0.28348974695E+03  0.17046645889E+03 0.  0.
        -24    2    5    5    0    0 -0.88051732500E+00  0.60672168809E+01 -0.17305608668E+03  0.18988936894E+03  0.77922890530E+02 0.  0.
          5    1    3    3  501    0 -0.10071925919E+03 -0.65993159895E+01 -0.31523016390E+02  0.10584758243E+03  0.47000000000E+01 0. -1.
        -13    1    4    4    0    0  0.47040120624E+01  0.29185506379E+02  0.40828153410E+02  0.50406940227E+02  0.00000000000E+00 0.  1.
         14    1    4    4    0    0  0.21909004416E+02  0.12082695348E+02 -0.24400632510E+02  0.34948345716E+02  0.00000000000E+00 0. -1.
         -5    1    5    5    0  503  0.74986760039E+02 -0.40736102619E+02 -0.38164073746E+02  0.93600378004E+02  0.47000000000E+01 0.  1.
         11    1    6    6    0    0 -0.10592946522E+02 -0.22814342497E+02 -0.15790929112E+02  0.29699464335E+02  0.00000000000E+00 0. -1.
        -12    1    6    6    0    0  0.97124291966E+01  0.28881559378E+02 -0.15726515757E+03  0.16018990461E+03  0.00000000000E+00 0.  1.
</event>
<event>
12    1  0.9017558E-003  0.2626491E+03  0.7818608E-02  0.1105914E+00
         21   -1    0    0  503  502  0.00000000000E+00  0.00000000000E+00  0.31332008369E+02  0.31332008369E+02  0.00000000000E+00 0. -1.
         21   -1    0    0  501  503 -0.00000000000E+00 -0.00000000000E+00 -0.23021129888E+04  0.23021129888E+04  0.00000000000E+00 0. -1.
          6    2    1    2  501    0  0.27398556562E+02 -0.19589576398E+03 -0.87372463340E+03  0.91234821178E+03  0.17279668190E+03 0.  0.
         24    2    3    3    0    0 -0.25692783855E+02 -0.49170684979E+02 -0.45261887706E+03  0.46323899649E+03  0.81539221194E+02 0.  0.
         -6    2    1    2    0  502 -0.27398556562E+02  0.19589576398E+03 -0.13970563470E+04  0.14210967854E+04  0.16918571281E+03 0.  0.
        -24    2    5    5    0    0 -0.14930213630E+02  0.15982457049E+03 -0.13420664948E+04  0.13539956347E+04  0.79968104229E+02 0.  0.
          5    1    3    3  501    0  0.53091340417E+02 -0.14672507900E+03 -0.42110575635E+03  0.44910921530E+03  0.47000000000E+01 0. -1.
        -11    1    4    4    0    0  0.11383646060E+02 -0.67813202564E+01 -0.89030915478E+01  0.15963669414E+02  0.00000000000E+00 0.  1.
         12    1    4    4    0    0 -0.37076429915E+02 -0.42389364723E+02 -0.44371578551E+03  0.44727532707E+03  0.00000000000E+00 0. -1.
         -5    1    5    5    0  502 -0.12468342933E+02  0.36071193491E+02 -0.54989852187E+02  0.67101150653E+02  0.47000000000E+01 0.  1.
         13    1    6    6    0    0 -0.47240374967E+02  0.90543523257E+02 -0.82856637976E+03  0.83483652789E+03  0.00000000000E+00 0. -1.
        -14    1    6    6    0    0  0.32310161338E+02  0.69281047236E+02 -0.51350011508E+03  0.51915910684E+03  0.00000000000E+00 0.  1.
</event>
<event>
12    1  0.9017558E-003  0.1829040E+03  0.7818608E-02  0.1165396E+00
         21   -1    0    0  501  502  0.00000000000E+00  0.00000000000E+00  0.20571721665E+03  0.20571721665E+03  0.00000000000E+00 0. -1.
         21   -1    0    0  502  503 -0.00000000000E+00 -0.00000000000E+00 -0.16132489049E+03  0.16132489049E+03  0.00000000000E+00 0. -1.
          6    2    1    2  501    0  0.23024592019E+02 -0.56309741130E+02  0.17535423786E+02  0.18217687567E+03  0.17082155648E+03 0.  0.
         24    2    3    3    0    0 -0.51751685124E+01 -0.10156174572E+02 -0.56551026435E+02  0.90327704168E+02  0.69506440696E+02 0.  0.
         -6    2    1    2    0  503 -0.23024592019E+02  0.56309741130E+02  0.26856902381E+02  0.18486523147E+03  0.17249041079E+03 0.  0.
        -24    2    5    5    0    0 -0.74066910991E+02  0.83590820071E+01  0.49010579530E+02  0.11126183856E+03  0.66493445225E+02 0.  0.
          5    1    3    3  501    0  0.28199760532E+02 -0.46153566557E+02  0.74086450221E+02  0.91849171506E+02  0.47000000000E+01 0. -1.
        -13    1    4    4    0    0  0.91880180627E+01 -0.38002365891E+02 -0.31944150679E+02  0.50487902034E+02  0.00000000000E+00 0.  1.
         14    1    4    4    0    0 -0.14363186575E+02  0.27846191319E+02 -0.24606875756E+02  0.39839802133E+02  0.00000000000E+00 0. -1.
         -5    1    5    5    0  503  0.51042318972E+02  0.47950659123E+02 -0.22153677149E+02  0.73603392908E+02  0.47000000000E+01 0.  1.
         11    1    6    6    0    0  0.86831307836E+01 -0.64539814021E+01 -0.43832518309E+01  0.11673197195E+02  0.00000000000E+00 0. -1.
        -12    1    6    6    0    0 -0.82750041775E+02  0.14813063409E+02  0.53393831361E+02  0.99588641364E+02  0.00000000000E+00 0.  1.
</event>
<event>
12    1  0.9017558E-003  0.2068006E+03  0.7818608E-02  0.1149914E+00
         21   -1    0    0  503  502  0.00000000000E+00  0.00000000000E+00  0.13732609859E+03  0.13732609859E+03  0.00000000000E+00 0. -1.
         21   -1    0    0  501  503 -0.00000000000E+00 -0.00000000000E+00 -0.28514501747E+03  0.28514501747E+03  0.00000000000E+00 0. -1.
          6    2    1    2  501    0  0.30927855702E+02  0.67707136852E+02 -0.11325032918E+03  0.21280122963E+03  0.16406686939E+03 0.  0.
         24    2    3    3    0    0  0.69588220904E+02  0.56009377876E+02 -0.34883118840E+02  0.12451209633E+03  0.79415736811E+02 0.  0.
         -6    2    1    2    0  502 -0.30927855702E+02 -0.67707136852E+02 -0.34568589704E+02  0.20966988643E+03  0.19293958962E+03 0.  0.
        -24    2    5    5    0    0  0.40082821676E+02  0.86513462316E+01  0.18956806126E+02  0.92366040630E+02  0.80564549139E+02 0.  0.
          5    1    3    3  501    0 -0.38660365201E+02  0.11697758976E+02 -0.78367210337E+02  0.88289133299E+02  0.47000000000E+01 0. -1.
        -11    1    4    4    0    0 -0.55372440974E+01  0.31202484303E+02  0.10401494521E+02  0.33353368453E+02  0.00000000000E+00 0.  1.
         12    1    4    4    0    0  0.75125465001E+02  0.24806893573E+02 -0.45284613361E+02  0.91158727875E+02  0.00000000000E+00 0. -1.
         -5    1    5    5    0  502 -0.71010677379E+02 -0.76358483084E+02 -0.53525395829E+02  0.11730384580E+03  0.47000000000E+01 0.  1.
         11    1    6    6    0    0  0.34150200625E+02  0.42192008523E+02  0.21099615157E+02  0.58237406756E+02  0.00000000000E+00 0. -1.
        -12    1    6    6    0    0  0.59326210516E+01 -0.33540662292E+02 -0.21428090316E+01  0.34128633873E+02  0.00000000000E+00 0.  1.
</event>
<event>
12    1  0.9017558E-003  0.1941577E+03  0.7818608E-02  0.1156270E+00
         21   -1    0    0  503  502  0.00000000000E+00  0.00000000000E+00  0.42878185559E+02  0.42878185559E+02  0.00000000000E+00 0. -1.
         21   -1    0    0  501  503 -0.00000000000E+00 -0.00000000000E+00 -0.90545303178E+03  0.90545303178E+03  0.00000000000E+00 0. -1.
          6    2    1    2  501    0 -0.29696549992E+02 -0.86447897016E+02 -0.30566789668E+03  0.35854940983E+03  0.16361446221E+03 0.  0.
         24    2    3    3    0    0 -0.39961906338E+01  0.72408181867E+01 -0.19710290346E+03  0.21278750952E+03  0.79753185933E+02 0.  0.
         -6    2    1    2    0  502  0.29696549992E+02  0.86447897016E+02 -0.55690694954E+03  0.58978180751E+03  0.17129537662E+03 0.  0.
        -24    2    5    5    0    0 -0.45995612354E+02  0.30838786162E+02 -0.33554140132E+03  0.34926887109E+03  0.79586966420E+02 0.  0.
          5    1    3    3  501    0 -0.25700359358E+02 -0.93688715202E+02 -0.10856499322E+03  0.14576190030E+03  0.47000000000E+01 0. -1.
        -11    1    4    4    0    0 -0.17760624931E+02  0.30125577442E+02 -0.38744658134E+02  0.52193282596E+02  0.00000000000E+00 0.  1.
         12    1    4    4    0    0  0.13764434297E+02 -0.22884759256E+02 -0.15835824533E+03  0.16059422693E+03  0.00000000000E+00 0. -1.
         -5    1    5    5    0  502  0.75692162345E+02  0.55609110854E+02 -0.22136554821E+03  0.24051293642E+03  0.47000000000E+01 0.  1.
         11    1    6    6    0    0 -0.29348890182E+02  0.56847019920E+02 -0.25778992987E+03  0.26560984351E+03  0.00000000000E+00 0. -1.
        -12    1    6    6    0    0 -0.16646722172E+02 -0.26008233758E+02 -0.77751471457E+02  0.83659027582E+02  0.00000000000E+00 0.  1.
</event>
<event>
12    1  0.9017558E-003  0.1776939E+03  0.7818608E-02  0.1170139E+00
         21   -1    0    0  501  502  0.00000000000E+00  0.00000000000E+00  0.51395489327E+03  0.51395489327E+03  0.00000000000E+00 0. -1.
         21   -1    0    0  502  503 -0.00000000000E+00 -0.00000000000E+00 -0.62585893404E+02  0.62585893404E+02  0.00000000000E+00 0. -1.
          6    2    1    2  501    0  0.38496705129E+02  0.18537653537E+02  0.18483526552E+03  0.25639657110E+03  0.17248039131E+03 0.  0.
         24    2    3    3    0    0 -0.43919434792E+02  0.10362768571E+02  0.82209060663E+02  0.12443643777E+03  0.81791158844E+02 0.  0.
         -6    2    1    2    0  503 -0.38496705129E+02 -0.18537653537E+02  0.26653373434E+03  0.32014421557E+03  0.17212334624E+03 0.  0.
        -24    2    5    5    0    0  0.39856213037E+02 -0.16724995477E+02  0.18940414572E+03  0.21008273751E+03  0.79953630243E+02 0.  0.
          5    1    3    3  501    0  0.82416139921E+02  0.81748849660E+01  0.10262620486E+03  0.13196013333E+03  0.47000000000E+01 0. -1.
        -13    1    4    4    0    0 -0.96088704529E+01 -0.30109860994E+02  0.58135783591E+02  0.66171772337E+02  0.00000000000E+00 0.  1.
         14    1    4    4    0    0 -0.34310564339E+02  0.40472629565E+02  0.24073277072E+02  0.58264665434E+02  0.00000000000E+00 0. -1.
         -5    1    5    5    0  503 -0.78352918166E+02 -0.18126580598E+01  0.77129588615E+02  0.11006147807E+03  0.47000000000E+01 0.  1.
         11    1    6    6    0    0  0.11758554723E+02 -0.11424726688E+02 -0.20345242113E+01  0.16520510822E+02  0.00000000000E+00 0. -1.
        -12    1    6    6    0    0  0.28097658314E+02 -0.53002687894E+01  0.19143866994E+03  0.19356222668E+03  0.00000000000E+00 0.  1.
</event>
<event>
12    1  0.9017558E-003  0.2109099E+03  0.7818608E-02  0.1141138E+00
         21   -1    0    0  501  502  0.00000000000E+00  0.00000000000E+00  0.12519558166E+03  0.12519558166E+03  0.00000000000E+00 0.  1.
         21   -1    0    0  502  503 -0.00000000000E+00 -0.00000000000E+00 -0.39659660824E+03  0.39659660824E+03  0.00000000000E+00 0.  1.
          6    2    1    2  501    0  0.95873511704E+02 -0.73545092419E+02 -0.48610685304E+02  0.21500478483E+03  0.17106562457E+03 0.  0.
         24    2    3    3    0    0  0.12378377661E+03 -0.96137718957E+02 -0.31749812167E+02  0.17505746071E+03  0.71219236308E+02 0.  0.
         -6    2    1    2    0  503 -0.95873511704E+02  0.73545092419E+02 -0.22279034128E+03  0.30678740507E+03  0.17286516387E+03 0.  0.
        -24    2    5    5    0    0 -0.81547376584E+01  0.87113942114E+02 -0.94512991280E+02  0.15072374651E+03  0.78291784905E+02 0.  0.
          5    1    3    3  501    0 -0.27910264909E+02  0.22592626538E+02 -0.16860873137E+02  0.39947324117E+02  0.47000000000E+01 0. -1.
        -13    1    4    4    0    0  0.19027601549E+02 -0.14387052484E+02  0.21299394753E+02  0.31979698509E+02  0.00000000000E+00 0.  1.
         14    1    4    4    0    0  0.10475617506E+03 -0.81750666474E+02 -0.53049206920E+02  0.14307776221E+03  0.00000000000E+00 0. -1.
         -5    1    5    5    0  503 -0.87718774045E+02 -0.13568849695E+02 -0.12827735000E+03  0.15606365856E+03  0.47000000000E+01 0.  1.
         13    1    6    6    0    0  0.19002141113E+02  0.10008138421E+02 -0.56743662308E+02  0.60671965632E+02  0.00000000000E+00 0. -1.
        -14    1    6    6    0    0 -0.27156878771E+02  0.77105803694E+02 -0.37769328972E+02  0.90051780875E+02  0.00000000000E+00 0.  1.
</event>
<event>
12    1  0.9017558E-003  0.2688820E+03  0.7818608E-02  0.1101960E+00
         21   -1    0    0  503  502  0.00000000000E+00  0.00000000000E+00  0.11474475514E+03  0.11474475514E+03  0.00000000000E+00 0. -1.
         21   -1    0    0  501  503 -0.00000000000E+00 -0.00000000000E+00 -0.98151768574E+03  0.98151768574E+03  0.00000000000E+00 0.  1.
          6    2    1    2  501    0 -0.19516936376E+03 -0.65995511584E+02 -0.76153423310E+03  0.80751910825E+03  0.17235496485E+03 0.  0.
         24    2    3    3    0    0 -0.11059438878E+03  0.13509155005E+02 -0.53816282962E+03  0.55574382691E+03  0.82573324165E+02 0.  0.
         -6    2    1    2    0  502  0.19516936376E+03  0.65995511584E+02 -0.10523869750E+03  0.28874333264E+03  0.17277453687E+03 0.  0.
        -24    2    5    5    0    0  0.11648872236E+03  0.76326599918E+02 -0.51420650549E+01  0.16092001495E+03  0.80457678847E+02 0.  0.
          5    1    3    3  501    0 -0.84574974983E+02 -0.79504666588E+02 -0.22337140347E+03  0.25177528134E+03  0.47000000000E+01 0. -1.
        -11    1    4    4    0    0 -0.79955044673E+02 -0.10755321206E+02 -0.20510878473E+03  0.22040440031E+03  0.00000000000E+00 0.  1.
         12    1    4    4    0    0 -0.30639344105E+02  0.24264476210E+02 -0.33305404490E+03  0.33533942660E+03  0.00000000000E+00 0. -1.
         -5    1    5    5    0  502  0.78680641402E+02 -0.10331088334E+02 -0.10009663245E+03  0.12782331769E+03  0.47000000000E+01 0.  1.
         13    1    6    6    0    0  0.86168805810E+02  0.15389756967E+02  0.17352965335E+02  0.89235828680E+02  0.00000000000E+00 0. -1.
        -14    1    6    6    0    0  0.30319916548E+02  0.60936842951E+02 -0.22495030390E+02  0.71684186266E+02  0.00000000000E+00 0.  1.
</event>
<event>
12    1  0.9017558E-003  0.1973636E+03  0.7818608E-02  0.1152876E+00
         21   -1    0    0  503  502  0.00000000000E+00  0.00000000000E+00  0.30408694973E+02  0.30408694973E+02  0.00000000000E+00 0.  1.
         21   -1    0    0  501  503 -0.00000000000E+00 -0.00000000000E+00 -0.18326913040E+04  0.18326913040E+04  0.00000000000E+00 0. -1.
          6    2    1    2  501    0  0.79924181196E+02  0.52631924817E+02 -0.14309113350E+04  0.14444582454E+04  0.17261048617E+03 0.  0.
         24    2    3    3    0    0  0.11262486959E+03  0.11891280824E+02 -0.89378949076E+03  0.90478139709E+03  0.83330420009E+02 0.  0.
         -6    2    1    2    0  502 -0.79924181196E+02 -0.52631924817E+02 -0.37137127410E+03  0.41864175361E+03  0.16788776128E+03 0.  0.
        -24    2    5    5    0    0 -0.10670563409E+03 -0.54506122787E+02 -0.36237335384E+03  0.38993963860E+03  0.79884068542E+02 0.  0.
          5    1    3    3  501    0 -0.32700688398E+02  0.40740643993E+02 -0.53712184421E+03  0.53967684833E+03  0.47000000000E+01 0. -1.
        -11    1    4    4    0    0 -0.11795428450E+02  0.10441577107E+02 -0.80271801164E+02  0.81802938376E+02  0.00000000000E+00 0.  1.
         12    1    4    4    0    0  0.12442029804E+03  0.14497037167E+01 -0.81351768960E+03  0.82297845871E+03  0.00000000000E+00 0. -1.
         -5    1    5    5    0  502  0.26781452892E+02  0.18741979708E+01 -0.89979202555E+01  0.28702115009E+02  0.47000000000E+01 0.  1.
         11    1    6    6    0    0 -0.28013237137E+02 -0.32160785853E+00 -0.19674681103E+03  0.19873135771E+03  0.00000000000E+00 0. -1.
        -12    1    6    6    0    0 -0.78692396951E+02 -0.54184514929E+02 -0.16562654281E+03  0.19120828089E+03  0.00000000000E+00 0.  1.
</event>
<event>
12    1  0.9017558E-003  0.1893675E+03  0.7818608E-02  0.1159578E+00
         21   -1    0    0  503  502  0.00000000000E+00  0.00000000000E+00  0.27677220525E+03  0.27677220525E+03  0.00000000000E+00 0.  1.
         21   -1    0    0  501  503 -0.00000000000E+00 -0.00000000000E+00 -0.16189788339E+03  0.16189788339E+03  0.00000000000E+00 0. -1.
          6    2    1    2  501    0 -0.17945454490E+02 -0.71684175092E+02 -0.43306390447E+02  0.19192898609E+03  0.17175748005E+03 0.  0.
         24    2    3    3    0    0  0.33345386799E+02 -0.83246653892E+02 -0.63311159811E+02  0.13547792664E+03  0.79398019148E+02 0.  0.
         -6    2    1    2    0  502  0.17945454490E+02  0.71684175092E+02  0.15818071231E+03  0.24674110255E+03  0.17435416153E+03 0.  0.
        -24    2    5    5    0    0  0.50541236431E+02  0.85505092701E+02  0.16696135372E+03  0.20996213536E+03  0.79639608189E+02 0.  0.
          5    1    3    3  501    0 -0.51290841288E+02  0.11562478800E+02  0.20004769364E+02  0.56451059453E+02  0.47000000000E+01 0. -1.
        -13    1    4    4    0    0 -0.20018714405E+01  0.10094841118E+02  0.78111151028E+01  0.12920016471E+02  0.00000000000E+00 0.  1.
         14    1    4    4    0    0  0.35347258239E+02 -0.93341495009E+02 -0.71122274914E+02  0.12255791017E+03  0.00000000000E+00 0. -1.
         -5    1    5    5    0  502 -0.32595781941E+02 -0.13820917609E+02 -0.87806414040E+01  0.36778967187E+02  0.47000000000E+01 0.  1.
         11    1    6    6    0    0  0.55535633503E+02  0.37469504534E+02  0.50534034467E+02  0.83915785154E+02  0.00000000000E+00 0. -1.
        -12    1    6    6    0    0 -0.49943970719E+01  0.48035588167E+02  0.11642731925E+03  0.12604635021E+03  0.00000000000E+00 0.  1.
</event>
<event>
12    1  0.9017558E-003  0.1793481E+03  0.7818608E-02  0.1168798E+00
         21   -1    0    0  501  502  0.00000000000E+00  0.00000000000E+00  0.75276806388E+03  0.75276806388E+03  0.00000000000E+00 0. -1.
         21   -1    0    0  502  503 -0.00000000000E+00 -0.00000000000E+00 -0.43325450509E+02  0.43325450509E+02  0.00000000000E+00 0. -1.
          6    2    1    2  501    0  0.74595401919E+01 -0.46262459207E+02  0.29437576281E+03  0.34393618958E+03  0.17157841618E+03 0.  0.
         24    2    3    3    0    0  0.14749099354E+02  0.34511476766E+02  0.20342179133E+03  0.22198422635E+03  0.80548082550E+02 0.  0.
         -6    2    1    2    0  503 -0.74595401919E+01  0.46262459207E+02  0.41506685055E+03  0.45215732481E+03  0.17311815640E+03 0.  0.
        -24    2    5    5    0    0 -0.14586356694E+02  0.61905193799E+02  0.42116353363E+03  0.43332261739E+03  0.79653963216E+02 0.  0.
          5    1    3    3  501    0 -0.72895591619E+01 -0.80773935973E+02  0.90953971485E+02  0.12195196322E+03  0.47000000000E+01 0. -1.
        -13    1    4    4    0    0  0.39608321555E+02  0.41584114852E+02  0.99377571211E+02  0.11477786984E+03  0.00000000000E+00 0.  1.
         14    1    4    4    0    0 -0.24859222201E+02 -0.70726380862E+01  0.10404422012E+03  0.10720635652E+03  0.00000000000E+00 0. -1.
         -5    1    5    5    0  503  0.71268165025E+01 -0.15642734593E+02 -0.60966830796E+01  0.18834707419E+02  0.47000000000E+01 0.  1.
         13    1    6    6    0    0  0.49361281957E+01  0.25511218324E+01  0.26590417560E+03  0.26596222324E+03  0.00000000000E+00 0. -1.
        -14    1    6    6    0    0 -0.19522484890E+02  0.59354071967E+02  0.15525935803E+03  0.16736039415E+03  0.00000000000E+00 0.  1.
</event>
<event>
12    1  0.9017558E-003  0.1906110E+03  0.7818608E-02  0.1159326E+00
         21   -1    0    0  501  502  0.00000000000E+00  0.00000000000E+00  0.40565853855E+03  0.40565853855E+03  0.00000000000E+00 0.  1.
         21   -1    0    0  502  503 -0.00000000000E+00 -0.00000000000E+00 -0.99510290659E+02  0.99510290659E+02  0.00000000000E+00 0.  1.
          6    2    1    2  501    0  0.27643808525E+02 -0.43921938923E+02  0.60190705409E+02  0.19399736391E+03  0.17697101265E+03 0.  0.
         24    2    3    3    0    0  0.48821556993E+02  0.11911730200E+02 -0.18335143699E+02  0.95233531384E+02  0.78789683728E+02 0.  0.
         -6    2    1    2    0  503 -0.27643808525E+02  0.43921938923E+02  0.24595754248E+03  0.31117146529E+03  0.18341006309E+03 0.  0.
        -24    2    5    5    0    0  0.53679420200E+01 -0.41136276363E+02  0.79622535366E+02  0.12139765189E+03  0.81710670735E+02 0.  0.
          5    1    3    3  501    0 -0.21177748468E+02 -0.55833669123E+02  0.78525849108E+02  0.98763832530E+02  0.47000000000E+01 0. -1.
        -11    1    4    4    0    0  0.63456910279E+02 -0.98015427158E+01 -0.17407984344E+01  0.64233013949E+02  0.00000000000E+00 0.  1.
         12    1    4    4    0    0 -0.14635353286E+02  0.21713272915E+02 -0.16594345264E+02  0.31000517435E+02  0.00000000000E+00 0. -1.
         -5    1    5    5    0  503 -0.33011750545E+02  0.85058215286E+02  0.16633500711E+03  0.18977381340E+03  0.47000000000E+01 0.  1.
         11    1    6    6    0    0 -0.33528738790E+02 -0.37752259726E+02  0.57499526804E+02  0.76521925106E+02  0.00000000000E+00 0. -1.
        -12    1    6    6    0    0  0.38896680810E+02 -0.33840166369E+01  0.22123008563E+02  0.44875726785E+02  0.00000000000E+00 0.  1.
</event>
<event>
12    1  0.9017558E-003  0.1754392E+03  0.7818608E-02  0.1172483E+00
         21   -1    0    0  503  502  0.00000000000E+00  0.00000000000E+00  0.18200407924E+03  0.18200407924E+03  0.00000000000E+00 0. -1.
         21   -1    0    0  501  503 -0.00000000000E+00 -0.00000000000E+00 -0.19000937192E+03  0.19000937192E+03  0.00000000000E+00 0. -1.
          6    2    1    2  501    0 -0.28836132385E+02 -0.98757007603E+01 -0.66774352336E+02  0.18771711028E+03  0.17277108371E+03 0.  0.
         24    2    3    3    0    0  0.45299499778E+02 -0.20948011354E+02 -0.10042070765E+02  0.93593097454E+02  0.78536366392E+02 0.  0.
         -6    2    1    2    0  502  0.28836132385E+02  0.98757007603E+01  0.58769059649E+02  0.18429634088E+03  0.17199501997E+03 0.  0.
        -24    2    5    5    0    0  0.44814844764E+02  0.45152353551E+02  0.90268164783E+02  0.13415608654E+03  0.76173542913E+02 0.  0.
          5    1    3    3  501    0 -0.74135632163E+02  0.11072310593E+02 -0.56732281571E+02  0.94124012825E+02  0.47000000000E+01 0. -1.
        -11    1    4    4    0    0  0.54422201329E+02  0.13966623194E+02 -0.12001088209E+02  0.57453186849E+02  0.00000000000E+00 0.  1.
         12    1    4    4    0    0 -0.91227015513E+01 -0.34914634548E+02  0.19590174448E+01  0.36139910605E+02  0.00000000000E+00 0. -1.
         -5    1    5    5    0  502 -0.15978712379E+02 -0.35276652791E+02 -0.31499105133E+02  0.50140254343E+02  0.47000000000E+01 0.  1.
         11    1    6    6    0    0  0.25094272059E+02 -0.18769556526E+02  0.20204540858E+02  0.37285951961E+02  0.00000000000E+00 0. -1.
        -12    1    6    6    0    0  0.19720572705E+02  0.63921910077E+02  0.70063623924E+02  0.96870134578E+02  0.00000000000E+00 0.  1.
</event>
<event>
12    1  0.9017558E-003  0.1876353E+03  0.7818608E-02  0.1161073E+00
         21   -1    0    0  503  502  0.00000000000E+00  0.00000000000E+00  0.81049085364E+03  0.81049085364E+03  0.00000000000E+00 0. -1.
         21   -1    0    0  501  503 -0.00000000000E+00 -0.00000000000E+00 -0.48802823966E+02  0.48802823966E+02  0.00000000000E+00 0. -1.
          6    2    1    2  501    0  0.66843777719E+02  0.24231771579E+02  0.23420136959E+03  0.30009547458E+03  0.17364257245E+03 0.  0.
         24    2    3    3    0    0  0.26057128176E+02 -0.45246949366E+02  0.17678413889E+03  0.20105168715E+03  0.80267607349E+02 0.  0.
         -6    2    1    2    0  502 -0.66843777719E+02 -0.24231771579E+02  0.52748666008E+03  0.55919820303E+03  0.17147939916E+03 0.  0.
        -24    2    5    5    0    0  0.88297533863E+01  0.14593205781E+02  0.13191549808E+03  0.15455947974E+03  0.78714725082E+02 0.  0.
          5    1    3    3  501    0  0.40786649543E+02  0.69478720945E+02  0.57417230708E+02  0.99043787424E+02  0.47000000000E+01 0. -1.
        -13    1    4    4    0    0  0.35216872679E+02 -0.48604467895E+02  0.18079932423E+03  0.19050201591E+03  0.00000000000E+00 0.  1.
         14    1    4    4    0    0 -0.91597445036E+01  0.33575185293E+01 -0.40151853478E+01  0.10549671247E+02  0.00000000000E+00 0. -1.
         -5    1    5    5    0  502 -0.75673531105E+02 -0.38824977360E+02  0.39557116200E+03  0.40463872329E+03  0.47000000000E+01 0.  1.
         11    1    6    6    0    0 -0.34048546437E+02  0.14195490147E+02  0.71744191387E+02  0.80672451635E+02  0.00000000000E+00 0. -1.
        -12    1    6    6    0    0  0.42878299823E+02  0.39771563337E+00  0.60171306689E+02  0.73887028105E+02  0.00000000000E+00 0.  1.
</event>
<event>
12    1  0.9017558E-003  0.1746703E+03  0.7818608E-02  0.1173341E+00
         21   -1    0    0  503  502  0.00000000000E+00  0.00000000000E+00  0.97714064437E+03  0.97714064437E+03  0.00000000000E+00 0.  1.
         21   -1    0    0  501  503 -0.00000000000E+00 -0.00000000000E+00 -0.34285043007E+02  0.34285043007E+02  0.00000000000E+00 0.  1.
          6    2    1    2  501    0  0.29901845724E+02 -0.39257336233E+01  0.31688359124E+03  0.36183548812E+03  0.17204702351E+03 0.  0.
         24    2    3    3    0    0  0.64072475387E+00 -0.44884187127E+02  0.28996993846E+03  0.30456208399E+03  0.81611868098E+02 0.  0.
         -6    2    1    2    0  502 -0.29901845724E+02  0.39257336233E+01  0.62597201012E+03  0.64959019926E+03  0.17092962809E+03 0.  0.
        -24    2    5    5    0    0 -0.22924986071E+02 -0.35501397441E+02  0.17596236189E+03  0.19777834823E+03  0.79797355966E+02 0.  0.
          5    1    3    3  501    0  0.29261120970E+02  0.40958453503E+02  0.26913652789E+02  0.57273404127E+02  0.47000000000E+01 0. -1.
        -13    1    4    4    0    0 -0.25638257802E+02 -0.49278453679E+02  0.11659002362E+03  0.12914689260E+03  0.00000000000E+00 0.  1.
         14    1    4    4    0    0  0.26278982556E+02  0.43942665521E+01  0.17337991484E+03  0.17541519139E+03  0.00000000000E+00 0. -1.
         -5    1    5    5    0  502 -0.69768596527E+01  0.39427131064E+02  0.45000964823E+03  0.45181185103E+03  0.47000000000E+01 0.  1.
         13    1    6    6    0    0 -0.49895532827E+01 -0.21073985965E+02  0.17325313373E+03  0.17460142289E+03  0.00000000000E+00 0. -1.
        -14    1    6    6    0    0 -0.17935432789E+02 -0.14427411475E+02  0.27092281632E+01  0.23176925345E+02  0.00000000000E+00 0.  1.
</event>
<event>
12    1  0.9017558E-003  0.2959936E+03  0.7818608E-02  0.1087347E+00
         21   -1    0    0  503  502  0.00000000000E+00  0.00000000000E+00  0.90680350043E+03  0.90680350043E+03  0.00000000000E+00 0.  1.
         21   -1    0    0  501  503 -0.00000000000E+00 -0.00000000000E+00 -0.15987993055E+03  0.15987993055E+03  0.00000000000E+00 0. -1.
          6    2    1    2  501    0  0.17627512047E+03 -0.16302122351E+03  0.37638869956E+02  0.29837707937E+03  0.17309927657E+03 0.  0.
         24    2    3    3    0    0  0.10438458071E+03 -0.18612635943E+02  0.54038702991E+01  0.13380710922E+03  0.81440590355E+02 0.  0.
         -6    2    1    2    0  502 -0.17627512047E+03  0.16302122351E+03  0.70928469992E+03  0.76830635162E+03  0.17193320498E+03 0.  0.
        -24    2    5    5    0    0 -0.14451206628E+03  0.64332865164E+02  0.32055829487E+03  0.36596496464E+03  0.78423721500E+02 0.  0.
          5    1    3    3  501    0  0.71890539762E+02 -0.14440858757E+03  0.32234999657E+02  0.16456997015E+03  0.47000000000E+01 0. -1.
        -13    1    4    4    0    0  0.21208123914E+02  0.17349814109E+02 -0.26126626843E+02  0.37860285258E+02  0.00000000000E+00 0.  1.
         14    1    4    4    0    0  0.83176456793E+02 -0.35962450053E+02  0.31530497142E+02  0.95946823962E+02  0.00000000000E+00 0. -1.
         -5    1    5    5    0  502 -0.31763054184E+02  0.98688358349E+02  0.38872640506E+03  0.40234138698E+03  0.47000000000E+01 0.  1.
         13    1    6    6    0    0 -0.25842768434E+02  0.37271443343E+02  0.41327412538E+02  0.61359304073E+02  0.00000000000E+00 0. -1.
        -14    1    6    6    0    0 -0.11866929785E+03  0.27061421820E+02  0.27923088233E+03  0.30460566057E+03  0.00000000000E+00 0.  1.
</event>
<event>
12    1  0.9017558E-003  0.1914449E+03  0.7818608E-02  0.1158512E+00
         21   -1    0    0  503  502  0.00000000000E+00  0.00000000000E+00  0.25260918920E+03  0.25260918920E+03  0.00000000000E+00 0. -1.
         21   -1    0    0  501  503 -0.00000000000E+00 -0.00000000000E+00 -0.14864256161E+03  0.14864256161E+03  0.00000000000E+00 0. -1.
          6    2    1    2  501    0 -0.46529974039E+02 -0.68276063726E+02  0.99342201373E+02  0.21568501513E+03  0.17269769372E+03 0.  0.
         24    2    3    3    0    0 -0.42965284472E+02 -0.90808285726E+02  0.12425715006E+03  0.18157852442E+03  0.86248250789E+02 0.  0.
         -6    2    1    2    0  502  0.46529974039E+02  0.68276063726E+02  0.46244262237E+01  0.18556673568E+03  0.16609325305E+03 0.  0.
        -24    2    5    5    0    0 -0.31727055902E+01  0.29045340004E+01 -0.43493907002E+02  0.90271104858E+02  0.78985125482E+02 0.  0.
          5    1    3    3  501    0 -0.35646895666E+01  0.22532222000E+02 -0.24914948691E+02  0.34106490705E+02  0.47000000000E+01 0. -1.
        -13    1    4    4    0    0  0.59765263809E+01 -0.14847767840E+02 -0.10635436640E+02  0.19216856921E+02  0.00000000000E+00 0.  1.
         14    1    4    4    0    0 -0.48941810853E+02 -0.75960517886E+02  0.13489258670E+03  0.16236166750E+03  0.00000000000E+00 0. -1.
         -5    1    5    5    0  502  0.49702679629E+02  0.65371529726E+02  0.48118333225E+02  0.95295630820E+02  0.47000000000E+01 0.  1.
         11    1    6    6    0    0  0.31722342677E+02  0.27714771749E+01  0.31724023135E+01  0.32000816350E+02  0.00000000000E+00 0. -1.
        -12    1    6    6    0    0 -0.34895048267E+02  0.13305682550E+00 -0.46666309315E+02  0.58270288508E+02  0.00000000000E+00 0.  1.
</event>
<event>
12    1  0.9017558E-003  0.2060751E+03  0.7818608E-02  0.1144806E+00
         21   -1    0    0  501  502  0.00000000000E+00  0.00000000000E+00  0.17195228501E+03  0.17195228501E+03  0.00000000000E+00 0.  1.
         21   -1    0    0  502  503 -0.00000000000E+00 -0.00000000000E+00 -0.29233408908E+03  0.29233408908E+03  0.00000000000E+00 0. -1.
          6    2    1    2  501    0  0.10344241983E+03  0.46204731688E+02  0.31752849717E+02  0.20850701933E+03  0.17213867140E+03 0.  0.
         24    2    3    3    0    0  0.13949967744E+03  0.51239554849E+02  0.29781793492E+02  0.17174494195E+03  0.80769535553E+02 0.  0.
         -6    2    1    2    0  503 -0.10344241983E+03 -0.46204731688E+02 -0.15213465379E+03  0.25577935476E+03  0.17158937610E+03 0.  0.
        -24    2    5    5    0    0 -0.79842380954E+02 -0.20705379066E+02 -0.17884855726E+03  0.21170099887E+03  0.77633678055E+02 0.  0.
          5    1    3    3  501    0 -0.36057257609E+02 -0.50348231616E+01  0.19710562253E+01  0.36762077379E+02  0.47000000000E+01 0. -1.
        -11    1    4    4    0    0  0.41686297791E+02  0.57560746571E+02  0.14687528120E+02  0.72572105189E+02  0.00000000000E+00 0.  1.
         12    1    4    4    0    0  0.97813379653E+02 -0.63211917215E+01  0.15094265372E+02  0.99172836760E+02  0.00000000000E+00 0. -1.
         -5    1    5    5    0  503 -0.23600038881E+02 -0.25499352622E+02  0.26713903478E+02  0.44078355894E+02  0.47000000000E+01 0.  1.
         11    1    6    6    0    0 -0.20917785452E+02 -0.27092134898E+02 -0.13138103238E+03  0.13576639198E+03  0.00000000000E+00 0. -1.
        -12    1    6    6    0    0 -0.58924595501E+02  0.63867558317E+01 -0.47467524883E+02  0.75934606890E+02  0.00000000000E+00 0.  1.
</event>
<event>
12    1  0.9017558E-003  0.2390236E+03  0.7818608E-02  0.1120785E+00
         21   -1    0    0  501  502  0.00000000000E+00  0.00000000000E+00  0.84718237637E+03  0.84718237637E+03  0.00000000000E+00 0.  1.
         21   -1    0    0  502  503 -0.00000000000E+00 -0.00000000000E+00 -0.68058969149E+02  0.68058969149E+02  0.00000000000E+00 0. -1.
          6    2    1    2  501    0 -0.95449183613E+02 -0.13514393517E+03  0.45169035823E+03  0.51103468062E+03  0.17250459476E+03 0.  0.
         24    2    3    3    0    0 -0.40573833115E+02 -0.40622816637E+01  0.11756617379E+03  0.14791656677E+03  0.79967289811E+02 0.  0.
         -6    2    1    2    0  503  0.95449183613E+02  0.13514393517E+03  0.32743304899E+03  0.40420666490E+03  0.16969442098E+03 0.  0.
        -24    2    5    5    0    0 -0.68838555604E+01  0.24113106292E+02  0.13778677827E+03  0.16174492799E+03  0.80915981743E+02 0.  0.
          5    1    3    3  501    0 -0.54875350498E+02 -0.13108165351E+03  0.33412418444E+03  0.36311811385E+03  0.47000000000E+01 0. -1.
        -11    1    4    4    0    0 -0.13471795278E+02  0.23721579539E+02  0.10285125066E+03  0.10640762363E+03  0.00000000000E+00 0.  1.
         12    1    4    4    0    0 -0.27102037837E+02 -0.27783861203E+02  0.14714923135E+02  0.41508943147E+02  0.00000000000E+00 0. -1.
         -5    1    5    5    0  503  0.10233303917E+03  0.11103082888E+03  0.18964627072E+03  0.24246173691E+03  0.47000000000E+01 0.  1.
         13    1    6    6    0    0  0.16109343911E+01  0.52719886645E+02  0.69715103439E+02  0.87419547041E+02  0.00000000000E+00 0. -1.
        -14    1    6    6    0    0 -0.84947899515E+01 -0.28606780353E+02  0.68071674833E+02  0.74325380948E+02  0.00000000000E+00 0.  1.
</event>
<event>
12    1  0.9017558E-003  0.2090452E+03  0.7818608E-02  0.1142932E+00
         21   -1    0    0  501  502  0.00000000000E+00  0.00000000000E+00  0.96290920918E+03  0.96290920918E+03  0.00000000000E+00 0.  1.
         21   -1    0    0  502  503 -0.00000000000E+00 -0.00000000000E+00 -0.16024688536E+03  0.16024688536E+03  0.00000000000E+00 0. -1.
          6    2    1    2  501    0 -0.96068914203E+02  0.70869517332E+02  0.87895106988E+03  0.90346823903E+03  0.17160463555E+03 0.  0.
         24    2    3    3    0    0 -0.11353059787E+03  0.28562406057E+02  0.80054737181E+03  0.81256151799E+03  0.75333381119E+02 0.  0.
         -6    2    1    2    0  503  0.96068914203E+02 -0.70869517332E+02 -0.76288746059E+02  0.21968785551E+03  0.16790192470E+03 0.  0.
        -24    2    5    5    0    0  0.89137280550E+02 -0.84602024976E+02 -0.64737851222E+01  0.14804395778E+03  0.82293050296E+02 0.  0.
          5    1    3    3  501    0  0.17461683663E+02  0.42307111276E+02  0.78403698065E+02  0.90906721045E+02  0.47000000000E+01 0. -1.
        -11    1    4    4    0    0 -0.20001159448E+02  0.24044974829E+02  0.39972470239E+03  0.40094643644E+03  0.00000000000E+00 0.  1.
         12    1    4    4    0    0 -0.93529438419E+02  0.45174312274E+01  0.40082266942E+03  0.41161508154E+03  0.00000000000E+00 0. -1.
         -5    1    5    5    0  503  0.69316336528E+01  0.13732507644E+02 -0.69814960937E+02  0.71643897730E+02  0.47000000000E+01 0.  1.
         13    1    6    6    0    0  0.98529648390E+02 -0.86362300132E+02 -0.18890391864E+02  0.13237592455E+03  0.00000000000E+00 0. -1.
        -14    1    6    6    0    0 -0.93923678394E+01  0.17602751561E+01  0.12416606741E+02  0.15668033228E+02  0.00000000000E+00 0.  1.
</event>
<event>
12    1  0.9017558E-003  0.2101244E+03  0.7818608E-02  0.1142048E+00
         21   -1    0    0  501  502  0.00000000000E+00  0.00000000000E+00  0.99348646770E+02  0.99348646770E+02  0.00000000000E+00 0.  1.
         21   -1    0    0  502  503 -0.00000000000E+00 -0.00000000000E+00 -0.52697027615E+03  0.52697027615E+03  0.00000000000E+00 0. -1.
          6    2    1    2  501    0 -0.34065081437E+02 -0.11138302063E+03 -0.34104042609E+03  0.39905572763E+03  0.17137763700E+03 0.  0.
         24    2    3    3    0    0  0.39614326218E+02 -0.59925343262E+02 -0.24312136278E+03  0.26606407138E+03  0.80757361449E+02 0.  0.
         -6    2    1    2    0  503  0.34065081437E+02  0.11138302063E+03 -0.86581203283E+02  0.22726319529E+03  0.17488752989E+03 0.  0.
        -24    2    5    5    0    0  0.16976391320E+02 -0.71872101376E+01 -0.16884025619E+02  0.88588361490E+02  0.84988079274E+02 0.  0.
          5    1    3    3  501    0 -0.73679407655E+02 -0.51457677371E+02 -0.97919063310E+02  0.13299165625E+03  0.47000000000E+01 0. -1.
        -11    1    4    4    0    0  0.46833160779E+02 -0.35041340819E+02 -0.70939932457E+02  0.91944083725E+02  0.00000000000E+00 0.  1.
         12    1    4    4    0    0 -0.72188345615E+01 -0.24884002443E+02 -0.17218143033E+03  0.17411998765E+03  0.00000000000E+00 0. -1.
         -5    1    5    5    0  503  0.17088690117E+02  0.11857023077E+03 -0.69697177664E+02  0.13867483380E+03  0.47000000000E+01 0.  1.
         13    1    6    6    0    0 -0.28704702049E+02 -0.22414797863E+02  0.28899969367E+01  0.36534027498E+02  0.00000000000E+00 0. -1.
        -14    1    6    6    0    0  0.45681093368E+02  0.15227587726E+02 -0.19774022555E+02  0.52054333992E+02  0.00000000000E+00 0.  1.
</event>
<event>
12    1  0.9017558E-003  0.2082102E+03  0.7818608E-02  0.1143228E+00
         21   -1    0    0  503  502  0.00000000000E+00  0.00000000000E+00  0.31079018981E+03  0.31079018981E+03  0.00000000000E+00 0. -1.
         21   -1    0    0  501  503 -0.00000000000E+00 -0.00000000000E+00 -0.28114604578E+03  0.28114604578E+03  0.00000000000E+00 0. -1.
          6    2    1    2  501    0 -0.27794756526E+02  0.11130301890E+03 -0.19582817902E+03  0.28583239238E+03  0.17375433903E+03 0.  0.
         24    2    3    3    0    0 -0.48974802046E+01  0.13388854295E+03 -0.19900277682E+03  0.25317417396E+03  0.80900741240E+02 0.  0.
         -6    2    1    2    0  502  0.27794756526E+02 -0.11130301890E+03  0.22547232306E+03  0.30610384321E+03  0.17233944370E+03 0.  0.
        -24    2    5    5    0    0 -0.21000247493E+02 -0.12974999516E+03  0.16169639313E+03  0.22357686223E+03  0.81023565308E+02 0.  0.
          5    1    3    3  501    0 -0.22897276321E+02 -0.22585524046E+02  0.31745978022E+01  0.32658218423E+02  0.47000000000E+01 0. -1.
        -13    1    4    4    0    0 -0.15821439496E+02  0.11325880791E+03 -0.10146649443E+03  0.15288337060E+03  0.00000000000E+00 0.  1.
         14    1    4    4    0    0  0.10923959291E+02  0.20629735039E+02 -0.97536282394E+02  0.10029080335E+03  0.00000000000E+00 0. -1.
         -5    1    5    5    0  502  0.48795004019E+02  0.18446976265E+02  0.63775929929E+02  0.82526980975E+02  0.47000000000E+01 0.  1.
         13    1    6    6    0    0 -0.99326779344E+01 -0.46537811215E+02  0.12153595658E+03  0.13051978664E+03  0.00000000000E+00 0. -1.
        -14    1    6    6    0    0 -0.11067569558E+02 -0.83212183949E+02  0.40160436549E+02  0.93057075589E+02  0.00000000000E+00 0.  1.
</event>
<event>
12    1  0.9017558E-003  0.2755407E+03  0.7818608E-02  0.1098493E+00
         21   -1    0    0  501  502  0.00000000000E+00  0.00000000000E+00  0.11936446001E+03  0.11936446001E+03  0.00000000000E+00 0. -1.
         21   -1    0    0  502  503 -0.00000000000E+00 -0.00000000000E+00 -0.64830036060E+03  0.64830036060E+03  0.00000000000E+00 0.  1.
          6    2    1    2  501    0 -0.14360849617E+03  0.15669982568E+03 -0.19956566992E+03  0.33823793241E+03  0.17146488495E+03 0.  0.
         24    2    3    3    0    0 -0.12284097888E+03  0.75788147674E+02 -0.59770325449E+02  0.17531826586E+03  0.79562887838E+02 0.  0.
         -6    2    1    2    0  503  0.14360849617E+03 -0.15669982568E+03 -0.32937023066E+03  0.42942688820E+03  0.17534100468E+03 0.  0.
        -24    2    5    5    0    0  0.10474407405E+03 -0.10731576481E+03 -0.11100766552E+03  0.20215276158E+03  0.77814155429E+02 0.  0.
          5    1    3    3  501    0 -0.20767517292E+02  0.80911678001E+02 -0.13979534447E+03  0.16291966655E+03  0.47000000000E+01 0. -1.
        -13    1    4    4    0    0 -0.44115014146E+02  0.26596635857E+02  0.17637672682E+02  0.54448168102E+02  0.00000000000E+00 0.  1.
         14    1    4    4    0    0 -0.78725964730E+02  0.49191511817E+02 -0.77407998132E+02  0.12087009776E+03  0.00000000000E+00 0. -1.
         -5    1    5    5    0  503  0.38864422119E+02 -0.49384060860E+02 -0.21836256514E+03  0.22727412662E+03  0.47000000000E+01 0.  1.
         11    1    6    6    0    0  0.81171417125E+02 -0.31327916955E+02 -0.74803976257E+02  0.11474263463E+03  0.00000000000E+00 0. -1.
        -12    1    6    6    0    0  0.23572656923E+02 -0.75987847860E+02 -0.36203689262E+02  0.87410126948E+02  0.00000000000E+00 0.  1.
</event>
<event>
12    1  0.9017558E-003  0.1850772E+03  0.7818608E-02  0.1163595E+00
         21   -1    0    0  503  502  0.00000000000E+00  0.00000000000E+00  0.90325049573E+03  0.90325049573E+03  0.00000000000E+00 0.  1.
         21   -1    0    0  501  503 -0.00000000000E+00 -0.00000000000E+00 -0.40671064972E+02  0.40671064972E+02  0.00000000000E+00 0.  1.
          6    2    1    2  501    0  0.45876331209E+02  0.42872976541E+02  0.30000308135E+03  0.35249884110E+03  0.17410012714E+03 0.  0.
         24    2    3    3    0    0  0.25019350625E+02  0.43881109500E+02  0.31336462046E+03  0.32726690303E+03  0.79716502618E+02 0.  0.
         -6    2    1    2    0  502 -0.45876331209E+02 -0.42872976541E+02  0.56257634941E+03  0.59142271961E+03  0.17130660954E+03 0.  0.
        -24    2    5    5    0    0  0.18160231056E+02 -0.61970527903E+02  0.43693163998E+03  0.44903563880E+03  0.80954348700E+02 0.  0.
          5    1    3    3  501    0  0.20856980584E+02 -0.10081329590E+01 -0.13361539106E+02  0.25231938063E+02  0.47000000000E+01 0. -1.
        -11    1    4    4    0    0  0.44170406347E+02  0.23429119659E+02  0.97316744231E+02  0.10940976717E+03  0.00000000000E+00 0.  1.
         12    1    4    4    0    0 -0.19151055721E+02  0.20451989841E+02  0.21604787623E+03  0.21785713586E+03  0.00000000000E+00 0. -1.
         -5    1    5    5    0  502 -0.64036562265E+02  0.19097551362E+02  0.12564470943E+03  0.14238708081E+03  0.47000000000E+01 0.  1.
         13    1    6    6    0    0  0.20797568557E+01 -0.33976608043E+02  0.39324060682E+03  0.39471117305E+03  0.00000000000E+00 0. -1.
        -14    1    6    6    0    0  0.16080474200E+02 -0.27993919860E+02  0.43691033167E+02  0.54324465748E+02  0.00000000000E+00 0.  1.
</event>
<event>
12    1  0.9017558E-003  0.2837657E+03  0.7818608E-02  0.1093745E+00
         21   -1    0    0  501  502  0.00000000000E+00  0.00000000000E+00  0.41693486767E+03  0.41693486767E+03  0.00000000000E+00 0.  1.
         21   -1    0    0  502  503 -0.00000000000E+00 -0.00000000000E+00 -0.19538350571E+03  0.19538350571E+03  0.00000000000E+00 0. -1.
          6    2    1    2  501    0  0.20560852595E+03  0.92268780468E+02  0.14686043647E+03  0.31888749348E+03  0.17126836223E+03 0.  0.
         24    2    3    3    0    0  0.16051256603E+03  0.59781919094E+01  0.61532580323E+02  0.18933964784E+03  0.79140515349E+02 0.  0.
         -6    2    1    2    0  503 -0.20560852595E+03 -0.92268780468E+02  0.74690925487E+02  0.29343087991E+03  0.17243709908E+03 0.  0.
        -24    2    5    5    0    0 -0.59231911432E+02 -0.13863210403E+02  0.78678328702E+02  0.12726368675E+03  0.79405028958E+02 0.  0.
          5    1    3    3  501    0  0.45095959922E+02  0.86290588559E+02  0.85327856148E+02  0.12954784564E+03  0.47000000000E+01 0. -1.
        -11    1    4    4    0    0  0.79946945621E+01 -0.22433234967E+02  0.60083531656E+01  0.24561463311E+02  0.00000000000E+00 0.  1.
         12    1    4    4    0    0  0.15251787147E+03  0.28411426876E+02  0.55524227157E+02  0.16477818453E+03  0.00000000000E+00 0. -1.
         -5    1    5    5    0  503 -0.14637661452E+03 -0.78405570065E+02 -0.39874032156E+01  0.16616719315E+03  0.47000000000E+01 0.  1.
         13    1    6    6    0    0  0.15767424318E+01  0.18310721046E+02 -0.48928246620E+01  0.19018631788E+02  0.00000000000E+00 0. -1.
        -14    1    6    6    0    0 -0.60808653864E+02 -0.32173931449E+02  0.83571153364E+02  0.10824505496E+03  0.00000000000E+00 0.  1.
</event>
<event>
12    1  0.9017558E-003  0.1736595E+03  0.7818608E-02  0.1176288E+00
         21   -1    0    0  501  502  0.00000000000E+00  0.00000000000E+00  0.89507747766E+02  0.89507747766E+02  0.00000000000E+00 0.  1.
         21   -1    0    0  502  503 -0.00000000000E+00 -0.00000000000E+00 -0.32345048225E+03  0.32345048225E+03  0.00000000000E+00 0.  1.
          6    2    1    2  501    0  0.65424539157E+01  0.26356594214E+02 -0.13308079968E+03  0.21213308534E+03  0.16294929546E+03 0.  0.
         24    2    3    3    0    0 -0.25933768880E+01  0.74971564732E+02 -0.10955920705E+03  0.15715823579E+03  0.84071577284E+02 0.  0.
         -6    2    1    2    0  503 -0.65424539157E+01 -0.26356594214E+02 -0.10086193480E+03  0.20082514467E+03  0.17152298702E+03 0.  0.
        -24    2    5    5    0    0 -0.44762492450E+02 -0.52107698392E+02 -0.11092055865E+03  0.15342096104E+03  0.80720059414E+02 0.  0.
          5    1    3    3  501    0  0.91358308037E+01 -0.48614970518E+02 -0.23521592635E+02  0.54974849550E+02  0.47000000000E+01 0. -1.
        -13    1    4    4    0    0  0.32772526061E+02  0.62572542321E+01 -0.47481868176E+02  0.58032055800E+02  0.00000000000E+00 0.  1.
         14    1    4    4    0    0 -0.35365902949E+02  0.68714310500E+02 -0.62077338870E+02  0.99126179993E+02  0.00000000000E+00 0. -1.
         -5    1    5    5    0  503  0.38220038534E+02  0.25751104178E+02  0.10058623853E+02  0.47404183631E+02  0.47000000000E+01 0.  1.
         13    1    6    6    0    0 -0.66403217767E+02 -0.25879008514E+02 -0.66459480498E+02  0.97447282977E+02  0.00000000000E+00 0. -1.
        -14    1    6    6    0    0  0.21640725317E+02 -0.26228689878E+02 -0.44461078154E+02  0.55973678060E+02  0.00000000000E+00 0.  1.
</event>
<event>
12    1  0.9017558E-003  0.1900468E+03  0.7818608E-02  0.1159066E+00
         21   -1    0    0  503  502  0.00000000000E+00  0.00000000000E+00  0.23606043029E+03  0.23606043029E+03  0.00000000000E+00 0.  1.
         21   -1    0    0  501  503 -0.00000000000E+00 -0.00000000000E+00 -0.16290682904E+03  0.16290682904E+03  0.00000000000E+00 0. -1.
          6    2    1    2  501    0 -0.12093309543E+02 -0.78620967986E+02  0.91392191034E+02  0.21087982477E+03  0.17259856074E+03 0.  0.
         24    2    3    3    0    0 -0.22629488852E+01 -0.98931499022E+02  0.11892588275E+03  0.17497233473E+03  0.81727534515E+02 0.  0.
         -6    2    1    2    0  502  0.12093309543E+02  0.78620967986E+02 -0.18238589782E+02  0.18808743456E+03  0.16946011962E+03 0.  0.
        -24    2    5    5    0    0 -0.15989049768E+02  0.11513852092E+03 -0.73598380156E+01  0.14052076749E+03  0.78609097236E+02 0.  0.
          5    1    3    3  501    0 -0.98303606581E+01  0.20310531037E+02 -0.27533691713E+02  0.35907490040E+02  0.47000000000E+01 0. -1.
        -13    1    4    4    0    0 -0.31716509125E+02 -0.15708415036E+02  0.14546938278E+02  0.38266234036E+02  0.00000000000E+00 0.  1.
         14    1    4    4    0    0  0.29453560240E+02 -0.83223083986E+02  0.10437894447E+03  0.13670610070E+03  0.00000000000E+00 0. -1.
         -5    1    5    5    0  502  0.28082359311E+02 -0.36517552931E+02 -0.10878751767E+02  0.47566667074E+02  0.47000000000E+01 0.  1.
         13    1    6    6    0    0 -0.47455823868E+02  0.56583849807E+02 -0.33418781420E+01  0.73925336844E+02  0.00000000000E+00 0. -1.
        -14    1    6    6    0    0  0.31466774100E+02  0.58554671110E+02 -0.40179598736E+01  0.66595430644E+02  0.00000000000E+00 0.  1.
</event>
<event>
12    1  0.9017558E-003  0.1805540E+03  0.7818608E-02  0.1167565E+00
         21   -1    0    0  503  502  0.00000000000E+00  0.00000000000E+00  0.50875820114E+03  0.50875820114E+03  0.00000000000E+00 0.  1.
         21   -1    0    0  501  503 -0.00000000000E+00 -0.00000000000E+00 -0.95508758148E+02  0.95508758148E+02  0.00000000000E+00 0.  1.
          6    2    1    2  501    0 -0.31564147646E+02 -0.41719115993E+02  0.31635355838E+02  0.18209512928E+03  0.17152568412E+03 0.  0.
         24    2    3    3    0    0  0.51670978295E+01 -0.15277700368E+02 -0.45368599917E+02  0.92652230981E+02  0.79158189840E+02 0.  0.
         -6    2    1    2    0  502  0.31564147646E+02  0.41719115993E+02  0.38161408715E+03  0.42217183001E+03  0.17280903472E+03 0.  0.
        -24    2    5    5    0    0 -0.15635427444E+02 -0.24076059442E+02  0.27835593977E+03  0.29086630841E+03  0.79353997614E+02 0.  0.
          5    1    3    3  501    0 -0.36731245475E+02 -0.26441415624E+02  0.77003955755E+02  0.89442898300E+02  0.47000000000E+01 0. -1.
        -11    1    4    4    0    0 -0.10236418716E+02  0.30243191033E+02 -0.11830146156E+02  0.34049775771E+02  0.00000000000E+00 0.  1.
         12    1    4    4    0    0  0.15403516545E+02 -0.45520891401E+02 -0.33538453761E+02  0.58602455210E+02  0.00000000000E+00 0. -1.
         -5    1    5    5    0  502  0.47199575090E+02  0.65795175434E+02  0.10325814739E+03  0.13130552159E+03  0.47000000000E+01 0.  1.
         13    1    6    6    0    0 -0.37800646407E+02  0.56425012845E+01  0.75197554050E+02  0.84352823454E+02  0.00000000000E+00 0. -1.
        -14    1    6    6    0    0  0.22165218963E+02 -0.29718560726E+02  0.20315838572E+03  0.20651348496E+03  0.00000000000E+00 0.  1.
</event>
<event>
12    1  0.9017558E-003  0.2269641E+03  0.7818608E-02  0.1129571E+00
         21   -1    0    0  503  502  0.00000000000E+00  0.00000000000E+00  0.11737628887E+04  0.11737628887E+04  0.00000000000E+00 0. -1.
         21   -1    0    0  501  503 -0.00000000000E+00 -0.00000000000E+00 -0.50045656374E+02  0.50045656374E+02  0.00000000000E+00 0. -1.
          6    2    1    2  501    0 -0.64105143827E+02 -0.12600735936E+03  0.78582851671E+03  0.81676860984E+03  0.17203831047E+03 0.  0.
         24    2    3    3    0    0 -0.90422535048E+02 -0.31585343440E+02  0.41905544498E+03  0.43709414623E+03  0.79183065973E+02 0.  0.
         -6    2    1    2    0  502  0.64105143827E+02  0.12600735936E+03  0.33788871565E+03  0.40703993527E+03  0.17755393733E+03 0.  0.
        -24    2    5    5    0    0  0.24059047056E+02  0.92561936653E+01  0.12227356186E+03  0.15855148664E+03  0.97587064306E+02 0.  0.
          5    1    3    3  501    0  0.26317391222E+02 -0.94422015918E+02  0.36677307174E+03  0.37967446361E+03  0.47000000000E+01 0. -1.
        -11    1    4    4    0    0 -0.10053032674E+03 -0.28541406806E+02  0.30212329658E+03  0.31968647896E+03  0.00000000000E+00 0.  1.
         12    1    4    4    0    0  0.10107791693E+02 -0.30439366348E+01  0.11693214840E+03  0.11740766727E+03  0.00000000000E+00 0. -1.
         -5    1    5    5    0  502  0.40046096771E+02  0.11675116569E+03  0.21561515380E+03  0.24848844863E+03  0.47000000000E+01 0.  1.
         13    1    6    6    0    0  0.42461880384E+02  0.42452931397E+02  0.55610630181E+02  0.81840117663E+02  0.00000000000E+00 0. -1.
        -14    1    6    6    0    0 -0.18402833328E+02 -0.33196737732E+02  0.66662931675E+02  0.76711368976E+02  0.00000000000E+00 0.  1.
</event>
<event>
12    1  0.9017558E-003  0.1829695E+03  0.7818608E-02  0.1165610E+00
         21   -1    0    0  503  502  0.00000000000E+00  0.00000000000E+00  0.39330415765E+03  0.39330415765E+03  0.00000000000E+00 0. -1.
         21   -1    0    0  501  503 -0.00000000000E+00 -0.00000000000E+00 -0.89645954436E+02  0.89645954436E+02  0.00000000000E+00 0. -1.
          6    2    1    2  501    0 -0.24443652773E+02  0.48537381539E+02  0.89404623065E+02  0.20120121601E+03  0.17185858469E+03 0.  0.
         24    2    3    3    0    0 -0.30053150130E+02  0.97126044547E+02  0.74829173097E+02  0.14994832950E+03  0.80922407357E+02 0.  0.
         -6    2    1    2    0  502  0.24443652773E+02 -0.48537381539E+02  0.21425358015E+03  0.28174889608E+03  0.17471254753E+03 0.  0.
        -24    2    5    5    0    0  0.62857544725E+02 -0.16189786036E+02  0.20859437807E+03  0.23099349638E+03  0.75054651470E+02 0.  0.
          5    1    3    3  501    0  0.56094973567E+01 -0.48588663008E+02  0.14575449969E+02  0.51252886507E+02  0.47000000000E+01 0. -1.
        -11    1    4    4    0    0 -0.67381196243E+01 -0.14391085549E+02  0.70647220573E+01  0.17390109174E+02  0.00000000000E+00 0.  1.
         12    1    4    4    0    0 -0.23315030505E+02  0.11151713010E+03  0.67764451039E+02  0.13255822033E+03  0.00000000000E+00 0. -1.
         -5    1    5    5    0  502 -0.38413891952E+02 -0.32347595503E+02  0.56592020753E+01  0.50755399692E+02  0.47000000000E+01 0.  1.
         11    1    6    6    0    0  0.18773443985E+02  0.22363073322E+02  0.12848072278E+03  0.13175676595E+03  0.00000000000E+00 0. -1.
        -12    1    6    6    0    0  0.44084100740E+02 -0.38552859358E+02  0.80113655291E+02  0.99236730433E+02  0.00000000000E+00 0.  1.
</event>
<event>
12    1  0.9017558E-003  0.2794756E+03  0.7818608E-02  0.1096013E+00
         21   -1    0    0  501  502  0.00000000000E+00  0.00000000000E+00  0.37980040611E+03  0.37980040611E+03  0.00000000000E+00 0.  1.
         21   -1    0    0  502  503 -0.00000000000E+00 -0.00000000000E+00 -0.20756586361E+03  0.20756586361E+03  0.00000000000E+00 0.  1.
          6    2    1    2  501    0  0.16610093403E+03  0.14324225445E+03  0.56528851430E+02  0.28513524110E+03  0.17320141722E+03 0.  0.
         24    2    3    3    0    0  0.31797765645E+02  0.93729093977E+01  0.34746209590E+02  0.94203535854E+02  0.81043554684E+02 0.  0.
         -6    2    1    2    0  503 -0.16610093403E+03 -0.14324225445E+03  0.11570569108E+03  0.30223102862E+03  0.17276551730E+03 0.  0.
        -24    2    5    5    0    0 -0.96717428368E+02 -0.47023051450E+02 -0.37931180363E+01  0.13378441612E+03  0.79488703190E+02 0.  0.
          5    1    3    3  501    0  0.13430316838E+03  0.13386934505E+03  0.21782641840E+02  0.19093170524E+03  0.47000000000E+01 0. -1.
        -11    1    4    4    0    0  0.13353881782E+02  0.98354266334E+01  0.60382396789E+02  0.62618652314E+02  0.00000000000E+00 0.  1.
         12    1    4    4    0    0  0.18443883862E+02 -0.46251723573E+00 -0.25636187198E+02  0.31584883539E+02  0.00000000000E+00 0. -1.
         -5    1    5    5    0  503 -0.69383505660E+02 -0.96219202996E+02  0.11949880911E+03  0.16844661250E+03  0.47000000000E+01 0.  1.
         11    1    6    6    0    0  0.64626419586E+00 -0.66581337021E+01  0.23891121017E+02  0.24809958993E+02  0.00000000000E+00 0. -1.
        -12    1    6    6    0    0 -0.97363692564E+02 -0.40364917748E+02 -0.27684239053E+02  0.10897445713E+03  0.00000000000E+00 0.  1.
</event>
<event>
12    1  0.9017558E-003  0.3124719E+03  0.7818608E-02  0.1079225E+00
         21   -1    0    0  503  502  0.00000000000E+00  0.00000000000E+00  0.56792182300E+03  0.56792182300E+03  0.00000000000E+00 0. -1.
         21   -1    0    0  501  503 -0.00000000000E+00 -0.00000000000E+00 -0.24488420794E+03  0.24488420794E+03  0.00000000000E+00 0.  1.
          6    2    1    2  501    0  0.24219141556E+03  0.94042545046E+02 -0.60807451786E+02  0.31785582382E+03  0.17272549462E+03 0.  0.
         24    2    3    3    0    0  0.19861700329E+03  0.85301010367E+02 -0.10700217847E+03  0.25358151630E+03  0.78288842400E+02 0.  0.
         -6    2    1    2    0  502 -0.24219141556E+03 -0.94042545046E+02  0.38384506684E+03  0.49495020712E+03  0.17360296697E+03 0.  0.
        -24    2    5    5    0    0 -0.22722250525E+03 -0.66466695201E+02  0.23485662167E+03  0.34262114697E+03  0.78636690854E+02 0.  0.
          5    1    3    3  501    0  0.43574412263E+02  0.87415346790E+01  0.46194726688E+02  0.64274307514E+02  0.47000000000E+01 0. -1.
        -13    1    4    4    0    0  0.12025832185E+03  0.83575786664E+02 -0.43687408468E+02  0.15282527851E+03  0.00000000000E+00 0.  1.
         14    1    4    4    0    0  0.78358681440E+02  0.17252237034E+01 -0.63314770006E+02  0.10075623780E+03  0.00000000000E+00 0. -1.
         -5    1    5    5    0  502 -0.14968910312E+02 -0.27575849845E+02  0.14898844517E+03  0.15232906015E+03  0.47000000000E+01 0.  1.
         13    1    6    6    0    0 -0.20731885603E+02 -0.15573067630E+02  0.66507452778E+02  0.71383280893E+02  0.00000000000E+00 0. -1.
        -14    1    6    6    0    0 -0.20649061964E+03 -0.50893627570E+02  0.16834916889E+03  0.27123786608E+03  0.00000000000E+00 0.  1.
</event>
<event>
12    1  0.9017558E-003  0.1875902E+03  0.7818608E-02  0.1162648E+00
         21   -1    0    0  503  502  0.00000000000E+00  0.00000000000E+00  0.19066757002E+03  0.19066757002E+03  0.00000000000E+00 0.  1.
         21   -1    0    0  501  503 -0.00000000000E+00 -0.00000000000E+00 -0.17673594809E+03  0.17673594809E+03  0.00000000000E+00 0.  1.
          6    2    1    2  501    0 -0.48777027578E+02  0.27760658993E+02  0.15881655278E+02  0.17980318478E+03  0.17007970390E+03 0.  0.
         24    2    3    3    0    0 -0.54508661399E+01  0.75455273404E+02 -0.64462882426E+01  0.11144706165E+03  0.81582367525E+02 0.  0.
         -6    2    1    2    0  502  0.48777027578E+02 -0.27760658993E+02 -0.19500333539E+01  0.18760033332E+03  0.17899784866E+03 0.  0.
        -24    2    5    5    0    0  0.11593728256E+02 -0.49268571154E+02 -0.62596905115E+02  0.11313342062E+03  0.79492085718E+02 0.  0.
          5    1    3    3  501    0 -0.43326161438E+02 -0.47694614411E+02  0.22327943521E+02  0.68356123140E+02  0.47000000000E+01 0. -1.
        -13    1    4    4    0    0 -0.42855852450E+02  0.47947257216E+02  0.15791219078E+01  0.64327732664E+02  0.00000000000E+00 0.  1.
         14    1    4    4    0    0  0.37404986310E+02  0.27508016188E+02 -0.80254101504E+01  0.47119328981E+02  0.00000000000E+00 0. -1.
         -5    1    5    5    0  502  0.37183299322E+02  0.21507912162E+02  0.60646871761E+02  0.74466912709E+02  0.47000000000E+01 0.  1.
         13    1    6    6    0    0 -0.14859754798E+02 -0.12458328053E+02  0.14146092185E+02  0.24002795142E+02  0.00000000000E+00 0. -1.
        -14    1    6    6    0    0  0.26453483055E+02 -0.36810243101E+02 -0.76742997299E+02  0.89130625474E+02  0.00000000000E+00 0.  1.
</event>
<event>
12    1  0.9017558E-003  0.2059268E+03  0.7818608E-02  0.1145064E+00
         21   -1    0    0  501  502  0.00000000000E+00  0.00000000000E+00  0.58491547812E+03  0.58491547812E+03  0.00000000000E+00 0.  1.
         21   -1    0    0  502  503 -0.00000000000E+00 -0.00000000000E+00 -0.72774520806E+02  0.72774520806E+02  0.00000000000E+00 0.  1.
          6    2    1    2  501    0  0.20504571140E+01 -0.11214902210E+03  0.22509333243E+03  0.30507847270E+03  0.17269701408E+03 0.  0.
         24    2    3    3    0    0 -0.55110383312E+01 -0.12285439054E+03  0.24184787100E+03  0.28329348500E+03  0.81493761212E+02 0.  0.
         -6    2    1    2    0  503 -0.20504571140E+01  0.11214902210E+03  0.28704762489E+03  0.35261152622E+03  0.17133867613E+03 0.  0.
        -24    2    5    5    0    0 -0.14302060962E+00 -0.91444395132E+01  0.14192530992E+03  0.16340709064E+03  0.80470133868E+02 0.  0.
          5    1    3    3  501    0  0.75614954452E+01  0.10705368437E+02 -0.16754538571E+02  0.21784987709E+02  0.47000000000E+01 0. -1.
        -13    1    4    4    0    0  0.31106456502E+02 -0.24757013060E+02  0.94577201740E+02  0.10259321820E+03  0.00000000000E+00 0.  1.
         14    1    4    4    0    0 -0.36617494833E+02 -0.98097377480E+02  0.14727066926E+03  0.18070026680E+03  0.00000000000E+00 0. -1.
         -5    1    5    5    0  503 -0.19074365043E+01  0.12129346162E+03  0.14512231497E+03  0.18920443559E+03  0.47000000000E+01 0.  1.
         11    1    6    6    0    0 -0.27633855190E+02  0.24829564191E+02  0.60536035805E+02  0.71026395386E+02  0.00000000000E+00 0. -1.
        -12    1    6    6    0    0  0.27490834580E+02 -0.33974003704E+02  0.81389274116E+02  0.92380695249E+02  0.00000000000E+00 0.  1.
</event>
<event>
12    1  0.9017558E-003  0.1858514E+03  0.7818608E-02  0.1162410E+00
         21   -1    0    0  501  502  0.00000000000E+00  0.00000000000E+00  0.38341894421E+02  0.38341894421E+02  0.00000000000E+00 0.  1.
         21   -1    0    0  502  503 -0.00000000000E+00 -0.00000000000E+00 -0.92234663575E+03  0.92234663575E+03  0.00000000000E+00 0.  1.
          6    2    1    2  501    0  0.69097025199E+01  0.68161570046E+02 -0.51978731060E+03  0.55179359843E+03  0.17205691905E+03 0.  0.
         24    2    3    3    0    0 -0.60936070346E+02  0.56980884151E+02 -0.28752965309E+03  0.30952563500E+03  0.78567114561E+02 0.  0.
         -6    2    1    2    0  503 -0.69097025199E+01 -0.68161570046E+02 -0.36421743073E+03  0.40889493174E+03  0.17276279904E+03 0.  0.
        -24    2    5    5    0    0  0.55937211934E+02 -0.70161069366E+02 -0.20618305584E+03  0.23874591969E+03  0.80228513132E+02 0.  0.
          5    1    3    3  501    0  0.67845772865E+02  0.11180685895E+02 -0.23225765751E+03  0.24226796343E+03  0.47000000000E+01 0. -1.
        -13    1    4    4    0    0 -0.53537714910E+02  0.34330899116E+02 -0.27566680054E+03  0.28290825805E+03  0.00000000000E+00 0.  1.
         14    1    4    4    0    0 -0.73983554353E+01  0.22649985035E+02 -0.11862852545E+02  0.26617376951E+02  0.00000000000E+00 0. -1.
         -5    1    5    5    0  503 -0.62846914454E+02  0.19994993201E+01 -0.15803437490E+03  0.17014901205E+03  0.47000000000E+01 0.  1.
         11    1    6    6    0    0  0.15696875103E+02  0.12325959997E+02 -0.10370427845E+02  0.22491486201E+02  0.00000000000E+00 0. -1.
        -12    1    6    6    0    0  0.40240336831E+02 -0.82487029363E+02 -0.19581262799E+03  0.21625443349E+03  0.00000000000E+00 0.  1.
</event>
<event>
12    1  0.9017558E-003  0.2290583E+03  0.7818608E-02  0.1127397E+00
         21   -1    0    0  503  502  0.00000000000E+00  0.00000000000E+00  0.42419084792E+03  0.42419084792E+03  0.00000000000E+00 0. -1.
         21   -1    0    0  501  503 -0.00000000000E+00 -0.00000000000E+00 -0.12733587404E+03  0.12733587404E+03  0.00000000000E+00 0. -1.
          6    2    1    2  501    0  0.12659065480E+03 -0.82399433759E+02  0.19703012173E+03  0.30213996484E+03  0.17219996782E+03 0.  0.
         24    2    3    3    0    0  0.56336093376E+02 -0.11138906068E+03  0.99474070466E+02  0.17838466189E+03  0.79653742185E+02 0.  0.
         -6    2    1    2    0  502 -0.12659065480E+03  0.82399433759E+02  0.99824852153E+02  0.24938675712E+03  0.17150478989E+03 0.  0.
        -24    2    5    5    0    0 -0.35303835235E+02  0.38960719243E+02 -0.18891409926E+02  0.93387249986E+02  0.74833112088E+02 0.  0.
          5    1    3    3  501    0  0.70254561423E+02  0.28989626925E+02  0.97556051266E+02  0.12375530295E+03  0.47000000000E+01 0. -1.
        -13    1    4    4    0    0  0.48483402651E+01  0.12753710198E+02  0.80862948370E+01  0.15860381185E+02  0.00000000000E+00 0.  1.
         14    1    4    4    0    0  0.51487753111E+02 -0.12414277088E+03  0.91387775629E+02  0.16252428070E+03  0.00000000000E+00 0. -1.
         -5    1    5    5    0  502 -0.91286819564E+02  0.43438714516E+02  0.11871626208E+03  0.15599950714E+03  0.47000000000E+01 0.  1.
         13    1    6    6    0    0 -0.57706243066E+02  0.30981893651E+02 -0.46362900851E+01  0.65661125552E+02  0.00000000000E+00 0. -1.
        -14    1    6    6    0    0  0.22402407831E+02  0.79788255919E+01 -0.14255119841E+02  0.27726124434E+02  0.00000000000E+00 0.  1.
</event>
<event>
12    1  0.9017558E-003  0.3389113E+03  0.7818608E-02  0.1067294E+00
         21   -1    0    0  503  502  0.00000000000E+00  0.00000000000E+00  0.87496187034E+03  0.87496187034E+03  0.00000000000E+00 0. -1.
         21   -1    0    0  501  503 -0.00000000000E+00 -0.00000000000E+00 -0.19342637940E+03  0.19342637940E+03  0.00000000000E+00 0. -1.
          6    2    1    2  501    0  0.25898499618E+03  0.13420822481E+03  0.37564597365E+02  0.34067996000E+03  0.17194958656E+03 0.  0.
         24    2    3    3    0    0  0.15880869901E+03  0.13950944630E+03 -0.16998787934E+02  0.22638802468E+03  0.79243235913E+02 0.  0.
         -6    2    1    2    0  502 -0.25898499618E+03 -0.13420822481E+03  0.64397089357E+03  0.72770828973E+03  0.17255656268E+03 0.  0.
        -24    2    5    5    0    0 -0.55949917452E+02 -0.94330157494E+02  0.27844841480E+03  0.30765796425E+03  0.71353566048E+02 0.  0.
          5    1    3    3  501    0  0.10017629718E+03 -0.53012214940E+01  0.54563385299E+02  0.11429193533E+03  0.47000000000E+01 0. -1.
        -13    1    4    4    0    0  0.16438255698E+03  0.13015293425E+03 -0.27247903338E+02  0.21143287249E+03  0.00000000000E+00 0.  1.
         14    1    4    4    0    0 -0.55738579686E+01  0.93565120521E+01  0.10249115405E+02  0.14955152190E+02  0.00000000000E+00 0. -1.
         -5    1    5    5    0  502 -0.20303507873E+03 -0.39878067316E+02  0.36552247878E+03  0.42005032548E+03  0.47000000000E+01 0.  1.
         11    1    6    6    0    0 -0.61986429134E+02 -0.83426524186E+02  0.27604806958E+03  0.29496582693E+03  0.00000000000E+00 0. -1.
        -12    1    6    6    0    0  0.60365116824E+01 -0.10903633308E+02  0.24003452109E+01  0.12692137320E+02  0.00000000000E+00 0.  1.
</event>
<event>
12    1  0.9017558E-003  0.1795665E+03  0.7818608E-02  0.1168510E+00
         21   -1    0    0  501  502  0.00000000000E+00  0.00000000000E+00  0.60894150678E+03  0.60894150678E+03  0.00000000000E+00 0.  1.
         21   -1    0    0  502  503 -0.00000000000E+00 -0.00000000000E+00 -0.58315704727E+02  0.58315704727E+02  0.00000000000E+00 0.  1.
          6    2    1    2  501    0  0.47256659542E+02 -0.13882015569E+02  0.37889998194E+03  0.41879419712E+03  0.17145693628E+03 0.  0.
         24    2    3    3    0    0 -0.19304909791E+02  0.32460044535E+02  0.26266267349E+03  0.27698012545E+03  0.79372386998E+02 0.  0.
         -6    2    1    2    0  503 -0.47256659542E+02  0.13882015569E+02  0.17172582012E+03  0.24846301439E+03  0.17267950081E+03 0.  0.
        -24    2    5    5    0    0 -0.93520665247E+02  0.20029478517E+02  0.15618530888E+03  0.19904897778E+03  0.77970186659E+02 0.  0.
          5    1    3    3  501    0  0.66561569332E+02 -0.46342060104E+02  0.11623730846E+03  0.14181407167E+03  0.47000000000E+01 0. -1.
        -13    1    4    4    0    0 -0.10250510173E+02 -0.19894522310E+02  0.15826768184E+03  0.15984218496E+03  0.00000000000E+00 0.  1.
         14    1    4    4    0    0 -0.90543996178E+01  0.52354566844E+02  0.10439499164E+03  0.11713794049E+03  0.00000000000E+00 0. -1.
         -5    1    5    5    0  503  0.46264005705E+02 -0.61474629474E+01  0.15540511232E+02  0.49414036608E+02  0.47000000000E+01 0.  1.
         13    1    6    6    0    0  0.93354448244E+01 -0.12019857568E+02  0.25332001948E+02  0.29552289738E+02  0.00000000000E+00 0. -1.
        -14    1    6    6    0    0 -0.10285611007E+03  0.32049336085E+02  0.13085330694E+03  0.16949668805E+03  0.00000000000E+00 0.  1.
</event>
<event>
12    1  0.9017558E-003  0.1756221E+03  0.7818608E-02  0.1172169E+00
         21   -1    0    0  503  502  0.00000000000E+00  0.00000000000E+00  0.11653367222E+03  0.11653367222E+03  0.00000000000E+00 0.  1.
         21   -1    0    0  501  503 -0.00000000000E+00 -0.00000000000E+00 -0.52264185367E+03  0.52264185367E+03  0.00000000000E+00 0.  1.
          6    2    1    2  501    0 -0.24808582823E+02  0.20700054538E+02 -0.42781093212E+03  0.46245574332E+03  0.17262434025E+03 0.  0.
         24    2    3    3    0    0  0.36824573522E+02  0.38720380106E+02 -0.34410811318E+03  0.35685446495E+03  0.77970497927E+02 0.  0.
         -6    2    1    2    0  502  0.24808582823E+02 -0.20700054538E+02  0.21702750678E+02  0.17671978257E+03  0.17238014423E+03 0.  0.
        -24    2    5    5    0    0 -0.51783193680E+02 -0.25280262393E+01  0.23510073880E+02  0.97840892763E+02  0.79575289245E+02 0.  0.
          5    1    3    3  501    0 -0.61633156345E+02 -0.18020325568E+02 -0.83702818937E+02  0.10560127837E+03  0.47000000000E+01 0. -1.
        -11    1    4    4    0    0  0.91743063734E+01 -0.23555088866E+02 -0.70685871763E+02  0.75069984520E+02  0.00000000000E+00 0.  1.
         12    1    4    4    0    0  0.27650267148E+02  0.62275468972E+02 -0.27342224142E+03  0.28178448043E+03  0.00000000000E+00 0. -1.
         -5    1    5    5    0  502  0.76591776503E+02 -0.18172028299E+02 -0.18073232024E+01  0.78878889810E+02  0.47000000000E+01 0.  1.
         13    1    6    6    0    0 -0.10856285633E+02  0.21410527393E+02  0.40828849521E+02  0.47363114068E+02  0.00000000000E+00 0. -1.
        -14    1    6    6    0    0 -0.40926908047E+02 -0.23938553633E+02 -0.17318775640E+02  0.50477778695E+02  0.00000000000E+00 0.  1.
</event>
<event>
12    1  0.9017558E-003  0.2032431E+03  0.7818608E-02  0.1147356E+00
         21   -1    0    0  503  502  0.00000000000E+00  0.00000000000E+00  0.19037477690E+04  0.19037477690E+04  0.00000000000E+00 0.  1.
         21   -1    0    0  501  503 -0.00000000000E+00 -0.00000000000E+00 -0.28550413397E+02  0.28550413397E+02  0.00000000000E+00 0. -1.
          6    2    1    2  501    0  0.67485545883E+02  0.81784583088E+02  0.14139067045E+04  0.14282180132E+04  0.17155613452E+03 0.  0.
         24    2    3    3    0    0  0.46027894834E+02 -0.13424693103E+02  0.91644924453E+03  0.92125524185E+03  0.80828295498E+02 0.  0.
         -6    2    1    2    0  502 -0.67485545883E+02 -0.81784583088E+02  0.46129065114E+03  0.50408016922E+03  0.17339185460E+03 0.  0.
        -24    2    5    5    0    0 -0.67057857002E+02  0.21295912410E+01  0.16202110841E+03  0.19323274559E+03  0.81158875396E+02 0.  0.
          5    1    3    3  501    0  0.21457651049E+02  0.95209276191E+02  0.49745745994E+03  0.50696277133E+03  0.47000000000E+01 0. -1.
        -11    1    4    4    0    0  0.69419273887E+02 -0.10868644667E+02  0.66071038440E+03  0.66443613318E+03  0.00000000000E+00 0.  1.
         12    1    4    4    0    0 -0.23391379053E+02 -0.25560484361E+01  0.25573886013E+03  0.25681910867E+03  0.00000000000E+00 0. -1.
         -5    1    5    5    0  502 -0.42768888139E+00 -0.83914174329E+02  0.29926954273E+03  0.31084742363E+03  0.47000000000E+01 0.  1.
         11    1    6    6    0    0 -0.41377491694E+02  0.24414676603E+02  0.14944881885E+03  0.15698128139E+03  0.00000000000E+00 0. -1.
        -12    1    6    6    0    0 -0.25680365308E+02 -0.22285085362E+02  0.12572289559E+02  0.36251464201E+02  0.00000000000E+00 0.  1.
</event>
<event>
12    1  0.9017558E-003  0.2806071E+03  0.7818608E-02  0.1095410E+00
         21   -1    0    0  503  502  0.00000000000E+00  0.00000000000E+00  0.25464759450E+03  0.25464759450E+03  0.00000000000E+00 0.  1.
         21   -1    0    0  501  503 -0.00000000000E+00 -0.00000000000E+00 -0.32065780695E+03  0.32065780695E+03  0.00000000000E+00 0.  1.
          6    2    1    2  501    0  0.11350261279E+03  0.18959881307E+03 -0.88371898344E+02  0.29419372763E+03  0.17294451113E+03 0.  0.
         24    2    3    3    0    0  0.98459106562E+02  0.11283333157E+03 -0.12089987219E+03  0.20934441818E+03  0.82357452324E+02 0.  0.
         -6    2    1    2    0  502 -0.11350261279E+03 -0.18959881307E+03  0.22361685897E+02  0.28111167382E+03  0.17231707731E+03 0.  0.
        -24    2    5    5    0    0 -0.13178931276E+01 -0.51301393241E+02 -0.23467495863E+02  0.97171489087E+02  0.79107554244E+02 0.  0.
          5    1    3    3  501    0  0.15043506228E+02  0.76765481509E+02  0.32527973842E+02  0.84849309444E+02  0.47000000000E+01 0. -1.
        -11    1    4    4    0    0  0.95436270384E+02  0.51447581583E+02 -0.87961552213E+02  0.13961436181E+03  0.00000000000E+00 0.  1.
         12    1    4    4    0    0  0.30228361782E+01  0.61385749984E+02 -0.32938319973E+02  0.69730056376E+02  0.00000000000E+00 0. -1.
         -5    1    5    5    0  502 -0.11218471966E+03 -0.13829741983E+03  0.45829181760E+02  0.18394018473E+03  0.47000000000E+01 0.  1.
         13    1    6    6    0    0 -0.33296868211E+02  0.25670808692E+00 -0.12207669604E+02  0.35465117071E+02  0.00000000000E+00 0. -1.
        -14    1    6    6    0    0  0.31978975084E+02 -0.51558101328E+02 -0.11259826260E+02  0.61706372016E+02  0.00000000000E+00 0.  1.
</event>
<event>
12    1  0.9017558E-003  0.2831560E+03  0.7818608E-02  0.1094032E+00
         21   -1    0    0  501  502  0.00000000000E+00  0.00000000000E+00  0.14741584203E+04  0.14741584203E+04  0.00000000000E+00 0. -1.
         21   -1    0    0  502  503 -0.00000000000E+00 -0.00000000000E+00 -0.54330105000E+02  0.54330105000E+02  0.00000000000E+00 0. -1.
          6    2    1    2  501    0  0.22054048208E+03  0.33944370841E+02  0.72393513101E+03  0.77719321134E+03  0.17365739055E+03 0.  0.
         24    2    3    3    0    0  0.82590892714E+02 -0.28888795529E+02  0.43327603916E+03  0.44934737306E+03  0.80802954766E+02 0.  0.
         -6    2    1    2    0  503 -0.22054048208E+03 -0.33944370841E+02  0.69589318433E+03  0.75129531399E+03  0.17431867453E+03 0.  0.
        -24    2    5    5    0    0 -0.10089228214E+03  0.45294356797E+02  0.38359603373E+03  0.40757148884E+03  0.82083920905E+02 0.  0.
          5    1    3    3  501    0  0.13794958937E+03  0.62833166370E+02  0.29065909185E+03  0.32784583828E+03  0.47000000000E+01 0. -1.
        -13    1    4    4    0    0  0.29888876448E+02 -0.33862065342E+02  0.77870114151E+02  0.90020770284E+02  0.00000000000E+00 0.  1.
         14    1    4    4    0    0  0.52702016266E+02  0.49732698130E+01  0.35540592501E+03  0.35932660277E+03  0.00000000000E+00 0. -1.
         -5    1    5    5    0  503 -0.11964819994E+03 -0.79238727638E+02  0.31229715060E+03  0.34372382515E+03  0.47000000000E+01 0.  1.
         13    1    6    6    0    0 -0.75078192548E+02  0.51407979717E+02  0.17449473347E+03  0.19679412436E+03  0.00000000000E+00 0. -1.
        -14    1    6    6    0    0 -0.25814089593E+02 -0.61136229203E+01  0.20910130026E+03  0.21077736448E+03  0.00000000000E+00 0.  1.
</event>
<event>
12    1  0.9017558E-003  0.2168660E+03  0.7818608E-02  0.1136305E+00
         21   -1    0    0  501  502  0.00000000000E+00  0.00000000000E+00  0.35252907580E+03  0.35252907580E+03  0.00000000000E+00 0. -1.
         21   -1    0    0  502  503 -0.00000000000E+00 -0.00000000000E+00 -0.15713841912E+03  0.15713841912E+03  0.00000000000E+00 0. -1.
          6    2    1    2  501    0  0.12998164783E+03  0.25570023020E+02  0.19708421000E+03  0.29279483552E+03  0.17128215033E+03 0.  0.
         24    2    3    3    0    0  0.13728324668E+03 -0.27692725622E+01  0.92617624577E+02  0.18420484292E+03  0.80616630322E+02 0.  0.
         -6    2    1    2    0  503 -0.12998164783E+03 -0.25570023020E+02 -0.16935533213E+01  0.21687265941E+03  0.17170272981E+03 0.  0.
        -24    2    5    5    0    0 -0.64220506515E+02  0.51353554711E+02 -0.49895523110E+01  0.11550837513E+03  0.80968068113E+02 0.  0.
          5    1    3    3  501    0 -0.73015988507E+01  0.28339295582E+02  0.10446658543E+03  0.10858999259E+03  0.47000000000E+01 0. -1.
        -11    1    4    4    0    0 -0.45064952088E+01 -0.81547038306E+01 -0.62906611680E+01  0.11241890925E+02  0.00000000000E+00 0.  1.
         12    1    4    4    0    0  0.14178974189E+03  0.53854312684E+01  0.98908285745E+02  0.17296295200E+03  0.00000000000E+00 0. -1.
         -5    1    5    5    0  503 -0.65761141317E+02 -0.76923577732E+02  0.32959989896E+01  0.10136428428E+03  0.47000000000E+01 0.  1.
         11    1    6    6    0    0 -0.65227343233E+01  0.36998350830E+02  0.28602917739E+02  0.47218120784E+02  0.00000000000E+00 0. -1.
        -12    1    6    6    0    0 -0.57697772192E+02  0.14355203882E+02 -0.33592470050E+02  0.68290254344E+02  0.00000000000E+00 0.  1.
</event>
<event>
12    1  0.9017558E-003  0.2805688E+03  0.7818608E-02  0.1095407E+00
         21   -1    0    0  501  502  0.00000000000E+00  0.00000000000E+00  0.11639338391E+03  0.11639338391E+03  0.00000000000E+00 0. -1.
         21   -1    0    0  502  503 -0.00000000000E+00 -0.00000000000E+00 -0.67627795016E+03  0.67627795016E+03  0.00000000000E+00 0.  1.
          6    2    1    2  501    0 -0.20695361641E+03 -0.76941396397E+02 -0.29045068677E+03  0.40383223435E+03  0.17311584049E+03 0.  0.
         24    2    3    3    0    0 -0.55445263955E+02  0.12869094989E+02 -0.15097810874E+03  0.17912042947E+03  0.77781411894E+02 0.  0.
         -6    2    1    2    0  503  0.20695361641E+03  0.76941396397E+02 -0.26943387947E+03  0.38883909972E+03  0.17277572817E+03 0.  0.
        -24    2    5    5    0    0  0.20798849857E+03  0.47361003539E+02 -0.27657278776E+03  0.35803123329E+03  0.78686573769E+02 0.  0.
          5    1    3    3  501    0 -0.15150835245E+03 -0.89810491385E+02 -0.13947257803E+03  0.22471180487E+03  0.47000000000E+01 0. -1.
        -13    1    4    4    0    0 -0.59123217776E+02  0.34959897919E+02 -0.13544663346E+03  0.15186684911E+03  0.00000000000E+00 0.  1.
         14    1    4    4    0    0  0.36779538207E+01 -0.22090802931E+02 -0.15531475278E+02  0.27253580365E+02  0.00000000000E+00 0. -1.
         -5    1    5    5    0  503 -0.10348821599E+01  0.29580392857E+02  0.71389082850E+01  0.30807866433E+02  0.47000000000E+01 0.  1.
         13    1    6    6    0    0  0.30671316680E+02 -0.99333221848E+01 -0.11953878702E+02  0.34384528098E+02  0.00000000000E+00 0. -1.
        -14    1    6    6    0    0  0.17731718189E+03  0.57294325724E+02 -0.26461890905E+03  0.32364670519E+03  0.00000000000E+00 0.  1.
</event>
<event>
12    1  0.9017558E-003  0.2149802E+03  0.7818608E-02  0.1137980E+00
         21   -1    0    0  501  502  0.00000000000E+00  0.00000000000E+00  0.42421985857E+03  0.42421985857E+03  0.00000000000E+00 0.  1.
         21   -1    0    0  502  503 -0.00000000000E+00 -0.00000000000E+00 -0.14584043286E+03  0.14584043286E+03  0.00000000000E+00 0.  1.
          6    2    1    2  501    0  0.15899646371E+02  0.12498146302E+03  0.28369132918E+03  0.35501450199E+03  0.17228279518E+03 0.  0.
         24    2    3    3    0    0  0.43071460741E+02  0.11538695627E+03  0.12140022464E+03  0.19011800515E+03  0.78978104127E+02 0.  0.
         -6    2    1    2    0  503 -0.15899646371E+02 -0.12498146302E+03 -0.53119034769E+01  0.21504578944E+03  0.17419331326E+03 0.  0.
        -24    2    5    5    0    0  0.40459384901E+02 -0.33137411587E+02  0.20999621471E+02  0.10402301459E+03  0.87434281546E+02 0.  0.
          5    1    3    3  501    0 -0.27171814370E+02  0.95945067517E+01  0.16229110455E+03  0.16489649684E+03  0.47000000000E+01 0. -1.
        -11    1    4    4    0    0  0.23812830739E+02  0.84456621844E+02  0.12583905256E+03  0.15341264299E+03  0.00000000000E+00 0.  1.
         12    1    4    4    0    0  0.19258630002E+02  0.30930334428E+02 -0.44388279257E+01  0.36705362153E+02  0.00000000000E+00 0. -1.
         -5    1    5    5    0  503 -0.56359031272E+02 -0.91844051436E+02 -0.26311524948E+02  0.11102277485E+03  0.47000000000E+01 0.  1.
         13    1    6    6    0    0  0.20252877699E+02 -0.48769390756E+02  0.44691752929E+02  0.69180816052E+02  0.00000000000E+00 0. -1.
        -14    1    6    6    0    0  0.20206507201E+02  0.15631979168E+02 -0.23692131458E+02  0.34842198539E+02  0.00000000000E+00 0.  1.
</event>
<event>
12    1  0.9017558E-003  0.1911086E+03  0.7818608E-02  0.1157830E+00
         21   -1    0    0  503  502  0.00000000000E+00  0.00000000000E+00  0.39120669219E+02  0.39120669219E+02  0.00000000000E+00 0. -1.
         21   -1    0    0  501  503 -0.00000000000E+00 -0.00000000000E+00 -0.99324660905E+03  0.99324660905E+03  0.00000000000E+00 0.  1.
          6    2    1    2  501    0 -0.54300949449E+02  0.59147765400E+02 -0.61358527530E+03  0.64265805794E+03  0.17342271506E+03 0.  0.
         24    2    3    3    0    0 -0.52811748417E+02  0.77949821316E+02 -0.61039502152E+03  0.62296027264E+03  0.81438096603E+02 0.  0.
         -6    2    1    2    0  502  0.54300949449E+02 -0.59147765400E+02 -0.34054066453E+03  0.38970922034E+03  0.17163414856E+03 0.  0.
        -24    2    5    5    0    0  0.44981364763E+02 -0.72957591170E+02 -0.11815001679E+03  0.16664587474E+03  0.80407013463E+02 0.  0.
          5    1    3    3  501    0 -0.14892010323E+01 -0.18802055916E+02 -0.31902537836E+01  0.19697785296E+02  0.47000000000E+01 0. -1.
        -13    1    4    4    0    0 -0.63569466642E+02  0.77383532945E+02 -0.40198162819E+03  0.41426865397E+03  0.00000000000E+00 0.  1.
         14    1    4    4    0    0  0.10757718225E+02  0.56628837074E+00 -0.20841339333E+03  0.20869161867E+03  0.00000000000E+00 0. -1.
         -5    1    5    5    0  502  0.93195846866E+01  0.13809825769E+02 -0.22239064774E+03  0.22306334560E+03  0.47000000000E+01 0.  1.
         11    1    6    6    0    0  0.26286023802E+02 -0.65564203740E+02 -0.30883482556E+02  0.77093510454E+02  0.00000000000E+00 0. -1.
        -12    1    6    6    0    0  0.18695340961E+02 -0.73933874296E+01 -0.87266534233E+02  0.89552364282E+02  0.00000000000E+00 0.  1.
</event>
<event>
12    1  0.9017558E-003  0.1834075E+03  0.7818608E-02  0.1166347E+00
         21   -1    0    0  501  502  0.00000000000E+00  0.00000000000E+00  0.26470759111E+03  0.26470759111E+03  0.00000000000E+00 0.  1.
         21   -1    0    0  502  503 -0.00000000000E+00 -0.00000000000E+00 -0.12614818011E+03  0.12614818011E+03  0.00000000000E+00 0.  1.
          6    2    1    2  501    0  0.28760421296E+02  0.22016119569E+02  0.10349683436E+03  0.20412685267E+03  0.17217521861E+03 0.  0.
         24    2    3    3    0    0  0.48335811789E+02  0.34403207581E+02  0.13371267341E+03  0.16576381326E+03  0.77965578066E+02 0.  0.
         -6    2    1    2    0  503 -0.28760421296E+02 -0.22016119569E+02  0.35062576638E+02  0.18672891856E+03  0.17979553218E+03 0.  0.
        -24    2    5    5    0    0  0.22792847981E+01  0.30992987040E+02 -0.36020560801E+02  0.92663350118E+02  0.79518898821E+02 0.  0.
          5    1    3    3  501    0 -0.19575390493E+02 -0.12387088012E+02 -0.30215839056E+02  0.38363039403E+02  0.47000000000E+01 0. -1.
        -11    1    4    4    0    0 -0.21541128279E+02  0.11515750085E+02  0.32039344744E+02  0.40288364563E+02  0.00000000000E+00 0.  1.
         12    1    4    4    0    0  0.69876940068E+02  0.22887457496E+02  0.10167332867E+03  0.12547544870E+03  0.00000000000E+00 0. -1.
         -5    1    5    5    0  503 -0.31039706094E+02 -0.53009106610E+02  0.71083137439E+02  0.94065568441E+02  0.47000000000E+01 0.  1.
         11    1    6    6    0    0  0.17019789790E+01  0.19673131570E+02  0.24286054241E+02  0.31300818980E+02  0.00000000000E+00 0. -1.
        -12    1    6    6    0    0  0.57730581907E+00  0.11319855470E+02 -0.60306615042E+02  0.61362531138E+02  0.00000000000E+00 0.  1.
</event>
<event>
12    1  0.9017558E-003  0.2019629E+03  0.7818608E-02  0.1148512E+00
         21   -1    0    0  503  502  0.00000000000E+00  0.00000000000E+00  0.23214606736E+03  0.23214606736E+03  0.00000000000E+00 0. -1.
         21   -1    0    0  501  503 -0.00000000000E+00 -0.00000000000E+00 -0.26140164646E+03  0.26140164646E+03  0.00000000000E+00 0. -1.
          6    2    1    2  501    0  0.10384229948E+03 -0.28526088762E+02 -0.15739257278E+03  0.25604967478E+03  0.17085682044E+03 0.  0.
         24    2    3    3    0    0  0.95779401215E+02  0.43232069553E+02 -0.13375529233E+03  0.17992441853E+03  0.58648210720E+02 0.  0.
         -6    2    1    2    0  502 -0.10384229948E+03  0.28526088762E+02  0.12813699368E+03  0.23749803904E+03  0.16849115258E+03 0.  0.
        -24    2    5    5    0    0 -0.85978185542E+02  0.79337959331E+02  0.11103775800E+03  0.18079313080E+03  0.81670143041E+02 0.  0.
          5    1    3    3  501    0  0.80628982655E+01 -0.71758158315E+02 -0.23637280444E+02  0.76125256255E+02  0.47000000000E+01 0. -1.
        -13    1    4    4    0    0  0.12985029847E+01  0.58919639058E+01  0.50812945367E+01  0.78880227457E+01  0.00000000000E+00 0.  1.
         14    1    4    4    0    0  0.94480898231E+02  0.37340105647E+02 -0.13883658687E+03  0.17203639578E+03  0.00000000000E+00 0. -1.
         -5    1    5    5    0  502 -0.17864113939E+02 -0.50811870569E+02  0.17099235685E+02  0.56704908240E+02  0.47000000000E+01 0.  1.
         13    1    6    6    0    0 -0.29012948684E+02  0.80633758766E+02  0.66152639615E+02  0.10825768320E+03  0.00000000000E+00 0. -1.
        -14    1    6    6    0    0 -0.56965236858E+02 -0.12957994351E+01  0.44885118382E+02  0.72535447601E+02  0.00000000000E+00 0.  1.
</event>
<event>
12    1  0.9017558E-003  0.2306970E+03  0.7818608E-02  0.1126397E+00
         21   -1    0    0  503  502  0.00000000000E+00  0.00000000000E+00  0.36765909860E+03  0.36765909860E+03  0.00000000000E+00 0.  1.
         21   -1    0    0  501  503 -0.00000000000E+00 -0.00000000000E+00 -0.23662010632E+03  0.23662010632E+03  0.00000000000E+00 0.  1.
          6    2    1    2  501    0  0.14716907556E+03  0.43297697129E+02 -0.12375718873E+03  0.26056099016E+03  0.17041936642E+03 0.  0.
         24    2    3    3    0    0  0.11114330446E+03 -0.31210302027E+02 -0.10568784405E+03  0.17572061452E+03  0.79880516452E+02 0.  0.
         -6    2    1    2    0  502 -0.14716907556E+03 -0.43297697129E+02  0.25479618101E+03  0.34371821477E+03  0.17230116055E+03 0.  0.
        -24    2    5    5    0    0 -0.91133330658E+02  0.41847692184E+02  0.13946493888E+03  0.18972754155E+03  0.80557790098E+02 0.  0.
          5    1    3    3  501    0  0.36025771105E+02  0.74507999156E+02 -0.18069344689E+02  0.84840375644E+02  0.47000000000E+01 0. -1.
        -11    1    4    4    0    0  0.96521403424E+02  0.87069811961E+01 -0.63725463660E+02  0.11598761813E+03  0.00000000000E+00 0.  1.
         12    1    4    4    0    0  0.14621901032E+02 -0.39917283223E+02 -0.41962380386E+02  0.59732996387E+02  0.00000000000E+00 0. -1.
         -5    1    5    5    0  502 -0.56035744903E+02 -0.85145389313E+02  0.11533124213E+03  0.15399067322E+03  0.47000000000E+01 0.  1.
         13    1    6    6    0    0 -0.53726721842E+02  0.26599333141E+02  0.13666430010E+03  0.14923543844E+03  0.00000000000E+00 0. -1.
        -14    1    6    6    0    0 -0.37406608816E+02  0.15248359043E+02  0.28006387823E+01  0.40492103109E+02  0.00000000000E+00 0.  1.
</event>
<event>
12    1  0.9017558E-003  0.2160406E+03  0.7818608E-02  0.1137052E+00
         21   -1    0    0  501  502  0.00000000000E+00  0.00000000000E+00  0.10655414603E+04  0.10655414603E+04  0.00000000000E+00 0. -1.
         21   -1    0    0  502  503 -0.00000000000E+00 -0.00000000000E+00 -0.53990639428E+02  0.53990639428E+02  0.00000000000E+00 0. -1.
          6    2    1    2  501    0 -0.25916328428E+02 -0.12632436015E+03  0.75213489106E+03  0.78254739505E+03  0.17333214098E+03 0.  0.
         24    2    3    3    0    0 -0.36226856859E+02 -0.15598138863E+03  0.55405399904E+03  0.58193838200E+03  0.77677975190E+02 0.  0.
         -6    2    1    2    0  503  0.25916328428E+02  0.12632436015E+03  0.25941592981E+03  0.33698470467E+03  0.17214112379E+03 0.  0.
        -24    2    5    5    0    0  0.55505962857E+01  0.50087442590E+02  0.23952186155E+03  0.25546970853E+03  0.73174372493E+02 0.  0.
          5    1    3    3  501    0  0.10310528431E+02  0.29657028475E+02  0.19808089202E+03  0.20060901305E+03  0.47000000000E+01 0. -1.
        -11    1    4    4    0    0 -0.33638870361E+01 -0.66375031094E+02  0.11675732349E+03  0.13434743420E+03  0.00000000000E+00 0.  1.
         12    1    4    4    0    0 -0.32862969823E+02 -0.89606357536E+02  0.43729667556E+03  0.44759094780E+03  0.00000000000E+00 0. -1.
         -5    1    5    5    0  503  0.20365732142E+02  0.76236917564E+02  0.19894068257E+02  0.81514996149E+02  0.47000000000E+01 0.  1.
         13    1    6    6    0    0 -0.88217235563E+01  0.26390249448E+02  0.20153221820E+02  0.34357247010E+02  0.00000000000E+00 0. -1.
        -14    1    6    6    0    0  0.14372319842E+02  0.23697193142E+02  0.21936863973E+03  0.22111246151E+03  0.00000000000E+00 0.  1.
</event>
<event>
12    1  0.9017558E-003  0.2014745E+03  0.7818608E-02  0.1148769E+00
         21   -1    0    0  503  502  0.00000000000E+00  0.00000000000E+00  0.68465041385E+03  0.68465041385E+03  0.00000000000E+00 0. -1.
         21   -1    0    0  501  503 -0.00000000000E+00 -0.00000000000E+00 -0.14804723621E+03  0.14804723621E+03  0.00000000000E+00 0.  1.
          6    2    1    2  501    0 -0.99308393831E+02  0.29185472726E+02 -0.55095263055E+02  0.20763844910E+03  0.17136011388E+03 0.  0.
         24    2    3    3    0    0 -0.12975974977E+03  0.52849270851E+02 -0.46068979745E+02  0.16775331138E+03  0.79926118989E+02 0.  0.
         -6    2    1    2    0  502  0.99308393831E+02 -0.29185472726E+02  0.59169844069E+03  0.62505920096E+03  0.17285257040E+03 0.  0.
        -24    2    5    5    0    0  0.25645877571E+02 -0.74650452398E+02  0.39601957242E+03  0.41103691202E+03  0.76742688413E+02 0.  0.
          5    1    3    3  501    0  0.30451355934E+02 -0.23663798125E+02 -0.90262833101E+01  0.39885137712E+02  0.47000000000E+01 0. -1.
        -13    1    4    4    0    0 -0.73381503053E+02 -0.65182826135E+01 -0.44092896290E+02  0.85857536080E+02  0.00000000000E+00 0.  1.
         14    1    4    4    0    0 -0.56378246713E+02  0.59367553464E+02 -0.19760834552E+01  0.81895775303E+02  0.00000000000E+00 0. -1.
         -5    1    5    5    0  502  0.73662516260E+02  0.45464979672E+02  0.19567886827E+03  0.21402228895E+03  0.47000000000E+01 0.  1.
         11    1    6    6    0    0  0.44518678255E+02 -0.35146451602E+02  0.30256513821E+03  0.30783574944E+03  0.00000000000E+00 0. -1.
        -12    1    6    6    0    0 -0.18872800683E+02 -0.39504000796E+02  0.93454434211E+02  0.10320116258E+03  0.00000000000E+00 0.  1.
</event>
<event>
12    1  0.9017558E-003  0.2031434E+03  0.7818608E-02  0.1147235E+00
         21   -1    0    0  501  502  0.00000000000E+00  0.00000000000E+00  0.39507370307E+03  0.39507370307E+03  0.00000000000E+00 0. -1.
         21   -1    0    0  502  503 -0.00000000000E+00 -0.00000000000E+00 -0.10516353431E+03  0.10516353431E+03  0.00000000000E+00 0. -1.
          6    2    1    2  501    0  0.42924091343E+02 -0.98006816439E+02  0.16926284012E+03  0.26396827846E+03  0.17199281759E+03 0.  0.
         24    2    3    3    0    0  0.88762405727E+02 -0.37678516456E+02  0.12759744936E+03  0.17737295739E+03  0.76691731357E+02 0.  0.
         -6    2    1    2    0  503 -0.42924091343E+02  0.98006816439E+02  0.12064732865E+03  0.23626895891E+03  0.17268303145E+03 0.  0.
        -24    2    5    5    0    0 -0.79199858246E+02  0.11691866765E+03  0.95752026545E+02  0.18814977929E+03  0.79305084764E+02 0.  0.
          5    1    3    3  501    0 -0.45838314384E+02 -0.60328299983E+02  0.41665390760E+02  0.86595321072E+02  0.47000000000E+01 0. -1.
        -11    1    4    4    0    0  0.56440457046E+02 -0.42826454568E+01  0.19770029300E+02  0.59955986375E+02  0.00000000000E+00 0.  1.
         12    1    4    4    0    0  0.32321948680E+02 -0.33395870999E+02  0.10782742006E+03  0.11741697102E+03  0.00000000000E+00 0. -1.
         -5    1    5    5    0  503  0.36275766903E+02 -0.18911851210E+02  0.24895302104E+02  0.48119179622E+02  0.47000000000E+01 0.  1.
         13    1    6    6    0    0 -0.68043863753E+02  0.46260056759E+02  0.80292311576E+02  0.11496440990E+03  0.00000000000E+00 0. -1.
        -14    1    6    6    0    0 -0.11155994493E+02  0.70658610890E+02  0.15459714969E+02  0.73185369391E+02  0.00000000000E+00 0.  1.
</event>
<event>
12    1  0.9017558E-003  0.2610374E+03  0.7818608E-02  0.1106843E+00
         21   -1    0    0  503  502  0.00000000000E+00  0.00000000000E+00  0.14001278939E+03  0.14001278939E+03  0.00000000000E+00 0.  1.
         21   -1    0    0  501  503 -0.00000000000E+00 -0.00000000000E+00 -0.50791486705E+03  0.50791486705E+03  0.00000000000E+00 0. -1.
          6    2    1    2  501    0 -0.11183001336E+03 -0.15885714509E+03 -0.25686288696E+03  0.36622272546E+03  0.17435308289E+03 0.  0.
         24    2    3    3    0    0 -0.14494954560E+02 -0.11370631184E+03 -0.85666561270E+02  0.16412625507E+03  0.80370634088E+02 0.  0.
         -6    2    1    2    0  502  0.11183001336E+03  0.15885714509E+03 -0.11103919070E+03  0.28170493099E+03  0.17113276085E+03 0.  0.
        -24    2    5    5    0    0  0.11692566657E+01  0.67953701413E+02 -0.61848988401E+01  0.10415000522E+03  0.78675904290E+02 0.  0.
          5    1    3    3  501    0 -0.97335058799E+02 -0.45150833251E+02 -0.17119632569E+03  0.20209647039E+03  0.47000000000E+01 0. -1.
        -13    1    4    4    0    0  0.15469526844E+02 -0.10286149566E+03 -0.81176770298E+02  0.13194491876E+03  0.00000000000E+00 0.  1.
         14    1    4    4    0    0 -0.29964481404E+02 -0.10844816176E+02 -0.44897909722E+01  0.32181336310E+02  0.00000000000E+00 0. -1.
         -5    1    5    5    0  502  0.11066075669E+03  0.90903443674E+02 -0.10485429186E+03  0.17755492577E+03  0.47000000000E+01 0.  1.
         11    1    6    6    0    0 -0.19948392849E+02  0.82213623497E+01 -0.29580130117E+02  0.36613020551E+02  0.00000000000E+00 0. -1.
        -12    1    6    6    0    0  0.21117649515E+02  0.59732339063E+02  0.23395231277E+02  0.67536984664E+02  0.00000000000E+00 0.  1.
</event>
<event>
12    1  0.9017558E-003  0.1804280E+03  0.7818608E-02  0.1167666E+00
         21   -1    0    0  501  502  0.00000000000E+00  0.00000000000E+00  0.18744788958E+04  0.18744788958E+04  0.00000000000E+00 0.  1.
         21   -1    0    0  502  503 -0.00000000000E+00 -0.00000000000E+00 -0.17822728898E+02  0.17822728898E+02  0.00000000000E+00 0.  1.
          6    2    1    2  501    0 -0.40995185142E+02  0.28613180755E+02  0.75694819743E+03  0.77789061830E+03  0.17217410120E+03 0.  0.
         24    2    3    3    0    0  0.40245400905E+01  0.22057780362E+02  0.69847537546E+03  0.70365511571E+03  0.82218788317E+02 0.  0.
         -6    2    1    2    0  503  0.40995185142E+02 -0.28613180755E+02  0.10997079695E+04  0.11144110064E+04  0.17336364598E+03 0.  0.
        -24    2    5    5    0    0 -0.10223919519E+01  0.40315480430E+02  0.35167546946E+03  0.36202058369E+03  0.75874132252E+02 0.  0.
          5    1    3    3  501    0 -0.45019725233E+02  0.65554003930E+01  0.58472821973E+02  0.74235502583E+02  0.47000000000E+01 0. -1.
        -13    1    4    4    0    0  0.40958711622E+02 -0.88100579795E-01  0.39948987079E+03  0.40158408918E+03  0.00000000000E+00 0.  1.
         14    1    4    4    0    0 -0.36934171532E+02  0.22145880941E+02  0.29898550467E+03  0.30207102653E+03  0.00000000000E+00 0. -1.
         -5    1    5    5    0  503  0.42017577094E+02 -0.68928661185E+02  0.74803250001E+03  0.75239042271E+03  0.47000000000E+01 0.  1.
         13    1    6    6    0    0 -0.33612971721E+02  0.17907902495E+02  0.95571640043E+02  0.10288082047E+03  0.00000000000E+00 0. -1.
        -14    1    6    6    0    0  0.32590579769E+02  0.22407577936E+02  0.25610382942E+03  0.25913976322E+03  0.00000000000E+00 0.  1.
</event>
<event>
12    1  0.9017558E-003  0.1843871E+03  0.7818608E-02  0.1163631E+00
         21   -1    0    0  503  502  0.00000000000E+00  0.00000000000E+00  0.24786200322E+03  0.24786200322E+03  0.00000000000E+00 0. -1.
         21   -1    0    0  501  503 -0.00000000000E+00 -0.00000000000E+00 -0.17140796265E+03  0.17140796265E+03  0.00000000000E+00 0.  1.
          6    2    1    2  501    0 -0.21402210376E+01 -0.67072886384E+02 -0.55496867180E+02  0.19255778477E+03  0.17174179915E+03 0.  0.
         24    2    3    3    0    0 -0.26438467133E+02  0.22675198503E+02 -0.43719862020E+02  0.98717967240E+02  0.81367398566E+02 0.  0.
         -6    2    1    2    0  502  0.21402210376E+01  0.67072886384E+02  0.13195090775E+03  0.22671218110E+03  0.17170910974E+03 0.  0.
        -24    2    5    5    0    0  0.29948961968E+02 -0.25953484279E+02  0.54762742074E+02  0.10258589609E+03  0.77164658279E+02 0.  0.
          5    1    3    3  501    0  0.24298246095E+02 -0.89748084888E+02 -0.11777005160E+02  0.93839817534E+02  0.47000000000E+01 0. -1.
        -13    1    4    4    0    0 -0.50367835840E+02  0.31044998426E+02 -0.43378310703E+02  0.73364764390E+02  0.00000000000E+00 0.  1.
         14    1    4    4    0    0  0.23929368707E+02 -0.83697999222E+01 -0.34155131697E+00  0.25353202850E+02  0.00000000000E+00 0. -1.
         -5    1    5    5    0  502 -0.27808740931E+02  0.93026370663E+02  0.77188165672E+02  0.12412628501E+03  0.47000000000E+01 0.  1.
         13    1    6    6    0    0  0.29952744838E+02 -0.28520689495E+02  0.73143251623E+02  0.84026971328E+02  0.00000000000E+00 0. -1.
        -14    1    6    6    0    0 -0.37828695903E-02  0.25672052167E+01 -0.18380509549E+02  0.18558924759E+02  0.00000000000E+00 0.  1.
</event>
<event>
12    1  0.9017558E-003  0.1827017E+03  0.7818608E-02  0.1165365E+00
         21   -1    0    0  503  502  0.00000000000E+00  0.00000000000E+00  0.20102113483E+03  0.20102113483E+03  0.00000000000E+00 0. -1.
         21   -1    0    0  501  503 -0.00000000000E+00 -0.00000000000E+00 -0.17016456689E+03  0.17016456689E+03  0.00000000000E+00 0. -1.
          6    2    1    2  501    0  0.30523371140E+02 -0.52308824326E+02 -0.15363019054E+02  0.18334651786E+03  0.17237178994E+03 0.  0.
         24    2    3    3    0    0 -0.27158584648E+02  0.13435651100E+02  0.23694559308E+02  0.87444857288E+02  0.78530665888E+02 0.  0.
         -6    2    1    2    0  502 -0.30523371140E+02  0.52308824326E+02  0.46219586991E+02  0.18783918387E+03  0.17169571773E+03 0.  0.
        -24    2    5    5    0    0  0.23923459994E+02  0.35644653695E+02  0.80037594473E+02  0.12144716903E+03  0.80625833714E+02 0.  0.
          5    1    3    3  501    0  0.57681955788E+02 -0.65744475426E+02 -0.39057578361E+02  0.95901660569E+02  0.47000000000E+01 0. -1.
        -11    1    4    4    0    0 -0.59259693448E+01 -0.16833807777E+02  0.42404301918E+02  0.46006727965E+02  0.00000000000E+00 0.  1.
         12    1    4    4    0    0 -0.21232615303E+02  0.30269458876E+02 -0.18709742610E+02  0.41438129323E+02  0.00000000000E+00 0. -1.
         -5    1    5    5    0  502 -0.54446831134E+02  0.16664170631E+02 -0.33818007482E+02  0.66392014832E+02  0.47000000000E+01 0.  1.
         11    1    6    6    0    0  0.33956400028E+02  0.55671116394E+02  0.42829320941E+02  0.78017056056E+02  0.00000000000E+00 0. -1.
        -12    1    6    6    0    0 -0.10032940034E+02 -0.20026462699E+02  0.37208273532E+02  0.43430112977E+02  0.00000000000E+00 0.  1.
</event>
<event>
12    1  0.9017558E-003  0.2153018E+03  0.7818608E-02  0.1137447E+00
         21   -1    0    0  501  502  0.00000000000E+00  0.00000000000E+00  0.27968619034E+03  0.27968619034E+03  0.00000000000E+00 0.  1.
         21   -1    0    0  502  503 -0.00000000000E+00 -0.00000000000E+00 -0.16596147733E+03  0.16596147733E+03  0.00000000000E+00 0. -1.
          6    2    1    2  501    0  0.16466878853E+01 -0.13000677485E+03  0.47822964433E+02  0.22048567859E+03  0.17152966347E+03 0.  0.
         24    2    3    3    0    0 -0.41409469634E+02 -0.29648581990E+02  0.58300835914E+02  0.11067914252E+03  0.79101849098E+02 0.  0.
         -6    2    1    2    0  503 -0.16466878853E+01  0.13000677485E+03  0.65901748582E+02  0.22516198908E+03  0.17161121109E+03 0.  0.
        -24    2    5    5    0    0 -0.64655154870E+01 -0.24450912324E+01  0.36443494763E+02  0.89306931586E+02  0.81239266104E+02 0.  0.
          5    1    3    3  501    0  0.43056157520E+02 -0.10035819286E+03 -0.10477871481E+02  0.10980653607E+03  0.47000000000E+01 0. -1.
        -13    1    4    4    0    0 -0.62549172855E+02 -0.14482050677E+02  0.26162673064E+02  0.69329750313E+02  0.00000000000E+00 0.  1.
         14    1    4    4    0    0  0.21139703220E+02 -0.15166531312E+02  0.32138162850E+02  0.41349392204E+02  0.00000000000E+00 0. -1.
         -5    1    5    5    0  503  0.48188276017E+01  0.13245186608E+03  0.29458253819E+02  0.13585505749E+03  0.47000000000E+01 0.  1.
         13    1    6    6    0    0 -0.34731770176E+01 -0.27718197491E+02 -0.15149544882E+02  0.31778454035E+02  0.00000000000E+00 0. -1.
        -14    1    6    6    0    0 -0.29923384694E+01  0.25273106258E+02  0.51593039646E+02  0.57528477551E+02  0.00000000000E+00 0.  1.
</event>
<event>
12    1  0.9017558E-003  0.1899824E+03  0.7818608E-02  0.1158542E+00
         21   -1    0    0  501  502  0.00000000000E+00  0.00000000000E+00  0.22955318659E+02  0.22955318659E+02  0.00000000000E+00 0.  1.
         21   -1    0    0  502  503 -0.00000000000E+00 -0.00000000000E+00 -0.16948908872E+04  0.16948908872E+04  0.00000000000E+00 0. -1.
          6    2    1    2  501    0 -0.52550271131E+02 -0.60444517950E+02 -0.10685751874E+04  0.10852823412E+04  0.17195859429E+03 0.  0.
         24    2    3    3    0    0 -0.98224782723E+02 -0.50653515667E+02 -0.65811679862E+03  0.67214773397E+03  0.80317924913E+02 0.  0.
         -6    2    1    2    0  503  0.52550271131E+02  0.60444517950E+02 -0.60336038106E+03  0.63256386462E+03  0.17227368531E+03 0.  0.
        -24    2    5    5    0    0  0.11755026951E+00 -0.26247829862E+02 -0.34419250599E+03  0.35425678449E+03  0.79626790626E+02 0.  0.
          5    1    3    3  501    0  0.45674511592E+02 -0.97910022828E+01 -0.41045838881E+03  0.41313460722E+03  0.47000000000E+01 0. -1.
        -11    1    4    4    0    0 -0.26489246192E+02  0.16179782667E+02 -0.27249804943E+03  0.27426019119E+03  0.00000000000E+00 0.  1.
         12    1    4    4    0    0 -0.71735536532E+02 -0.66833298334E+02 -0.38561874920E+03  0.39788754278E+03  0.00000000000E+00 0. -1.
         -5    1    5    5    0  503  0.52432720862E+02  0.86692347811E+02 -0.25916787507E+03  0.27830708014E+03  0.47000000000E+01 0.  1.
         13    1    6    6    0    0 -0.39663548484E+02 -0.14656029290E+02 -0.16431725765E+03  0.16967073240E+03  0.00000000000E+00 0. -1.
        -14    1    6    6    0    0  0.39781098753E+02 -0.11591800572E+02 -0.17987524834E+03  0.18458605208E+03  0.00000000000E+00 0.  1.
</event>
<event>
12    1  0.9017558E-003  0.1835144E+03  0.7818608E-02  0.1164796E+00
         21   -1    0    0  501  502  0.00000000000E+00  0.00000000000E+00  0.19944234705E+03  0.19944234705E+03  0.00000000000E+00 0. -1.
         21   -1    0    0  502  503 -0.00000000000E+00 -0.00000000000E+00 -0.16916703522E+03  0.16916703522E+03  0.00000000000E+00 0. -1.
          6    2    1    2  501    0 -0.28755878945E+00 -0.59111899997E+02  0.33504823963E+02  0.18654786616E+03  0.17373322574E+03 0.  0.
         24    2    3    3    0    0  0.42211556783E+02 -0.13126936932E+02  0.69973997838E+02  0.11393325127E+03  0.78296190018E+02 0.  0.
         -6    2    1    2    0  503  0.28755878945E+00  0.59111899997E+02 -0.32295121367E+01  0.18206151611E+03  0.17216755353E+03 0.  0.
        -24    2    5    5    0    0 -0.26289909952E+02  0.99429409505E+02  0.16252954938E+02  0.12977844102E+03  0.77465594745E+02 0.  0.
          5    1    3    3  501    0 -0.42499115572E+02 -0.45984963065E+02 -0.36469173876E+02  0.72614614891E+02  0.47000000000E+01 0. -1.
        -11    1    4    4    0    0  0.19916955979E+02 -0.24493805051E+02  0.80738617161E+02  0.86691152504E+02  0.00000000000E+00 0.  1.
         12    1    4    4    0    0  0.22294600804E+02  0.11366868119E+02 -0.10764619323E+02  0.27242098763E+02  0.00000000000E+00 0. -1.
         -5    1    5    5    0  503  0.26577468741E+02 -0.40317509508E+02 -0.19482467075E+02  0.52283075091E+02  0.47000000000E+01 0.  1.
         11    1    6    6    0    0 -0.49392593801E+02  0.47954707080E+02  0.23830656562E+02  0.72850411431E+02  0.00000000000E+00 0. -1.
        -12    1    6    6    0    0  0.23102683850E+02  0.51474702425E+02 -0.75777016233E+01  0.56928029587E+02  0.00000000000E+00 0.  1.
</event>
<event>
12    1  0.9017558E-003  0.2007992E+03  0.7818608E-02  0.1149219E+00
         21   -1    0    0  501  502  0.00000000000E+00  0.00000000000E+00  0.74535342035E+02  0.74535342035E+02  0.00000000000E+00 0.  1.
         21   -1    0    0  502  503 -0.00000000000E+00 -0.00000000000E+00 -0.53971502374E+03  0.53971502374E+03  0.00000000000E+00 0.  1.
          6    2    1    2  501    0  0.47004671458E+02  0.90513658324E+02 -0.22181701100E+03  0.29920409370E+03  0.17296861518E+03 0.  0.
         24    2    3    3    0    0  0.33224358509E+02  0.35578345732E+02 -0.31234474589E+02  0.10032830639E+03  0.81978655621E+02 0.  0.
         -6    2    1    2    0  503 -0.47004671458E+02 -0.90513658324E+02 -0.24336267071E+03  0.31504627208E+03  0.17212380013E+03 0.  0.
        -24    2    5    5    0    0  0.26578114718E+02 -0.56077872704E+02 -0.19585993274E+03  0.22081862291E+03  0.80923587299E+02 0.  0.
          5    1    3    3  501    0  0.13780312949E+02  0.54935312592E+02 -0.19058253641E+03  0.19887578731E+03  0.47000000000E+01 0. -1.
        -11    1    4    4    0    0  0.43304781376E+02 -0.65383048624E+01 -0.36091251339E+02  0.56750611836E+02  0.00000000000E+00 0.  1.
         12    1    4    4    0    0 -0.10080422868E+02  0.42116650595E+02  0.48567767500E+01  0.43577694557E+02  0.00000000000E+00 0. -1.
         -5    1    5    5    0  503 -0.73582786176E+02 -0.34435785620E+02 -0.47502737971E+02  0.94227649167E+02  0.47000000000E+01 0.  1.
         11    1    6    6    0    0 -0.71851755304E+01  0.18440304986E+02 -0.46135220703E+02  0.50200898246E+02  0.00000000000E+00 0. -1.
        -12    1    6    6    0    0  0.33763290249E+02 -0.74518177690E+02 -0.14972471204E+03  0.17061772466E+03  0.00000000000E+00 0.  1.
</event>
<event>
12    1  0.9017558E-003  0.2290741E+03  0.7818608E-02  0.1127371E+00
         21   -1    0    0  503  502  0.00000000000E+00  0.00000000000E+00  0.77034980574E+03  0.77034980574E+03  0.00000000000E+00 0.  1.
         21   -1    0    0  501  503 -0.00000000000E+00 -0.00000000000E+00 -0.83187638196E+02  0.83187638196E+02  0.00000000000E+00 0. -1.
          6    2    1    2  501    0  0.11513979600E+03 -0.98528908633E+02  0.16089263160E+03  0.27957354464E+03  0.17120107913E+03 0.  0.
         24    2    3    3    0    0  0.18300291420E+02 -0.14825160419E+02  0.11726234033E+03  0.14425946766E+03  0.80657618987E+02 0.  0.
         -6    2    1    2    0  502 -0.11513979600E+03  0.98528908633E+02  0.52626953594E+03  0.57396389930E+03  0.17178420992E+03 0.  0.
        -24    2    5    5    0    0 -0.21677334133E+02  0.21195248778E+02  0.10501779109E+03  0.13556813145E+03  0.80192496122E+02 0.  0.
          5    1    3    3  501    0  0.96839504584E+02 -0.83703748214E+02  0.43630291273E+02  0.13531407698E+03  0.47000000000E+01 0. -1.
        -11    1    4    4    0    0 -0.27261386787E+02 -0.17460041651E+02  0.76500734058E+02  0.83068637737E+02  0.00000000000E+00 0.  1.
         12    1    4    4    0    0  0.45561678207E+02  0.26348812313E+01  0.40761606273E+02  0.61190829918E+02  0.00000000000E+00 0. -1.
         -5    1    5    5    0  502 -0.93462461872E+02  0.77333659856E+02  0.42125174485E+03  0.43839576785E+03  0.47000000000E+01 0.  1.
         11    1    6    6    0    0  0.29637705176E+02 -0.13785249757E+01  0.35959955308E+02  0.46619870066E+02  0.00000000000E+00 0. -1.
        -12    1    6    6    0    0 -0.51315039310E+02  0.22573773754E+02  0.69057835780E+02  0.88948261385E+02  0.00000000000E+00 0.  1.
</event>
<event>
12    1  0.9017558E-003  0.2104289E+03  0.7818608E-02  0.1141938E+00
         21   -1    0    0  503  502  0.00000000000E+00  0.00000000000E+00  0.26559464496E+03  0.26559464496E+03  0.00000000000E+00 0.  1.
         21   -1    0    0  501  503 -0.00000000000E+00 -0.00000000000E+00 -0.20656723612E+03  0.20656723612E+03  0.00000000000E+00 0.  1.
          6    2    1    2  501    0 -0.10052827551E+03  0.56689139598E+02  0.13659920958E+03  0.24789042586E+03  0.17167040062E+03 0.  0.
         24    2    3    3    0    0  0.88252242603E+01 -0.45070701351E+01  0.47930831274E+02  0.94308736493E+02  0.80613739077E+02 0.  0.
         -6    2    1    2    0  502  0.10052827551E+03 -0.56689139598E+02 -0.77571800744E+02  0.22427145522E+03  0.17595655325E+03 0.  0.
        -24    2    5    5    0    0  0.53178709695E+02  0.32189021944E+02 -0.70825338012E+02  0.12323228588E+03  0.79409442006E+02 0.  0.
          5    1    3    3  501    0 -0.10935349977E+03  0.61196209733E+02  0.88668378307E+02  0.15358168937E+03  0.47000000000E+01 0. -1.
        -11    1    4    4    0    0 -0.19812486253E+02 -0.10438627934E+02  0.58946775470E+02  0.63057290641E+02  0.00000000000E+00 0.  1.
         12    1    4    4    0    0  0.28637710513E+02  0.59315577993E+01 -0.11015944196E+02  0.31251445853E+02  0.00000000000E+00 0. -1.
         -5    1    5    5    0  502  0.47349565815E+02 -0.88878161542E+02 -0.67464627323E+01  0.10103916934E+03  0.47000000000E+01 0.  1.
         11    1    6    6    0    0  0.21607806285E+02  0.38698901276E+02  0.11825259379E+01  0.44338477872E+02  0.00000000000E+00 0. -1.
        -12    1    6    6    0    0  0.31570903410E+02 -0.65098793321E+01 -0.72007863950E+02  0.78893808006E+02  0.00000000000E+00 0.  1.
</event>
<event>
12    1  0.9017558E-003  0.1796747E+03  0.7818608E-02  0.1169569E+00
         21   -1    0    0  501  502  0.00000000000E+00  0.00000000000E+00  0.53102752824E+03  0.53102752824E+03  0.00000000000E+00 0.  1.
         21   -1    0    0  502  503 -0.00000000000E+00 -0.00000000000E+00 -0.75910831101E+02  0.75910831101E+02  0.00000000000E+00 0.  1.
          6    2    1    2  501    0 -0.52400286631E+02 -0.80346259761E+01  0.80657628768E+02  0.19160406464E+03  0.16551773094E+03 0.  0.
         24    2    3    3    0    0 -0.42826634586E+01 -0.60808311903E+02  0.25404606905E+02  0.10118640038E+03  0.76663560876E+02 0.  0.
         -6    2    1    2    0  503  0.52400286631E+02  0.80346259761E+01  0.37445906837E+03  0.41533429470E+03  0.17167596575E+03 0.  0.
        -24    2    5    5    0    0  0.80513182753E+02  0.46501680296E+02  0.32151110909E+03  0.34395064399E+03  0.79296111932E+02 0.  0.
          5    1    3    3  501    0 -0.48117623173E+02  0.52773685927E+02  0.55253021863E+02  0.90417664265E+02  0.47000000000E+01 0. -1.
        -13    1    4    4    0    0 -0.36893702515E+02 -0.47267700799E+02  0.27173972199E+02  0.65831645803E+02  0.00000000000E+00 0.  1.
         14    1    4    4    0    0  0.32611039056E+02 -0.13540611104E+02 -0.17693652938E+01  0.35354754573E+02  0.00000000000E+00 0. -1.
         -5    1    5    5    0  503 -0.28112896122E+02 -0.38467054320E+02  0.52947959283E+02  0.71383650710E+02  0.47000000000E+01 0.  1.
         13    1    6    6    0    0 -0.86844742908E+01  0.24303732789E+02  0.11574082536E+03  0.11858343129E+03  0.00000000000E+00 0. -1.
        -14    1    6    6    0    0  0.89197657044E+02  0.22197947507E+02  0.20577028373E+03  0.22536721270E+03  0.00000000000E+00 0.  1.
</event>
<event>
12    1  0.9017558E-003  0.2447417E+03  0.7818608E-02  0.1116889E+00
         21   -1    0    0  503  502  0.00000000000E+00  0.00000000000E+00  0.24272992518E+04  0.24272992518E+04  0.00000000000E+00 0. -1.
         21   -1    0    0  501  503 -0.00000000000E+00 -0.00000000000E+00 -0.84327037179E+02  0.84327037179E+02  0.00000000000E+00 0.  1.
          6    2    1    2  501    0  0.15849411451E+03 -0.68460208222E+02  0.11503046419E+03  0.27042650750E+03  0.17346845195E+03 0.  0.
         24    2    3    3    0    0  0.16802032385E+03 -0.47126928191E+02  0.13911889176E+03  0.23654140983E+03  0.78396402540E+02 0.  0.
         -6    2    1    2    0  502 -0.15849411451E+03  0.68460208222E+02  0.22279417504E+04  0.22411997814E+04  0.17159496707E+03 0.  0.
        -24    2    5    5    0    0 -0.46025045051E+02 -0.29439791053E+02  0.82840241026E+03  0.83373178677E+03  0.76636367805E+02 0.  0.
          5    1    3    3  501    0 -0.95262093443E+01 -0.21333280031E+02 -0.24088427571E+02  0.33885097671E+02  0.47000000000E+01 0. -1.
        -11    1    4    4    0    0  0.10052340023E+03  0.94257816838E+01  0.56016713035E+02  0.11546285763E+03  0.00000000000E+00 0.  1.
         12    1    4    4    0    0  0.67496923627E+02 -0.56552709875E+02  0.83102178721E+02  0.12107855219E+03  0.00000000000E+00 0. -1.
         -5    1    5    5    0  502 -0.11246906946E+03  0.97899999275E+02  0.13995393401E+04  0.14074679947E+04  0.47000000000E+01 0.  1.
         13    1    6    6    0    0 -0.14740762344E+02  0.10339877397E+02  0.57728151685E+03  0.57756225019E+03  0.00000000000E+00 0. -1.
        -14    1    6    6    0    0 -0.31284282706E+02 -0.39779668450E+02  0.25112089341E+03  0.25616953658E+03  0.00000000000E+00 0.  1.
</event>
<event>
12    1  0.9017558E-003  0.1767111E+03  0.7818608E-02  0.1171040E+00
         21   -1    0    0  501  502  0.00000000000E+00  0.00000000000E+00  0.18802594956E+03  0.18802594956E+03  0.00000000000E+00 0. -1.
         21   -1    0    0  502  503 -0.00000000000E+00 -0.00000000000E+00 -0.16655326543E+03  0.16655326543E+03  0.00000000000E+00 0. -1.
          6    2    1    2  501    0  0.33894592767E+02  0.19685917906E+02  0.20765156251E+02  0.17792693118E+03  0.17230908955E+03 0.  0.
         24    2    3    3    0    0  0.56787688138E+02 -0.35767060690E+02  0.45193807492E+02  0.11298098710E+03  0.78854924105E+02 0.  0.
         -6    2    1    2    0  503 -0.33894592767E+02 -0.19685917906E+02  0.70752788258E+00  0.17665228382E+03  0.17224735121E+03 0.  0.
        -24    2    5    5    0    0 -0.47539005717E+02  0.25999498170E+02 -0.46292059856E+02  0.10953761706E+03  0.83184155792E+02 0.  0.
          5    1    3    3  501    0 -0.22893095371E+02  0.55452978596E+02 -0.24428651241E+02  0.64945944079E+02  0.47000000000E+01 0. -1.
        -11    1    4    4    0    0  0.39646820978E+02  0.17411680467E+02  0.38453190165E+01  0.43472100348E+02  0.00000000000E+00 0.  1.
         12    1    4    4    0    0  0.17140867160E+02 -0.53178741157E+02  0.41348488476E+02  0.69508886750E+02  0.00000000000E+00 0. -1.
         -5    1    5    5    0  503  0.13644412951E+02 -0.45685416076E+02  0.46999587739E+02  0.67114666761E+02  0.47000000000E+01 0.  1.
         13    1    6    6    0    0 -0.16974393481E+02  0.46873165336E+02 -0.52058921023E+02  0.72078810483E+02  0.00000000000E+00 0. -1.
        -14    1    6    6    0    0 -0.30564612236E+02 -0.20873667166E+02  0.57668611666E+01  0.37458806572E+02  0.00000000000E+00 0.  1.
</event>
<event>
12    1  0.9017558E-003  0.3814472E+03  0.7818608E-02  0.1050567E+00
         21   -1    0    0  503  502  0.00000000000E+00  0.00000000000E+00  0.13786480260E+04  0.13786480260E+04  0.00000000000E+00 0. -1.
         21   -1    0    0  501  503 -0.00000000000E+00 -0.00000000000E+00 -0.12328157457E+03  0.12328157457E+03  0.00000000000E+00 0.  1.
          6    2    1    2  501    0 -0.35803901690E+02 -0.33636924557E+03  0.34008853383E+03  0.51104025872E+03  0.17628314285E+03 0.  0.
         24    2    3    3    0    0 -0.74072174114E+02 -0.17015022819E+03  0.13337898347E+03  0.24300266691E+03  0.82598763703E+02 0.  0.
         -6    2    1    2    0  502  0.35803901690E+02  0.33636924557E+03  0.91527791756E+03  0.99088934181E+03  0.17234219624E+03 0.  0.
        -24    2    5    5    0    0  0.10364348289E+02  0.64780389616E+02  0.19903822194E+03  0.22445012756E+03  0.80359986164E+02 0.  0.
          5    1    3    3  501    0  0.38268272424E+02 -0.16621901738E+03  0.20670955035E+03  0.26803759181E+03  0.47000000000E+01 0. -1.
        -11    1    4    4    0    0 -0.54976596714E+02 -0.32111501986E+02  0.45486685348E+02  0.78247129596E+02  0.00000000000E+00 0.  1.
         12    1    4    4    0    0 -0.19095577400E+02 -0.13803872620E+03  0.87892298125E+02  0.16475553732E+03  0.00000000000E+00 0. -1.
         -5    1    5    5    0  502  0.25439553401E+02  0.27158885595E+03  0.71623969562E+03  0.76643921425E+03  0.47000000000E+01 0.  1.
         13    1    6    6    0    0 -0.50671418131E+01  0.54967918734E+02  0.19863082295E+03  0.20615855996E+03  0.00000000000E+00 0. -1.
        -14    1    6    6    0    0  0.15431490102E+02  0.98124708821E+01  0.40739898536E+00  0.18291567607E+02  0.00000000000E+00 0.  1.
</event>
<event>
12    1  0.9017558E-003  0.1863233E+03  0.7818608E-02  0.1161858E+00
         21   -1    0    0  503  502  0.00000000000E+00  0.00000000000E+00  0.19163834907E+04  0.19163834907E+04  0.00000000000E+00 0. -1.
         21   -1    0    0  501  503 -0.00000000000E+00 -0.00000000000E+00 -0.24540884620E+02  0.24540884620E+02  0.00000000000E+00 0.  1.
          6    2    1    2  501    0 -0.28109094249E+02  0.65777495882E+02  0.44841417042E+03  0.48551995806E+03  0.17186495076E+03 0.  0.
         24    2    3    3    0    0  0.39635991757E+02  0.42250800801E+02  0.15842877666E+03  0.18676166001E+03  0.80150473270E+02 0.  0.
         -6    2    1    2    0  502  0.28109094249E+02 -0.65777495882E+02  0.14434284356E+04  0.14554044172E+04  0.17204525207E+03 0.  0.
        -24    2    5    5    0    0  0.46221896739E+02  0.23104507114E+02  0.63481989430E+03  0.64171040399E+03  0.78266611024E+02 0.  0.
          5    1    3    3  501    0 -0.67745086007E+02  0.23526695081E+02  0.28998539376E+03  0.29875829805E+03  0.47000000000E+01 0. -1.
        -13    1    4    4    0    0  0.54192822061E+00  0.54138460668E+02  0.63727034850E+02  0.83620581082E+02  0.00000000000E+00 0.  1.
         14    1    4    4    0    0  0.39094063537E+02 -0.11887659867E+02  0.94701741811E+02  0.10314107893E+03  0.00000000000E+00 0. -1.
         -5    1    5    5    0  502 -0.18112802490E+02 -0.88882002996E+02  0.80860854133E+03  0.81369401324E+03  0.47000000000E+01 0.  1.
         11    1    6    6    0    0  0.20307550163E+02  0.40085208158E+02  0.16934164550E+03  0.17520220720E+03  0.00000000000E+00 0. -1.
        -12    1    6    6    0    0  0.25914346576E+02 -0.16980701044E+02  0.46547824880E+03  0.46650819679E+03  0.00000000000E+00 0.  1.
</event>
<event>
12    1  0.9017558E-003  0.2904479E+03  0.7818608E-02  0.1090133E+00
         21   -1    0    0  501  502  0.00000000000E+00  0.00000000000E+00  0.47127958738E+03  0.47127958738E+03  0.00000000000E+00 0. -1.
         21   -1    0    0  502  503 -0.00000000000E+00 -0.00000000000E+00 -0.18978682511E+03  0.18978682511E+03  0.00000000000E+00 0. -1.
          6    2    1    2  501    0  0.23329289349E+03 -0.20943834708E+02  0.21987947940E+03  0.36428966994E+03  0.17174329622E+03 0.  0.
         24    2    3    3    0    0  0.16461680394E+03 -0.31723745848E+02  0.22891333966E+03  0.29403077448E+03  0.77121275133E+02 0.  0.
         -6    2    1    2    0  503 -0.23329289349E+03  0.20943834708E+02  0.61613282870E+02  0.29677674255E+03  0.17151099069E+03 0.  0.
        -24    2    5    5    0    0 -0.13181555270E+03 -0.47996231849E+02  0.41767420706E+01  0.16123549536E+03  0.79375446983E+02 0.  0.
          5    1    3    3  501    0  0.68676089549E+02  0.10779911140E+02 -0.90338602584E+01  0.70258895459E+02  0.47000000000E+01 0. -1.
        -11    1    4    4    0    0  0.49630764122E+02  0.21158697857E+02  0.98449535532E+02  0.11226403827E+03  0.00000000000E+00 0.  1.
         12    1    4    4    0    0  0.11498603982E+03 -0.52882443705E+02  0.13046380412E+03  0.18176673621E+03  0.00000000000E+00 0. -1.
         -5    1    5    5    0  503 -0.10147734079E+03  0.68940066558E+02  0.57436540800E+02  0.13554124719E+03  0.47000000000E+01 0.  1.
         11    1    6    6    0    0 -0.82574504531E+02 -0.35495897387E+02  0.40700343274E+02  0.98666232686E+02  0.00000000000E+00 0. -1.
        -12    1    6    6    0    0 -0.49241048171E+02 -0.12500334463E+02 -0.36523601204E+02  0.62569262674E+02  0.00000000000E+00 0.  1.
</event>
<event>
12    1  0.9017558E-003  0.2164570E+03  0.7818608E-02  0.1136893E+00
         21   -1    0    0  503  502  0.00000000000E+00  0.00000000000E+00  0.17603911638E+03  0.17603911638E+03  0.00000000000E+00 0. -1.
         21   -1    0    0  501  503 -0.00000000000E+00 -0.00000000000E+00 -0.27471120018E+03  0.27471120018E+03  0.00000000000E+00 0.  1.
          6    2    1    2  501    0  0.13136677136E+03  0.67824037734E+01 -0.94101322797E+02  0.23602691721E+03  0.17190234750E+03 0.  0.
         24    2    3    3    0    0  0.51447652335E+02  0.16230122803E+02 -0.11650703437E+03  0.15235833952E+03  0.82029852770E+02 0.  0.
         -6    2    1    2    0  502 -0.13136677136E+03 -0.67824037734E+01 -0.45707610092E+01  0.21472339935E+03  0.16965263556E+03 0.  0.
        -24    2    5    5    0    0 -0.83002572565E+02 -0.62138194696E+02 -0.34397089741E+02  0.13525605260E+03  0.79752477642E+02 0.  0.
          5    1    3    3  501    0  0.79919119028E+02 -0.94477190292E+01  0.22405711577E+02  0.83668577688E+02  0.47000000000E+01 0. -1.
        -13    1    4    4    0    0 -0.76016281599E+01  0.19850254553E+02 -0.80147255499E+02  0.82918031335E+02  0.00000000000E+00 0.  1.
         14    1    4    4    0    0  0.59049280495E+02 -0.36201317501E+01 -0.36359778876E+02  0.69440308184E+02  0.00000000000E+00 0. -1.
         -5    1    5    5    0  502 -0.48364198799E+02  0.55355790922E+02  0.29826328732E+02  0.79467346751E+02  0.47000000000E+01 0.  1.
         13    1    6    6    0    0 -0.71290567545E+02 -0.88897709236E+01 -0.20721832887E+01  0.71872574683E+02  0.00000000000E+00 0. -1.
        -14    1    6    6    0    0 -0.11712005020E+02 -0.53248423772E+02 -0.32324906453E+02  0.63383477918E+02  0.00000000000E+00 0.  1.
</event>
<event>
12    1  0.9017558E-003  0.2231206E+03  0.7818608E-02  0.1131866E+00
         21   -1    0    0  503  502  0.00000000000E+00  0.00000000000E+00  0.25584161777E+03  0.25584161777E+03  0.00000000000E+00 0.  1.
         21   -1    0    0  501  503 -0.00000000000E+00 -0.00000000000E+00 -0.21514773304E+03  0.21514773304E+03  0.00000000000E+00 0.  1.
          6    2    1    2  501    0 -0.13765351927E+03 -0.20137393472E+02 -0.54901617841E+02  0.22825220875E+03  0.17242643990E+03 0.  0.
         24    2    3    3    0    0 -0.14848498269E+01 -0.22072557190E+02 -0.38504251788E+02  0.91005660491E+02  0.79435824888E+02 0.  0.
         -6    2    1    2    0  502  0.13765351927E+03  0.20137393472E+02  0.95595502567E+02  0.24273714206E+03  0.17443856811E+03 0.  0.
        -24    2    5    5    0    0  0.15197198093E+03 -0.16342242427E+02  0.79812307835E+02  0.20022853804E+03  0.10177873593E+03 0.  0.
          5    1    3    3  501    0 -0.13616866944E+03  0.19351637173E+01 -0.16397366053E+02  0.13724654826E+03  0.47000000000E+01 0. -1.
        -11    1    4    4    0    0 -0.38160486810E+02 -0.25064172529E+02 -0.20786870110E+02  0.50165022347E+02  0.00000000000E+00 0.  1.
         12    1    4    4    0    0  0.36675636983E+02  0.29916153393E+01 -0.17717381678E+02  0.40840638143E+02  0.00000000000E+00 0. -1.
         -5    1    5    5    0  502 -0.14318461668E+02  0.36479635899E+02  0.15783194732E+02  0.42508604021E+02  0.47000000000E+01 0.  1.
         11    1    6    6    0    0  0.10114729013E+02 -0.16675311640E+02 -0.19094808427E+02  0.27294421960E+02  0.00000000000E+00 0. -1.
        -12    1    6    6    0    0  0.14185725192E+03  0.33306921309E+00  0.98907116262E+02  0.17293411608E+03  0.00000000000E+00 0.  1.
</event>
<event>
12    1  0.9017558E-003  0.2266626E+03  0.7818608E-02  0.1129352E+00
         21   -1    0    0  503  502  0.00000000000E+00  0.00000000000E+00  0.22725625643E+03  0.22725625643E+03  0.00000000000E+00 0.  1.
         21   -1    0    0  501  503 -0.00000000000E+00 -0.00000000000E+00 -0.23542897566E+03  0.23542897566E+03  0.00000000000E+00 0. -1.
          6    2    1    2  501    0 -0.13519798341E+03  0.53234112550E+02  0.46452514723E+02  0.23137368281E+03  0.17396430529E+03 0.  0.
         24    2    3    3    0    0 -0.10028494285E+03  0.67094212469E+02  0.92853294331E+02  0.17148925145E+03  0.78918476832E+02 0.  0.
         -6    2    1    2    0  502  0.13519798341E+03 -0.53234112550E+02 -0.54625233948E+02  0.23131154928E+03  0.17148979909E+03 0.  0.
        -24    2    5    5    0    0 -0.29276308928E+01 -0.18422224660E+02 -0.13037128533E+02  0.82845346473E+02  0.79658240802E+02 0.  0.
          5    1    3    3  501    0 -0.34913040558E+02 -0.13860099919E+02 -0.46400779608E+02  0.59884431358E+02  0.47000000000E+01 0. -1.
        -13    1    4    4    0    0 -0.72996577678E+02  0.16078641824E+01  0.42383114143E+02  0.84424012842E+02  0.00000000000E+00 0.  1.
         14    1    4    4    0    0 -0.27288365173E+02  0.65486348287E+02  0.50470180188E+02  0.87065238609E+02  0.00000000000E+00 0. -1.
         -5    1    5    5    0  502  0.13812561430E+03 -0.34811887890E+02 -0.41588105414E+02  0.14846620281E+03  0.47000000000E+01 0.  1.
         13    1    6    6    0    0  0.69979050105E+01  0.26205239817E+02 -0.23565583176E+02  0.35930794297E+02  0.00000000000E+00 0. -1.
        -14    1    6    6    0    0 -0.99255359032E+01 -0.44627464478E+02  0.10528454642E+02  0.46914552176E+02  0.00000000000E+00 0.  1.
</event>
<event>
12    1  0.9017558E-003  0.1740423E+03  0.7818608E-02  0.1173764E+00
         21   -1    0    0  501  502  0.00000000000E+00  0.00000000000E+00  0.11936421839E+03  0.11936421839E+03  0.00000000000E+00 0.  1.
         21   -1    0    0  502  503 -0.00000000000E+00 -0.00000000000E+00 -0.25475819718E+03  0.25475819718E+03  0.00000000000E+00 0.  1.
          6    2    1    2  501    0  0.24084894913E+02  0.65277523450E+01 -0.53978417125E+02  0.18222075845E+03  0.17224413366E+03 0.  0.
         24    2    3    3    0    0  0.47744377868E+02 -0.78780035812E+01 -0.94761505582E+02  0.13269654980E+03  0.79290874831E+02 0.  0.
         -6    2    1    2    0  503 -0.24084894913E+02 -0.65277523450E+01 -0.81415561667E+02  0.19190165712E+03  0.17197400562E+03 0.  0.
        -24    2    5    5    0    0 -0.63376708684E+02 -0.47798983863E+02 -0.73738186707E+02  0.13421116165E+03  0.79208368698E+02 0.  0.
          5    1    3    3  501    0 -0.23659482955E+02  0.14405755926E+02  0.40783088457E+02  0.49524208642E+02  0.47000000000E+01 0. -1.
        -13    1    4    4    0    0  0.37103083289E+02 -0.40495676624E+00 -0.58834803081E-01  0.37105339792E+02  0.00000000000E+00 0.  1.
         14    1    4    4    0    0  0.10641294579E+02 -0.74730468149E+01 -0.94702670779E+02  0.95591210012E+02  0.00000000000E+00 0. -1.
         -5    1    5    5    0  503  0.39291813771E+02  0.41271231518E+02 -0.76773749597E+01  0.57690495462E+02  0.47000000000E+01 0.  1.
         13    1    6    6    0    0 -0.30072977022E+01  0.18853171483E+02 -0.26414934819E+02  0.32591942193E+02  0.00000000000E+00 0. -1.
        -14    1    6    6    0    0 -0.60369410981E+02 -0.66652155346E+02 -0.47323251888E+02  0.10161921946E+03  0.00000000000E+00 0.  1.
</event>
<event>
12    1  0.9017558E-003  0.1846988E+03  0.7818608E-02  0.1163378E+00
         21   -1    0    0  501  502  0.00000000000E+00  0.00000000000E+00  0.36231899877E+03  0.36231899877E+03  0.00000000000E+00 0. -1.
         21   -1    0    0  502  503 -0.00000000000E+00 -0.00000000000E+00 -0.15165152542E+03  0.15165152542E+03  0.00000000000E+00 0.  1.
          6    2    1    2  501    0  0.37427319728E+01  0.66499959532E+02  0.26367518727E+03  0.32181570029E+03  0.17205954758E+03 0.  0.
         24    2    3    3    0    0  0.17625624226E+02  0.10368469712E+03  0.14495424123E+03  0.19654721888E+03  0.80980850526E+02 0.  0.
         -6    2    1    2    0  503 -0.37427319728E+01 -0.66499959532E+02 -0.53007713916E+02  0.19215482390E+03  0.17227131494E+03 0.  0.
        -24    2    5    5    0    0  0.26576679260E+02  0.21794926204E+02 -0.69551696401E+01  0.87952230940E+02  0.80659046944E+02 0.  0.
          5    1    3    3  501    0 -0.13882892254E+02 -0.37184737589E+02  0.11872094605E+03  0.12526848142E+03  0.47000000000E+01 0. -1.
        -13    1    4    4    0    0  0.35713042978E+02  0.97484175447E+01  0.43018577211E+02  0.56754304406E+02  0.00000000000E+00 0.  1.
         14    1    4    4    0    0 -0.18087418751E+02  0.93936279576E+02  0.10193566401E+03  0.13979291447E+03  0.00000000000E+00 0. -1.
         -5    1    5    5    0  503 -0.30319411232E+02 -0.88294885736E+02 -0.46052544276E+02  0.10420259296E+03  0.47000000000E+01 0.  1.
         13    1    6    6    0    0 -0.22408931338E+02 -0.11329294976E+02  0.90493851552E+01  0.26690906692E+02  0.00000000000E+00 0. -1.
        -14    1    6    6    0    0  0.48985610598E+02  0.33124221180E+02 -0.16004554795E+02  0.61261324248E+02  0.00000000000E+00 0.  1.
</event>
<event>
12    1  0.9017558E-003  0.2447622E+03  0.7818608E-02  0.1116841E+00
         21   -1    0    0  503  502  0.00000000000E+00  0.00000000000E+00  0.19628017845E+04  0.19628017845E+04  0.00000000000E+00 0.  1.
         21   -1    0    0  501  503 -0.00000000000E+00 -0.00000000000E+00 -0.31326909957E+02  0.31326909957E+02  0.00000000000E+00 0.  1.
          6    2    1    2  501    0  0.71734389869E+02 -0.15807934709E+03  0.79060003563E+03  0.82729369025E+03  0.17097231040E+03 0.  0.
         24    2    3    3    0    0  0.79929341114E+02 -0.13411810342E+03  0.41149204667E+03  0.44731177526E+03  0.79910916517E+02 0.  0.
         -6    2    1    2    0  502 -0.71734389869E+02  0.15807934709E+03  0.11408748389E+04  0.11668350042E+04  0.17255035879E+03 0.  0.
        -24    2    5    5    0    0 -0.15707627578E+02  0.68838725103E+01  0.44590771520E+03  0.45339232069E+03  0.80229600029E+02 0.  0.
          5    1    3    3  501    0 -0.81949512458E+01 -0.23961243664E+02  0.37910798897E+03  0.37998191499E+03  0.47000000000E+01 0. -1.
        -11    1    4    4    0    0  0.62762763958E+02 -0.14290177807E+03  0.36355897367E+03  0.39564530839E+03  0.00000000000E+00 0.  1.
         12    1    4    4    0    0  0.17166577156E+02  0.87836746510E+01  0.47933072998E+02  0.51666466869E+02  0.00000000000E+00 0. -1.
         -5    1    5    5    0  502 -0.56026762290E+02  0.15119547458E+03  0.69496712375E+03  0.71344268355E+03  0.47000000000E+01 0.  1.
         13    1    6    6    0    0 -0.21831136607E+02 -0.13605040916E+02  0.44383275584E+02  0.51298838344E+02  0.00000000000E+00 0. -1.
        -14    1    6    6    0    0  0.61235090288E+01  0.20488913426E+02  0.40152443961E+03  0.40209348234E+03  0.00000000000E+00 0.  1.
</event>
<event>
12    1  0.9017558E-003  0.1771946E+03  0.7818608E-02  0.1170609E+00
         21   -1    0    0  503  502  0.00000000000E+00  0.00000000000E+00  0.28084842559E+03  0.28084842559E+03  0.00000000000E+00 0.  1.
         21   -1    0    0  501  503 -0.00000000000E+00 -0.00000000000E+00 -0.11170567319E+03  0.11170567319E+03  0.00000000000E+00 0.  1.
          6    2    1    2  501    0 -0.36653309422E+02  0.20691920879E+01  0.79699137979E+02  0.19429331236E+03  0.17334991198E+03 0.  0.
         24    2    3    3    0    0 -0.38467854358E+02 -0.30832437324E+02 -0.16054289444E+02  0.92919653774E+02  0.77109706508E+02 0.  0.
         -6    2    1    2    0  502  0.36653309422E+02 -0.20691920879E+01  0.89443614418E+02  0.19826078642E+03  0.17308793321E+03 0.  0.
        -24    2    5    5    0    0 -0.87922090287E+01  0.43664739117E+02  0.93678374324E+02  0.13347721750E+03  0.84003674877E+02 0.  0.
          5    1    3    3  501    0  0.18145449354E+01  0.32901629412E+02  0.95753427423E+02  0.10137365858E+03  0.47000000000E+01 0. -1.
        -13    1    4    4    0    0 -0.29070728314E+02  0.87573095089E+01 -0.36422049145E+02  0.47416910258E+02  0.00000000000E+00 0.  1.
         14    1    4    4    0    0 -0.93971260444E+01 -0.39589746833E+02  0.20367759701E+02  0.45502743516E+02  0.00000000000E+00 0. -1.
         -5    1    5    5    0  502  0.45445518451E+02 -0.45733931205E+02 -0.42347599055E+01  0.64783568921E+02  0.47000000000E+01 0.  1.
         13    1    6    6    0    0 -0.39086841611E+02  0.17174999677E+02  0.80518975751E+02  0.91137628107E+02  0.00000000000E+00 0. -1.
        -14    1    6    6    0    0  0.30294632582E+02  0.26489739440E+02  0.13159398573E+02  0.42339589390E+02  0.00000000000E+00 0.  1.
</event>
<event>
12    1  0.9017558E-003  0.2649902E+03  0.7818608E-02  0.1104184E+00
         21   -1    0    0  501  502  0.00000000000E+00  0.00000000000E+00  0.64921364063E+03  0.64921364063E+03  0.00000000000E+00 0.  1.
         21   -1    0    0  502  503 -0.00000000000E+00 -0.00000000000E+00 -0.11759561821E+03  0.11759561821E+03  0.00000000000E+00 0.  1.
          6    2    1    2  501    0  0.93362528179E+02  0.17880009710E+03  0.15717528832E+03  0.30809723077E+03  0.17185399605E+03 0.  0.
         24    2    3    3    0    0 -0.91140335381E+00  0.12859164955E+03  0.58710913456E+02  0.16275011009E+03  0.80647281335E+02 0.  0.
         -6    2    1    2    0  503 -0.93362528179E+02 -0.17880009710E+03  0.37444273410E+03  0.45871202808E+03  0.17182353503E+03 0.  0.
        -24    2    5    5    0    0  0.70748938793E+01 -0.39585993744E+02  0.96762713285E+02  0.13222079346E+03  0.80636285358E+02 0.  0.
          5    1    3    3  501    0  0.94273931533E+02  0.50208447550E+02  0.98464374863E+02  0.14534712068E+03  0.47000000000E+01 0. -1.
        -11    1    4    4    0    0  0.23033242692E+02  0.15216645267E+02 -0.83842978288E+01  0.28850875415E+02  0.00000000000E+00 0.  1.
         12    1    4    4    0    0 -0.23944646046E+02  0.11337500428E+03  0.67095211285E+02  0.13389923468E+03  0.00000000000E+00 0. -1.
         -5    1    5    5    0  503 -0.10043742206E+03 -0.13921410336E+03  0.27768002082E+03  0.32649123462E+03  0.47000000000E+01 0.  1.
         13    1    6    6    0    0 -0.26940018127E+02  0.10299273030E+02  0.22946045652E+02  0.36855944062E+02  0.00000000000E+00 0. -1.
        -14    1    6    6    0    0  0.34014912006E+02 -0.49885266774E+02  0.73816667634E+02  0.95364849397E+02  0.00000000000E+00 0.  1.
</event>
<event>
12    1  0.9017558E-003  0.2300129E+03  0.7818608E-02  0.1126703E+00
         21   -1    0    0  503  502  0.00000000000E+00  0.00000000000E+00  0.18505754614E+02  0.18505754614E+02  0.00000000000E+00 0.  1.
         21   -1    0    0  501  503 -0.00000000000E+00 -0.00000000000E+00 -0.28594371480E+04  0.28594371480E+04  0.00000000000E+00 0.  1.
          6    2    1    2  501    0 -0.26704713895E+02 -0.15568103061E+03 -0.14832324344E+04  0.15008980908E+04  0.16663402828E+03 0.  0.
         24    2    3    3    0    0  0.61579788936E+00 -0.33228301590E+02 -0.90399472040E+03  0.90820972364E+03  0.80832842154E+02 0.  0.
         -6    2    1    2    0  502  0.26704713895E+02  0.15568103061E+03 -0.13576989590E+04  0.13770448118E+04  0.16720115300E+03 0.  0.
        -24    2    5    5    0    0  0.65113026690E+02  0.83706715436E+02 -0.56259379642E+03  0.57775149267E+03  0.77707702710E+02 0.  0.
          5    1    3    3  501    0 -0.27320511784E+02 -0.12245272902E+03 -0.57923771399E+03  0.59268836711E+03  0.47000000000E+01 0. -1.
        -13    1    4    4    0    0 -0.68536005605E+01 -0.49975361554E+02 -0.32208308883E+03  0.32600924022E+03  0.00000000000E+00 0.  1.
         14    1    4    4    0    0  0.74693984499E+01  0.16747059963E+02 -0.58191163157E+03  0.58220048342E+03  0.00000000000E+00 0. -1.
         -5    1    5    5    0  502 -0.38408312796E+02  0.71974315172E+02 -0.79510516257E+03  0.79929331918E+03  0.47000000000E+01 0.  1.
         11    1    6    6    0    0  0.39746851190E+02  0.62751634621E+02 -0.51226253051E+03  0.51762001506E+03  0.00000000000E+00 0. -1.
        -12    1    6    6    0    0  0.25366175500E+02  0.20955080815E+02 -0.50331265904E+02  0.60131477605E+02  0.00000000000E+00 0.  1.
</event>
<event>
12    1  0.9017558E-003  0.2087728E+03  0.7818608E-02  0.1142596E+00
         21   -1    0    0  501  502  0.00000000000E+00  0.00000000000E+00  0.30606186442E+03  0.30606186442E+03  0.00000000000E+00 0.  1.
         21   -1    0    0  502  503 -0.00000000000E+00 -0.00000000000E+00 -0.15273673023E+03  0.15273673023E+03  0.00000000000E+00 0.  1.
          6    2    1    2  501    0  0.70438589252E+02  0.93565414997E+02  0.13679838419E+03  0.24937269823E+03  0.17250177670E+03 0.  0.
         24    2    3    3    0    0  0.69946676621E+02  0.10847870748E+03  0.41090849811E+02  0.15239501828E+03  0.69825612148E+02 0.  0.
         -6    2    1    2    0  503 -0.70438589252E+02 -0.93565414997E+02  0.16526749997E+02  0.20942589642E+03  0.17282936928E+03 0.  0.
        -24    2    5    5    0    0 -0.21283814610E+02  0.19325886189E+02  0.83229272028E+01  0.85934882727E+02  0.80554592114E+02 0.  0.
          5    1    3    3  501    0  0.49191263090E+00 -0.14913292487E+02  0.95707534379E+02  0.96977679947E+02  0.47000000000E+01 0. -1.
        -13    1    4    4    0    0  0.75869578079E-01  0.13542688723E+02  0.31310461566E+02  0.34113856093E+02  0.00000000000E+00 0.  1.
         14    1    4    4    0    0  0.69870807043E+02  0.94936018760E+02  0.97803882452E+01  0.11828116219E+03  0.00000000000E+00 0. -1.
         -5    1    5    5    0  503 -0.49154774642E+02 -0.11289130119E+03  0.82038227941E+01  0.12349101369E+03  0.47000000000E+01 0.  1.
         11    1    6    6    0    0  0.29324795395E+02  0.52273028605E+01  0.14333817047E+02  0.33056415887E+02  0.00000000000E+00 0. -1.
        -12    1    6    6    0    0 -0.50608610006E+02  0.14098583329E+02 -0.60108898441E+01  0.52878466839E+02  0.00000000000E+00 0.  1.
</event>
<event>
12    1  0.9017558E-003  0.4035700E+03  0.7818608E-02  0.1042560E+00
         21   -1    0    0  503  502  0.00000000000E+00  0.00000000000E+00  0.30415808155E+03  0.30415808155E+03  0.00000000000E+00 0.  1.
         21   -1    0    0  501  503 -0.00000000000E+00 -0.00000000000E+00 -0.54745937421E+03  0.54745937421E+03  0.00000000000E+00 0. -1.
          6    2    1    2  501    0 -0.24954115022E+03  0.26747968784E+03 -0.18501050883E+03  0.44385944985E+03  0.17019445874E+03 0.  0.
         24    2    3    3    0    0 -0.68509435721E+02  0.76797230811E+02 -0.16782467284E+02  0.13168154379E+03  0.80417786111E+02 0.  0.
         -6    2    1    2    0  502  0.24954115022E+03 -0.26747968784E+03 -0.58290783829E+02  0.40775800591E+03  0.17044825269E+03 0.  0.
        -24    2    5    5    0    0  0.16718948186E+03 -0.17913669550E+03  0.28065232740E+02  0.25921261495E+03  0.79757406819E+02 0.  0.
          5    1    3    3  501    0 -0.18103171450E+03  0.19068245703E+03 -0.16822804155E+03  0.31217790607E+03  0.47000000000E+01 0. -1.
        -13    1    4    4    0    0 -0.79685974376E+02  0.64651448074E+02 -0.33738655145E+02  0.10801833688E+03  0.00000000000E+00 0.  1.
         14    1    4    4    0    0  0.11176538654E+02  0.12145782736E+02  0.16956187861E+02  0.23663206912E+02  0.00000000000E+00 0. -1.
         -5    1    5    5    0  502  0.82351668361E+02 -0.88342992344E+02 -0.86356016568E+02  0.14854539096E+03  0.47000000000E+01 0.  1.
         13    1    6    6    0    0  0.12952616927E+03 -0.14265740731E+03 -0.12244491057E+02  0.19307535303E+03  0.00000000000E+00 0. -1.
        -14    1    6    6    0    0  0.37663312584E+02 -0.36479288191E+02  0.40309723797E+02  0.66137261920E+02  0.00000000000E+00 0.  1.
</event>
<event>
12    1  0.9017558E-003  0.1782992E+03  0.7818608E-02  0.1169738E+00
         21   -1    0    0  501  502  0.00000000000E+00  0.00000000000E+00  0.13436556260E+03  0.13436556260E+03  0.00000000000E+00 0.  1.
         21   -1    0    0  502  503 -0.00000000000E+00 -0.00000000000E+00 -0.36849677529E+03  0.36849677529E+03  0.00000000000E+00 0.  1.
          6    2    1    2  501    0  0.28508501275E+02  0.29450072910E+02  0.34450894189E+02  0.18048532238E+03  0.17236022176E+03 0.  0.
         24    2    3    3    0    0  0.65863198276E+02  0.54896832229E+01 -0.24171913377E+02  0.10680902206E+03  0.80347920242E+02 0.  0.
         -6    2    1    2    0  503 -0.28508501275E+02 -0.29450072910E+02 -0.26858210688E+03  0.32237701552E+03  0.17352391926E+03 0.  0.
        -24    2    5    5    0    0  0.43913557466E+02  0.12267914019E+02 -0.16944100062E+03  0.19262188469E+03  0.79460905641E+02 0.  0.
          5    1    3    3  501    0 -0.37354697001E+02  0.23960389687E+02  0.58622807566E+02  0.73676300321E+02  0.47000000000E+01 0. -1.
        -11    1    4    4    0    0  0.70513792655E+02  0.75411155764E+01  0.10568199893E+02  0.71699025292E+02  0.00000000000E+00 0.  1.
         12    1    4    4    0    0 -0.46505943795E+01 -0.20514323535E+01 -0.34740113270E+02  0.35109996764E+02  0.00000000000E+00 0. -1.
         -5    1    5    5    0  503 -0.72422058741E+02 -0.41717986929E+02 -0.99141106258E+02  0.12975513083E+03  0.47000000000E+01 0.  1.
         11    1    6    6    0    0 -0.41296925493E+01  0.20832955963E+02 -0.60273003972E+01  0.22077018929E+02  0.00000000000E+00 0. -1.
        -12    1    6    6    0    0  0.48043250016E+02 -0.85650419442E+01 -0.16341370023E+03  0.17054486576E+03  0.00000000000E+00 0.  1.
</event>
<event>
12    1  0.9017558E-003  0.2675219E+03  0.7818608E-02  0.1103215E+00
         21   -1    0    0  501  502  0.00000000000E+00  0.00000000000E+00  0.89309137056E+02  0.89309137056E+02  0.00000000000E+00 0.  1.
         21   -1    0    0  502  503 -0.00000000000E+00 -0.00000000000E+00 -0.83131756051E+03  0.83131756051E+03  0.00000000000E+00 0. -1.
          6    2    1    2  501    0  0.12858784645E+03 -0.15866183979E+03 -0.27187621645E+03  0.38142450508E+03  0.17279919659E+03 0.  0.
         24    2    3    3    0    0  0.87347362113E+02 -0.22001692065E+02 -0.94701712214E+02  0.15385106973E+03  0.81167119203E+02 0.  0.
         -6    2    1    2    0  503 -0.12858784645E+03  0.15866183979E+03 -0.47013220701E+03  0.53920219249E+03  0.16735082509E+03 0.  0.
        -24    2    5    5    0    0 -0.74841402117E+02  0.14904325343E+03 -0.24291320402E+03  0.30546780734E+03  0.80552031445E+02 0.  0.
          5    1    3    3  501    0  0.41240484340E+02 -0.13666014772E+03 -0.17717450423E+03  0.22757343535E+03  0.47000000000E+01 0. -1.
        -11    1    4    4    0    0  0.56984393552E+02 -0.19786151989E+02 -0.66526632431E+01  0.60687485096E+02  0.00000000000E+00 0.  1.
         12    1    4    4    0    0  0.30362968561E+02 -0.22155400762E+01 -0.88049048971E+02  0.93163584636E+02  0.00000000000E+00 0. -1.
         -5    1    5    5    0  503 -0.53746444336E+02  0.96185863549E+01 -0.22721900299E+03  0.23373438515E+03  0.47000000000E+01 0.  1.
         11    1    6    6    0    0  0.97023249824E+01 -0.38829930678E+01 -0.12641587512E+02  0.16401904769E+02  0.00000000000E+00 0. -1.
        -12    1    6    6    0    0 -0.84543727100E+02  0.15292624650E+03 -0.23027161651E+03  0.28906590257E+03  0.00000000000E+00 0.  1.
</event>
<event>
12    1  0.9017558E-003  0.2257550E+03  0.7818608E-02  0.1129787E+00
         21   -1    0    0  501  502  0.00000000000E+00  0.00000000000E+00  0.11715072927E+03  0.11715072927E+03  0.00000000000E+00 0.  1.
         21   -1    0    0  502  503 -0.00000000000E+00 -0.00000000000E+00 -0.43434832209E+03  0.43434832209E+03  0.00000000000E+00 0. -1.
          6    2    1    2  501    0 -0.42918215044E+02 -0.13927380571E+03 -0.14790790823E+03  0.26932124183E+03  0.17151680921E+03 0.  0.
         24    2    3    3    0    0 -0.38568681048E+02 -0.14102741334E+02 -0.24570221429E+02  0.93477593125E+02  0.80299029661E+02 0.  0.
         -6    2    1    2    0  503  0.42918215044E+02  0.13927380571E+03 -0.16928968459E+03  0.28217780953E+03  0.17241273950E+03 0.  0.
        -24    2    5    5    0    0 -0.16988338229E+02  0.12466327936E+03 -0.69389598259E+02  0.16468576786E+03  0.80479493879E+02 0.  0.
          5    1    3    3  501    0 -0.43495339963E+01 -0.12517106438E+03 -0.12333768680E+03  0.17584364870E+03  0.47000000000E+01 0. -1.
        -13    1    4    4    0    0 -0.18315126032E+02 -0.28579634408E+02  0.22154264187E+02  0.40534562612E+02  0.00000000000E+00 0.  1.
         14    1    4    4    0    0 -0.20253555016E+02  0.14476893074E+02 -0.46724485616E+02  0.52943030513E+02  0.00000000000E+00 0. -1.
         -5    1    5    5    0  503  0.59906553273E+02  0.14610526353E+02 -0.99900086332E+02  0.11749204166E+03  0.47000000000E+01 0.  1.
         11    1    6    6    0    0 -0.22858864317E+02  0.35736790373E+02 -0.62182343744E+02  0.75274761624E+02  0.00000000000E+00 0. -1.
        -12    1    6    6    0    0  0.58705260876E+01  0.88926488983E+02 -0.72072545155E+01  0.89411006241E+02  0.00000000000E+00 0.  1.
</event>
<event>
12    1  0.9017558E-003  0.3221106E+03  0.7818608E-02  0.1074967E+00
         21   -1    0    0  503  502  0.00000000000E+00  0.00000000000E+00  0.30776402606E+03  0.30776402606E+03  0.00000000000E+00 0. -1.
         21   -1    0    0  501  503 -0.00000000000E+00 -0.00000000000E+00 -0.37766126241E+03  0.37766126241E+03  0.00000000000E+00 0.  1.
          6    2    1    2  501    0 -0.16928732434E+03 -0.21028363818E+03 -0.15088287329E+03  0.35569776510E+03  0.17572094916E+03 0.  0.
         24    2    3    3    0    0 -0.18299569410E+03 -0.19522139506E+03 -0.16986664164E+03  0.32746190084E+03  0.82327415937E+02 0.  0.
         -6    2    1    2    0  502  0.16928732434E+03  0.21028363818E+03  0.80985636945E+02  0.32972752337E+03  0.17112615114E+03 0.  0.
        -24    2    5    5    0    0  0.14518299081E+03  0.22874339728E+03  0.50748393862E+02  0.28662111468E+03  0.78578758451E+02 0.  0.
          5    1    3    3  501    0  0.13708369761E+02 -0.15062243125E+02  0.18983768350E+02  0.28235864255E+02  0.47000000000E+01 0. -1.
        -13    1    4    4    0    0 -0.36270512317E+02 -0.80670240240E+02 -0.85752453495E+02  0.12319383509E+03  0.00000000000E+00 0.  1.
         14    1    4    4    0    0 -0.14672518178E+03 -0.11455115482E+03 -0.84114188148E+02  0.20426806575E+03  0.00000000000E+00 0. -1.
         -5    1    5    5    0  502  0.24104333531E+02 -0.18459759098E+02  0.30237243083E+02  0.43106408691E+02  0.47000000000E+01 0.  1.
         13    1    6    6    0    0  0.60343917029E+02  0.59285959418E+02  0.47641263928E+02  0.97087091496E+02  0.00000000000E+00 0. -1.
        -14    1    6    6    0    0  0.84839073777E+02  0.16945743786E+03  0.31071299337E+01  0.18953402318E+03  0.00000000000E+00 0.  1.
</event>
<event>
12    1  0.9017558E-003  0.2256247E+03  0.7818608E-02  0.1129966E+00
         21   -1    0    0  503  502  0.00000000000E+00  0.00000000000E+00  0.45347813868E+03  0.45347813868E+03  0.00000000000E+00 0. -1.
         21   -1    0    0  501  503 -0.00000000000E+00 -0.00000000000E+00 -0.11351243043E+03  0.11351243043E+03  0.00000000000E+00 0.  1.
          6    2    1    2  501    0 -0.11750866142E+03  0.84631546744E+02  0.13444070102E+03  0.26264194455E+03  0.17301937675E+03 0.  0.
         24    2    3    3    0    0 -0.12413879373E+03  0.11665304141E+03  0.90100626785E+02  0.20734757813E+03  0.76527923208E+02 0.  0.
         -6    2    1    2    0  502  0.11750866142E+03 -0.84631546744E+02  0.20552500723E+03  0.30434862456E+03  0.17151318450E+03 0.  0.
        -24    2    5    5    0    0  0.14031912460E+03 -0.80140318647E+02  0.12440887691E+03  0.21983587428E+03  0.82087243611E+02 0.  0.
          5    1    3    3  501    0  0.66301323046E+01 -0.32021494664E+02  0.44340074231E+02  0.55294366419E+02  0.47000000000E+01 0. -1.
        -13    1    4    4    0    0 -0.60812813784E+02  0.20004423576E+02  0.57273819699E+01  0.64274242019E+02  0.00000000000E+00 0.  1.
         14    1    4    4    0    0 -0.63325979945E+02  0.96648617832E+02  0.84373244815E+02  0.14307333611E+03  0.00000000000E+00 0. -1.
         -5    1    5    5    0  502 -0.22810463180E+02 -0.44912280970E+01  0.81116130329E+02  0.84512750280E+02  0.47000000000E+01 0.  1.
         13    1    6    6    0    0  0.65330791191E+02 -0.39270270591E+02  0.10907123591E+03  0.13306690397E+03  0.00000000000E+00 0. -1.
        -14    1    6    6    0    0  0.74988333413E+02 -0.40870048056E+02  0.15337640994E+02  0.86768970303E+02  0.00000000000E+00 0.  1.
</event>
