<event>
12    1  0.1627564E-001  0.1852418E+03  0.7818608E-02  0.1163175E+00
         21   -1    0    0  501  502  0.00000000000E+00  0.00000000000E+00  0.88803158383E+02  0.88803158383E+02  0.00000000000E+00 0.  1.
         21   -1    0    0  502  503 -0.00000000000E+00 -0.00000000000E+00 -0.47778736477E+03  0.47778736477E+03  0.00000000000E+00 0. -1.
         -6    2    1    2    0  503 -0.21544176459E+02  0.58710159556E+02 -0.32111273531E+03  0.37071270197E+03  0.17436594923E+03 0.  0.
        -24    2    3    3    0    0 -0.38019082081E+02  0.52421435537E+01 -0.68050733779E+02  0.11149712013E+03  0.79547311444E+02 0.  0.
          6    2    1    2  501    0  0.21544176459E+02 -0.58710159556E+02 -0.67871471072E+02  0.19587782118E+03  0.17277311674E+03 0.  0.
         24    2    5    5    0    0 -0.23687227356E+01 -0.28175169838E+02  0.30209536712E+02  0.90302320077E+02  0.80264823304E+02 0.  0.
          5    1    5    5  501    0  0.23912899194E+02 -0.30534989718E+02 -0.98081007783E+02  0.10557550110E+03  0.47000000000E+01 0. -1.
        -11    1    6    6    0    0 -0.59307600740E+01  0.16885549290E+02  0.40205601162E+02  0.44008931533E+02  0.00000000000E+00 0.  1.
         12    1    6    6    0    0  0.35620373385E+01 -0.45060719128E+02 -0.99960644503E+01  0.46293388544E+02  0.00000000000E+00 0. -1.
         -5    1    3    3    0  503  0.16474905623E+02  0.53468016002E+02 -0.25306200153E+03  0.25921558184E+03  0.47000000000E+01 0.  1.
         13    1    4    4    0    0  0.15947068986E+01 -0.32476337849E+02 -0.17067784177E+02  0.36722811260E+02  0.00000000000E+00 0. -1.
        -14    1    4    4    0    0 -0.39613788980E+02  0.37718481403E+02 -0.50982949602E+02  0.74774308869E+02  0.00000000000E+00 0.  1.
</event>
<event>
12    1  0.1627564E-001  0.1822112E+03  0.7818608E-02  0.1165852E+00
         21   -1    0    0  501  502  0.00000000000E+00  0.00000000000E+00  0.48080602180E+02  0.48080602180E+02  0.00000000000E+00 0.  1.
         21   -1    0    0  502  503 -0.00000000000E+00 -0.00000000000E+00 -0.86080379109E+03  0.86080379109E+03  0.00000000000E+00 0.  1.
         -6    2    1    2    0  503 -0.43344468264E+02  0.40519470716E+02 -0.60944614249E+03  0.63589632410E+03  0.17151957315E+03 0.  0.
        -24    2    3    3    0    0  0.27720554051E+02 -0.24191189978E+02 -0.25688318693E+03  0.27043711347E+03  0.76115818488E+02 0.  0.
          6    2    1    2  501    0  0.43344468264E+02 -0.40519470716E+02 -0.20327704642E+03  0.27298806917E+03  0.17227988237E+03 0.  0.
         24    2    5    5    0    0  0.21713089497E+02 -0.32869542426E+02 -0.22462678776E+03  0.24129675482E+03  0.78835683749E+02 0.  0.
          5    1    5    5  501    0  0.21631378766E+02 -0.76499282902E+01  0.21349741337E+02  0.31691314351E+02  0.47000000000E+01 0. -1.
        -11    1    6    6    0    0 -0.35954488326E+01  0.22817501027E+02 -0.34062708555E+02  0.41156211190E+02  0.00000000000E+00 0.  1.
         12    1    6    6    0    0  0.25308538330E+02 -0.55687043453E+02 -0.19056407920E+03  0.20014054363E+03  0.00000000000E+00 0. -1.
         -5    1    3    3    0  503 -0.71065022315E+02  0.64710660694E+02 -0.35256295556E+03  0.36545921064E+03  0.47000000000E+01 0.  1.
         11    1    4    4    0    0  0.10042153311E+02 -0.28939741324E+02 -0.30200522180E+02  0.43016566704E+02  0.00000000000E+00 0. -1.
        -12    1    4    4    0    0  0.17678400740E+02  0.47485513453E+01 -0.22668266475E+03  0.22742054676E+03  0.00000000000E+00 0.  1.
</event>
<event>
12    1  0.1627564E-001  0.1736688E+03  0.7818608E-02  0.1174170E+00
         21   -1    0    0  503  502  0.00000000000E+00  0.00000000000E+00  0.57630886611E+02  0.57630886611E+02  0.00000000000E+00 0.  1.
         21   -1    0    0  501  503 -0.00000000000E+00 -0.00000000000E+00 -0.53300688968E+03  0.53300688968E+03  0.00000000000E+00 0.  1.
          6    2    1    2  501    0 -0.21526207450E+02 -0.10761338368E+02 -0.27995082693E+03  0.32944397406E+03  0.17199326305E+03 0.  0.
         24    2    3    3    0    0  0.17699204699E+02  0.39854430349E+01 -0.49830158380E+02  0.95491601528E+02  0.79413195850E+02 0.  0.
         -6    2    1    2    0  502  0.21526207450E+02  0.10761338368E+02 -0.19542517615E+03  0.26119380224E+03  0.17161590499E+03 0.  0.
        -24    2    5    5    0    0 -0.88952281086E+01 -0.38862713833E+02 -0.18116275195E+03  0.20108126575E+03  0.77616345799E+02 0.  0.
          5    1    3    3  501    0 -0.39225412149E+02 -0.14746781403E+02 -0.23012066855E+03  0.23395237253E+03  0.47000000000E+01 0. -1.
        -13    1    4    4    0    0  0.59882372715E+01 -0.32772930039E+02 -0.10929890239E+01  0.33333444976E+02  0.00000000000E+00 0.  1.
         14    1    4    4    0    0  0.11710967428E+02  0.36758373074E+02 -0.48737169356E+02  0.62158156552E+02  0.00000000000E+00 0. -1.
         -5    1    5    5    0  502  0.30421435558E+02  0.49624052201E+02 -0.14262424201E+02  0.60112536482E+02  0.47000000000E+01 0.  1.
         11    1    6    6    0    0  0.26689885734E+02  0.51033184518E+01 -0.34683570390E+02  0.44060684456E+02  0.00000000000E+00 0. -1.
        -12    1    6    6    0    0 -0.35585113843E+02 -0.43966032285E+02 -0.14647918156E+03  0.15702058130E+03  0.00000000000E+00 0.  1.
</event>
<event>
12    1  0.1627564E-001  0.1845268E+03  0.7818608E-02  0.1163686E+00
         21   -1    0    0  501  502  0.00000000000E+00  0.00000000000E+00  0.80592892995E+03  0.80592892995E+03  0.00000000000E+00 0.  1.
         21   -1    0    0  502  503 -0.00000000000E+00 -0.00000000000E+00 -0.68341566971E+02  0.68341566971E+02  0.00000000000E+00 0.  1.
         -6    2    1    2    0  503  0.25811439344E+02 -0.58708245050E+02  0.98227199017E+02  0.20904237828E+03  0.17302382741E+03 0.  0.
        -24    2    3    3    0    0  0.17116389252E+02 -0.44297140146E+02  0.13727757365E+03  0.16626030727E+03  0.80883559154E+02 0.  0.
          6    2    1    2  501    0 -0.25811439344E+02  0.58708245050E+02  0.63936016397E+03  0.66522811865E+03  0.17214570031E+03 0.  0.
         24    2    5    5    0    0  0.35769254302E+02  0.65730224362E+01  0.46528048356E+03  0.47330081888E+03  0.78772410092E+02 0.  0.
          5    1    5    5  501    0 -0.61580693647E+02  0.52135222614E+02  0.17407968041E+03  0.19192729977E+03  0.47000000000E+01 0. -1.
        -13    1    6    6    0    0 -0.20381694881E+02  0.20488607886E+02  0.15113708359E+03  0.15387532153E+03  0.00000000000E+00 0.  1.
         14    1    6    6    0    0  0.56150949183E+02 -0.13915585450E+02  0.31414339997E+03  0.31942549735E+03  0.00000000000E+00 0. -1.
         -5    1    3    3    0  503  0.86950500922E+01 -0.14411104905E+02 -0.39050374631E+02  0.42782071005E+02  0.47000000000E+01 0.  1.
         13    1    4    4    0    0 -0.31367126685E+02 -0.58677161922E+01  0.45246734924E+02  0.55367804283E+02  0.00000000000E+00 0. -1.
        -14    1    4    4    0    0  0.48483515937E+02 -0.38429423954E+02  0.92030838723E+02  0.11089250299E+03  0.00000000000E+00 0.  1.
</event>
<event>
12    1  0.1627564E-001  0.2117786E+03  0.7818608E-02  0.1140188E+00
         21   -1    0    0  503  502  0.00000000000E+00  0.00000000000E+00  0.23489471444E+03  0.23489471444E+03  0.00000000000E+00 0.  1.
         21   -1    0    0  501  503 -0.00000000000E+00 -0.00000000000E+00 -0.86622719862E+03  0.86622719862E+03  0.00000000000E+00 0. -1.
          6    2    1    2  501    0 -0.18056195931E+02 -0.12253625375E+03 -0.80183217171E+03  0.82932805080E+03  0.17178190986E+03 0.  0.
         24    2    3    3    0    0 -0.31879539686E+02 -0.98258158674E+02 -0.78628330168E+03  0.79701136637E+03  0.79465192554E+02 0.  0.
         -6    2    1    2    0  502  0.18056195931E+02  0.12253625375E+03  0.17049968753E+03  0.27179386226E+03  0.17164090544E+03 0.  0.
        -24    2    5    5    0    0 -0.34282798906E+02  0.12587177696E+03  0.10854009549E+03  0.19048225705E+03  0.86507360301E+02 0.  0.
          5    1    3    3  501    0  0.13823343754E+02 -0.24278095078E+02 -0.15548870030E+02  0.32316684427E+02  0.47000000000E+01 0. -1.
        -13    1    4    4    0    0 -0.30071907143E+02 -0.25284659229E+02 -0.11011377229E+03  0.11691311492E+03  0.00000000000E+00 0.  1.
         14    1    4    4    0    0 -0.18076325426E+01 -0.72973499445E+02 -0.67616952939E+03  0.68009825145E+03  0.00000000000E+00 0. -1.
         -5    1    5    5    0  502  0.52338994838E+02 -0.33355232103E+01  0.61959592042E+02  0.81311605209E+02  0.47000000000E+01 0.  1.
         11    1    6    6    0    0  0.13604296540E+02  0.96534040718E+02  0.50777597106E+02  0.10991934438E+03  0.00000000000E+00 0. -1.
        -12    1    6    6    0    0 -0.47887095446E+02  0.29337736243E+02  0.57762498384E+02  0.80562912669E+02  0.00000000000E+00 0.  1.
</event>
<event>
12    1  0.1627564E-001  0.2590440E+03  0.7818608E-02  0.1107861E+00
         21   -1    0    0  501  502  0.00000000000E+00  0.00000000000E+00  0.19047408156E+03  0.19047408156E+03  0.00000000000E+00 0.  1.
         21   -1    0    0  502  503 -0.00000000000E+00 -0.00000000000E+00 -0.74679395661E+03  0.74679395661E+03  0.00000000000E+00 0.  1.
         -6    2    1    2    0  503 -0.18054444101E+03  0.65340574187E+02  0.63234218790E+02  0.26573912268E+03  0.17249066375E+03 0.  0.
        -24    2    3    3    0    0 -0.92569130249E+02  0.10131028607E+03  0.60891790455E+02  0.17054956208E+03  0.80910599077E+02 0.  0.
          6    2    1    2  501    0  0.18054444101E+03 -0.65340574187E+02 -0.61955409383E+03  0.67152891549E+03  0.17389112496E+03 0.  0.
         24    2    5    5    0    0  0.13385671458E+03  0.20634084925E+02 -0.43493208051E+03  0.46253426577E+03  0.80178842939E+02 0.  0.
          5    1    5    5  501    0  0.46687726432E+02 -0.85974659112E+02 -0.18462201333E+03  0.20899464972E+03  0.47000000000E+01 0. -1.
        -13    1    6    6    0    0  0.11225163118E+03  0.45427975841E+02 -0.37635352168E+03  0.39535566643E+03  0.00000000000E+00 0.  1.
         14    1    6    6    0    0  0.21605083399E+02 -0.24793890916E+02 -0.58578558824E+02  0.67178599340E+02  0.00000000000E+00 0. -1.
         -5    1    3    3    0  503 -0.87975310764E+02 -0.35969711881E+02  0.23424283351E+01  0.95189560600E+02  0.47000000000E+01 0.  1.
         13    1    4    4    0    0  0.14751846057E+02  0.10534290396E+02  0.23346037394E+01  0.18276723198E+02  0.00000000000E+00 0. -1.
        -14    1    4    4    0    0 -0.10732097631E+03  0.90775995672E+02  0.58557186715E+02  0.15227283888E+03  0.00000000000E+00 0.  1.
</event>
<event>
12    1  0.1627564E-001  0.1965929E+03  0.7818608E-02  0.1153377E+00
         21   -1    0    0  501  502  0.00000000000E+00  0.00000000000E+00  0.14794143549E+04  0.14794143549E+04  0.00000000000E+00 0.  1.
         21   -1    0    0  502  503 -0.00000000000E+00 -0.00000000000E+00 -0.30330656124E+02  0.30330656124E+02  0.00000000000E+00 0.  1.
         -6    2    1    2    0  503  0.51928181009E+02  0.71696762192E+02  0.10254028580E+04  0.10440784376E+04  0.17553290574E+03 0.  0.
        -24    2    3    3    0    0  0.71657212822E+02  0.64537335694E+02  0.41942742843E+03  0.43772144431E+03  0.79880355792E+02 0.  0.
          6    2    1    2  501    0 -0.51928181009E+02 -0.71696762192E+02  0.42368084078E+03  0.46566657342E+03  0.17176420192E+03 0.  0.
         24    2    5    5    0    0  0.16570400122E+01 -0.48811107802E+01  0.32645978926E+03  0.33601423042E+03  0.79391422817E+02 0.  0.
          5    1    5    5  501    0 -0.53585221021E+02 -0.66815651412E+02  0.97221051519E+02  0.12965234299E+03  0.47000000000E+01 0. -1.
        -13    1    6    6    0    0  0.38232035373E+02 -0.15781624595E+02  0.17459066667E+03  0.17942310077E+03  0.00000000000E+00 0.  1.
         14    1    6    6    0    0 -0.36574995361E+02  0.10900513814E+02  0.15186912259E+03  0.15659112965E+03  0.00000000000E+00 0. -1.
         -5    1    3    3    0  503 -0.19729031813E+02  0.71594264981E+01  0.60597542953E+03  0.60635699326E+03  0.47000000000E+01 0.  1.
         13    1    4    4    0    0  0.46457134313E+01 -0.90456656455E+01  0.46692234889E+01  0.11189654519E+02  0.00000000000E+00 0. -1.
        -14    1    4    4    0    0  0.67011499391E+02  0.73583001339E+02  0.41475820494E+03  0.42653178979E+03  0.00000000000E+00 0.  1.
</event>
<event>
12    1  0.1627564E-001  0.1817507E+03  0.7818608E-02  0.1166301E+00
         21   -1    0    0  503  502  0.00000000000E+00  0.00000000000E+00  0.16336237296E+03  0.16336237296E+03  0.00000000000E+00 0. -1.
         21   -1    0    0  501  503 -0.00000000000E+00 -0.00000000000E+00 -0.24847437912E+03  0.24847437912E+03  0.00000000000E+00 0. -1.
          6    2    1    2  501    0 -0.47852536562E+02  0.29066563155E+02 -0.13228742486E+03  0.22479610109E+03  0.17291209888E+03 0.  0.
         24    2    3    3    0    0  0.30770287766E+01  0.83707973054E+01 -0.14055643683E+03  0.16900540376E+03  0.93419356719E+02 0.  0.
         -6    2    1    2    0  502  0.47852536562E+02 -0.29066563155E+02  0.47175418706E+02  0.18704065099E+03  0.17211610803E+03 0.  0.
        -24    2    5    5    0    0 -0.25067078954E+02 -0.56860202025E+02  0.16203660771E+02  0.10295083902E+03  0.80466611771E+02 0.  0.
          5    1    3    3  501    0 -0.50929565339E+02  0.20695765850E+02  0.82690119704E+01  0.55790697331E+02  0.47000000000E+01 0. -1.
        -11    1    4    4    0    0 -0.25729564919E+02  0.12562242166E+02 -0.13667014084E+03  0.13963720076E+03  0.00000000000E+00 0.  1.
         12    1    4    4    0    0  0.28806593696E+02 -0.41914448607E+01 -0.38862959889E+01  0.29368202991E+02  0.00000000000E+00 0. -1.
         -5    1    5    5    0  502  0.72919615517E+02  0.27793638871E+02  0.30971757935E+02  0.84089811977E+02  0.47000000000E+01 0.  1.
         13    1    6    6    0    0 -0.17854210293E+02 -0.39922521501E+01 -0.28145212976E+02  0.33568793781E+02  0.00000000000E+00 0. -1.
        -14    1    6    6    0    0 -0.72128686611E+01 -0.52867949875E+02  0.44348873747E+02  0.69382045235E+02  0.00000000000E+00 0.  1.
</event>
<event>
12    1  0.1627564E-001  0.1823156E+03  0.7818608E-02  0.1165943E+00
         21   -1    0    0  503  502  0.00000000000E+00  0.00000000000E+00  0.69517290215E+02  0.69517290215E+02  0.00000000000E+00 0.  1.
         21   -1    0    0  501  503 -0.00000000000E+00 -0.00000000000E+00 -0.13579519880E+04  0.13579519880E+04  0.00000000000E+00 0.  1.
          6    2    1    2  501    0 -0.31697398958E+02 -0.47897889429E+02 -0.12190693883E+04  0.12324038379E+04  0.17143544907E+03 0.  0.
         24    2    3    3    0    0 -0.28788977274E+02 -0.49517635921E+02 -0.35319413697E+03  0.36650943129E+03  0.79386795813E+02 0.  0.
         -6    2    1    2    0  502  0.31697398958E+02  0.47897889429E+02 -0.69365309426E+02  0.19506544028E+03  0.17303192460E+03 0.  0.
        -24    2    5    5    0    0 -0.82096760509E+01  0.81374498224E+02 -0.90609927960E+01  0.11524089158E+03  0.80679326713E+02 0.  0.
          5    1    3    3  501    0 -0.29084216842E+01  0.16197464917E+01 -0.86587525137E+03  0.86589440663E+03  0.47000000000E+01 0. -1.
        -13    1    4    4    0    0 -0.25320269018E+00 -0.38742908535E+02 -0.31618766029E+03  0.31855252878E+03  0.00000000000E+00 0.  1.
         14    1    4    4    0    0 -0.28535774584E+02 -0.10774727386E+02 -0.37006476685E+02  0.47956902506E+02  0.00000000000E+00 0. -1.
         -5    1    5    5    0  502  0.39907075009E+02 -0.33476608795E+02 -0.60304316630E+02  0.79824548708E+02  0.47000000000E+01 0.  1.
         13    1    6    6    0    0 -0.29921734583E+02  0.24616990742E+02 -0.32034767428E+02  0.50274573672E+02  0.00000000000E+00 0. -1.
        -14    1    6    6    0    0  0.21712058532E+02  0.56757507482E+02  0.22973774632E+02  0.64966317905E+02  0.00000000000E+00 0.  1.
</event>
<event>
12    1  0.1627564E-001  0.2149058E+03  0.7818608E-02  0.1138264E+00
         21   -1    0    0  501  502  0.00000000000E+00  0.00000000000E+00  0.83531294501E+03  0.83531294501E+03  0.00000000000E+00 0.  1.
         21   -1    0    0  502  503 -0.00000000000E+00 -0.00000000000E+00 -0.58973313683E+02  0.58973313683E+02  0.00000000000E+00 0.  1.
         -6    2    1    2    0  503  0.11802056616E+03  0.52839001258E+02  0.26860035431E+03  0.34399220469E+03  0.17164985425E+03 0.  0.
        -24    2    3    3    0    0  0.90861353214E+02 -0.24109856653E+02  0.21272090633E+03  0.24498032516E+03  0.76994188285E+02 0.  0.
          6    2    1    2  501    0 -0.11802056616E+03 -0.52839001258E+02  0.50773927701E+03  0.55029405400E+03  0.16823661419E+03 0.  0.
         24    2    5    5    0    0 -0.12338555012E+03  0.80702216017E+01  0.40348262150E+03  0.42933845594E+03  0.79020006613E+02 0.  0.
          5    1    5    5  501    0  0.53649839602E+01 -0.60909222860E+02  0.10425665551E+03  0.12095559806E+03  0.47000000000E+01 0. -1.
        -11    1    6    6    0    0 -0.16262971479E+02 -0.29039899050E+02  0.98012484051E+02  0.10350964693E+03  0.00000000000E+00 0.  1.
         12    1    6    6    0    0 -0.10712257864E+03  0.37110120651E+02  0.30547013745E+03  0.32582880901E+03  0.00000000000E+00 0. -1.
         -5    1    3    3    0  503  0.27159212942E+02  0.76948857912E+02  0.55879447978E+02  0.99011879529E+02  0.47000000000E+01 0.  1.
         13    1    4    4    0    0  0.70106686567E+02 -0.43913598251E+02  0.10593471607E+03  0.13440801941E+03  0.00000000000E+00 0. -1.
        -14    1    4    4    0    0  0.20754666647E+02  0.19803741597E+02  0.10678619025E+03  0.11057230575E+03  0.00000000000E+00 0.  1.
</event>
<event>
12    1  0.1627564E-001  0.1777191E+03  0.7818608E-02  0.1170435E+00
         21   -1    0    0  501  502  0.00000000000E+00  0.00000000000E+00  0.21232312972E+03  0.21232312972E+03  0.00000000000E+00 0. -1.
         21   -1    0    0  502  503 -0.00000000000E+00 -0.00000000000E+00 -0.36174748282E+03  0.36174748282E+03  0.00000000000E+00 0. -1.
         -6    2    1    2    0  503  0.33394105413E+02 -0.17472068324E+02 -0.29552781870E+03  0.34400476552E+03  0.17199461511E+03 0.  0.
        -24    2    3    3    0    0  0.25478758351E+02  0.51550990563E+02 -0.22548041412E+03  0.24523450549E+03  0.77407194613E+02 0.  0.
          6    2    1    2  501    0 -0.33394105413E+02  0.17472068324E+02  0.14610346560E+03  0.23006584703E+03  0.17367680288E+03 0.  0.
         24    2    5    5    0    0  0.37133448088E+02 -0.17322781077E+02  0.38206057466E+02  0.96466602906E+02  0.78531082624E+02 0.  0.
          5    1    5    5  501    0 -0.70527553501E+02  0.34794849401E+02  0.10789740813E+03  0.13359924412E+03  0.47000000000E+01 0. -1.
        -13    1    6    6    0    0  0.52741796255E+02  0.13086785845E+02  0.25114273027E+02  0.59863910209E+02  0.00000000000E+00 0.  1.
         14    1    6    6    0    0 -0.15608348167E+02 -0.30409566922E+02  0.13091784440E+02  0.36602692697E+02  0.00000000000E+00 0. -1.
         -5    1    3    3    0  503  0.79153470624E+01 -0.69023058887E+02 -0.70047404582E+02  0.98770260028E+02  0.47000000000E+01 0.  1.
         11    1    4    4    0    0  0.38876621519E+02  0.53497749040E+02 -0.10564356887E+03  0.12463532604E+03  0.00000000000E+00 0. -1.
        -12    1    4    4    0    0 -0.13397863168E+02 -0.19467584774E+01 -0.11983684524E+03  0.12059917945E+03  0.00000000000E+00 0.  1.
</event>
<event>
12    1  0.1627564E-001  0.2312021E+03  0.7818608E-02  0.1127651E+00
         21   -1    0    0  501  502  0.00000000000E+00  0.00000000000E+00  0.68202769388E+03  0.68202769388E+03  0.00000000000E+00 0.  1.
         21   -1    0    0  502  503 -0.00000000000E+00 -0.00000000000E+00 -0.78588869952E+02  0.78588869952E+02  0.00000000000E+00 0.  1.
         -6    2    1    2    0  503  0.12983748201E+03  0.42242165928E+02  0.39061402684E+03  0.45390938471E+03  0.18658038279E+03 0.  0.
        -24    2    3    3    0    0  0.53385600047E+01 -0.25549796110E+02  0.20265543729E+03  0.21843910403E+03  0.77234212633E+02 0.  0.
          6    2    1    2  501    0 -0.12983748201E+03 -0.42242165928E+02  0.21282479709E+03  0.30670717913E+03  0.17358780820E+03 0.  0.
         24    2    5    5    0    0 -0.61563286470E+01  0.16050217471E+02  0.10288474576E+03  0.13119668216E+03  0.79572536951E+02 0.  0.
          5    1    5    5  501    0 -0.12368115336E+03 -0.58292383398E+02  0.10994005133E+03  0.17551049697E+03  0.47000000000E+01 0. -1.
        -11    1    6    6    0    0 -0.99339437301E+01 -0.28675440199E+02  0.18293099351E+02  0.35434468988E+02  0.00000000000E+00 0.  1.
         12    1    6    6    0    0  0.37776150831E+01  0.44725657669E+02  0.84591646405E+02  0.95762213170E+02  0.00000000000E+00 0. -1.
         -5    1    3    3    0  503  0.12449892201E+03  0.67791962037E+02  0.18795858955E+03  0.23547028068E+03  0.47000000000E+01 0.  1.
         13    1    4    4    0    0  0.16104083911E+02 -0.22439744652E+02  0.16972506718E+02  0.32418353489E+02  0.00000000000E+00 0. -1.
        -14    1    4    4    0    0 -0.10765523907E+02 -0.31100514579E+01  0.18568293057E+03  0.18602075054E+03  0.00000000000E+00 0.  1.
</event>
<event>
12    1  0.1627564E-001  0.2857748E+03  0.7818608E-02  0.1092653E+00
         21   -1    0    0  501  502  0.00000000000E+00  0.00000000000E+00  0.50457345555E+03  0.50457345555E+03  0.00000000000E+00 0.  1.
         21   -1    0    0  502  503 -0.00000000000E+00 -0.00000000000E+00 -0.18452467513E+03  0.18452467513E+03  0.00000000000E+00 0. -1.
         -6    2    1    2    0  503 -0.21052264096E+03  0.88267534202E+02  0.38528965187E+02  0.28836036602E+03  0.17191939851E+03 0.  0.
        -24    2    3    3    0    0 -0.20952776787E+03  0.11317597947E+03  0.55666237271E+02  0.25774670057E+03  0.81387614798E+02 0.  0.
          6    2    1    2  501    0  0.21052264096E+03 -0.88267534202E+02  0.28151981524E+03  0.40073776466E+03  0.17095733298E+03 0.  0.
         24    2    5    5    0    0  0.60515122253E+02 -0.61310174763E+02  0.18586727312E+03  0.22073650436E+03  0.82200630093E+02 0.  0.
          5    1    5    5  501    0  0.15000751870E+03 -0.26957359439E+02  0.95652542114E+02  0.18000126030E+03  0.47000000000E+01 0. -1.
        -11    1    6    6    0    0  0.48952108085E+02 -0.36392366144E+02  0.18325787740E+03  0.19314285601E+03  0.00000000000E+00 0.  1.
         12    1    6    6    0    0  0.11563014168E+02 -0.24917808620E+02  0.26093957236E+01  0.27593648347E+02  0.00000000000E+00 0. -1.
         -5    1    3    3    0  503 -0.99487308929E+00 -0.24908445271E+02 -0.17137272084E+02  0.30613665458E+02  0.47000000000E+01 0.  1.
         11    1    4    4    0    0 -0.41697099914E+02  0.99352637017E+01 -0.19190398211E+02  0.46964124495E+02  0.00000000000E+00 0. -1.
        -12    1    4    4    0    0 -0.16783066795E+03  0.10324071577E+03  0.74856635482E+02  0.21078257607E+03  0.00000000000E+00 0.  1.
</event>
<event>
12    1  0.1627564E-001  0.1887746E+03  0.7818608E-02  0.1159852E+00
         21   -1    0    0  503  502  0.00000000000E+00  0.00000000000E+00  0.54360635374E+02  0.54360635374E+02  0.00000000000E+00 0.  1.
         21   -1    0    0  501  503 -0.00000000000E+00 -0.00000000000E+00 -0.65129238473E+03  0.65129238473E+03  0.00000000000E+00 0.  1.
          6    2    1    2  501    0  0.46577175871E+02  0.62686535395E+02 -0.30109607564E+03  0.35537963371E+03  0.17186274250E+03 0.  0.
         24    2    3    3    0    0  0.26748627211E+02  0.10198475128E+03 -0.15825246996E+03  0.20583396578E+03  0.78787046326E+02 0.  0.
         -6    2    1    2    0  502 -0.46577175871E+02 -0.62686535395E+02 -0.29583567372E+03  0.35027338639E+03  0.17051001243E+03 0.  0.
        -24    2    5    5    0    0 -0.62952776502E+02 -0.73014832000E+02 -0.12033285407E+03  0.17364336711E+03  0.79861163350E+02 0.  0.
          5    1    3    3  501    0  0.19828548660E+02 -0.39298215888E+02 -0.14284360568E+03  0.14954566793E+03  0.47000000000E+01 0. -1.
        -13    1    4    4    0    0  0.23351912730E+02  0.88367604374E+02 -0.66545902316E+02  0.11305972955E+03  0.00000000000E+00 0.  1.
         14    1    4    4    0    0  0.33967144808E+01  0.13617146909E+02 -0.91706567643E+02  0.92774236230E+02  0.00000000000E+00 0. -1.
         -5    1    5    5    0  502  0.16375600631E+02  0.10328296605E+02 -0.17550281965E+03  0.17663001928E+03  0.47000000000E+01 0.  1.
         13    1    6    6    0    0 -0.64446361780E+01  0.17404994960E+02 -0.17414607223E+02  0.25450652835E+02  0.00000000000E+00 0. -1.
        -14    1    6    6    0    0 -0.56508140324E+02 -0.90419826960E+02 -0.10291824685E+03  0.14819271428E+03  0.00000000000E+00 0.  1.
</event>
<event>
12    1  0.1627564E-001  0.2085378E+03  0.7818608E-02  0.1145064E+00
         21   -1    0    0  503  502  0.00000000000E+00  0.00000000000E+00  0.14682462876E+04  0.14682462876E+04  0.00000000000E+00 0. -1.
         21   -1    0    0  501  503 -0.00000000000E+00 -0.00000000000E+00 -0.35394744586E+02  0.35394744586E+02  0.00000000000E+00 0.  1.
          6    2    1    2  501    0 -0.53200610621E+02 -0.97143801244E+02  0.35771448122E+03  0.40846629204E+03  0.16314974278E+03 0.  0.
         24    2    3    3    0    0 -0.75195175106E+02 -0.27166195506E+02  0.14742331689E+03  0.18569939601E+03  0.79739041744E+02 0.  0.
         -6    2    1    2    0  502  0.53200610621E+02  0.97143801244E+02  0.10751370618E+04  0.10951747401E+04  0.17669404834E+03 0.  0.
        -24    2    5    5    0    0  0.45916057262E+02  0.13806257929E+03  0.96893902381E+03  0.98103655904E+03  0.49196932800E+02 0.  0.
          5    1    3    3  501    0  0.21994564485E+02 -0.69977605738E+02  0.21029116433E+03  0.22276689603E+03  0.47000000000E+01 0. -1.
        -11    1    4    4    0    0 -0.27147625534E+02 -0.46918424299E+02  0.43452443589E+02  0.69472634646E+02  0.00000000000E+00 0.  1.
         12    1    4    4    0    0 -0.48047549572E+02  0.19752228793E+02  0.10397087330E+03  0.11622676137E+03  0.00000000000E+00 0. -1.
         -5    1    5    5    0  502  0.72845533589E+01 -0.40918778045E+02  0.10619803798E+03  0.11413818110E+03  0.47000000000E+01 0.  1.
         13    1    6    6    0    0  0.42270856123E+02  0.50098913637E+02  0.41564061775E+03  0.42077767235E+03  0.00000000000E+00 0. -1.
        -14    1    6    6    0    0  0.36452011390E+01  0.87963665652E+02  0.55329840606E+03  0.56025888669E+03  0.00000000000E+00 0.  1.
</event>
<event>
12    1  0.1627564E-001  0.1925790E+03  0.7818608E-02  0.1156250E+00
         21   -1    0    0  501  502  0.00000000000E+00  0.00000000000E+00  0.35231862722E+02  0.35231862722E+02  0.00000000000E+00 0. -1.
         21   -1    0    0  502  503 -0.00000000000E+00 -0.00000000000E+00 -0.21057868493E+04  0.21057868493E+04  0.00000000000E+00 0. -1.
         -6    2    1    2    0  503  0.31189822055E+02 -0.79267333700E+02 -0.17925957005E+04  0.18028648369E+04  0.17223866972E+03 0.  0.
        -24    2    3    3    0    0  0.86629805456E+02 -0.40858333669E+02 -0.11556655226E+04  0.11623564571E+04  0.79596523653E+02 0.  0.
          6    2    1    2  501    0 -0.31189822055E+02  0.79267333700E+02 -0.27795928606E+03  0.33815387514E+03  0.17271526677E+03 0.  0.
         24    2    5    5    0    0  0.51142909574E+01 -0.21806504859E+02 -0.92705961971E+02  0.12396985718E+03  0.79198803522E+02 0.  0.
          5    1    5    5  501    0 -0.36304113012E+02  0.10107383856E+03 -0.18525332408E+03  0.21418401795E+03  0.47000000000E+01 0. -1.
        -11    1    6    6    0    0  0.24733935429E+01  0.13209468671E+01 -0.99641438029E+02  0.99680884570E+02  0.00000000000E+00 0.  1.
         12    1    6    6    0    0  0.26408974145E+01 -0.23127451727E+02  0.69354760582E+01  0.24288972615E+02  0.00000000000E+00 0. -1.
         -5    1    3    3    0  503 -0.55439983401E+02 -0.38409000031E+02 -0.63693017792E+03  0.64050837980E+03  0.47000000000E+01 0.  1.
         13    1    4    4    0    0  0.28944170261E+02 -0.56189314581E+02 -0.49985882280E+03  0.50383910804E+03  0.00000000000E+00 0. -1.
        -14    1    4    4    0    0  0.57685635195E+02  0.15330980912E+02 -0.65580669979E+03  0.65851734903E+03  0.00000000000E+00 0.  1.
</event>
<event>
12    1  0.1627564E-001  0.2217767E+03  0.7818608E-02  0.1132734E+00
         21   -1    0    0  503  502  0.00000000000E+00  0.00000000000E+00  0.93192863911E+02  0.93192863911E+02  0.00000000000E+00 0. -1.
         21   -1    0    0  501  503 -0.00000000000E+00 -0.00000000000E+00 -0.57086773037E+03  0.57086773037E+03  0.00000000000E+00 0. -1.
          6    2    1    2  501    0 -0.19341620845E+02 -0.13673138825E+03 -0.14579901289E+03  0.26540959666E+03  0.17353769335E+03 0.  0.
         24    2    3    3    0    0 -0.70547737003E+02 -0.60373991852E+02 -0.53280805793E+02  0.13489436016E+03  0.82070957394E+02 0.  0.
         -6    2    1    2    0  502  0.19341620845E+02  0.13673138825E+03 -0.33187585357E+03  0.39865099762E+03  0.17237013920E+03 0.  0.
        -24    2    5    5    0    0 -0.29299089196E+02  0.99484680900E+02 -0.12196484914E+03  0.17993210118E+03  0.82124894188E+02 0.  0.
          5    1    3    3  501    0  0.51206116158E+02 -0.76357396396E+02 -0.92518207098E+02  0.13051523651E+03  0.47000000000E+01 0. -1.
        -13    1    4    4    0    0 -0.31291325243E+02 -0.14480559143E+00 -0.54665423348E+02  0.62987907680E+02  0.00000000000E+00 0.  1.
         14    1    4    4    0    0 -0.39256411760E+02 -0.60229186261E+02  0.13846175550E+01  0.71906452476E+02  0.00000000000E+00 0. -1.
         -5    1    5    5    0  502  0.48640710041E+02  0.37246707349E+02 -0.20991100443E+03  0.21871889644E+03  0.47000000000E+01 0.  1.
         13    1    6    6    0    0  0.17164571607E+02  0.73070723298E+02 -0.91730831725E+02  0.11852636251E+03  0.00000000000E+00 0. -1.
        -14    1    6    6    0    0 -0.46463660802E+02  0.26413957602E+02 -0.30234017420E+02  0.61405738662E+02  0.00000000000E+00 0.  1.
</event>
<event>
12    1  0.1627564E-001  0.2003558E+03  0.7818608E-02  0.1152727E+00
         21   -1    0    0  503  502  0.00000000000E+00  0.00000000000E+00  0.14581210278E+03  0.14581210278E+03  0.00000000000E+00 0. -1.
         21   -1    0    0  501  503 -0.00000000000E+00 -0.00000000000E+00 -0.35331180834E+03  0.35331180834E+03  0.00000000000E+00 0.  1.
          6    2    1    2  501    0 -0.73264184240E+02 -0.73030244831E+02 -0.23235013485E+03  0.29723288633E+03  0.15381724936E+03 0.  0.
         24    2    3    3    0    0 -0.53462225581E+00 -0.76673902512E+02 -0.12022984586E+03  0.16345727334E+03  0.79899256729E+02 0.  0.
         -6    2    1    2    0  502  0.73264184240E+02  0.73030244831E+02  0.24850429293E+02  0.20189102478E+03  0.17158491979E+03 0.  0.
        -24    2    5    5    0    0  0.36946657083E+02 -0.27996903819E+02  0.29537002858E+01  0.92223325414E+02  0.79671420924E+02 0.  0.
          5    1    3    3  501    0 -0.72729561985E+02  0.36436576807E+01 -0.11212028899E+03  0.13377561299E+03  0.47000000000E+01 0. -1.
        -11    1    4    4    0    0  0.26323130001E+02  0.28117068905E+01 -0.23371546976E+02  0.35313482931E+02  0.00000000000E+00 0.  1.
         12    1    4    4    0    0 -0.26857752257E+02 -0.79485609402E+02 -0.96858298886E+02  0.12814379041E+03  0.00000000000E+00 0. -1.
         -5    1    5    5    0  502  0.36317527157E+02  0.10102714865E+03  0.21896729007E+02  0.10966769937E+03  0.47000000000E+01 0.  1.
         13    1    6    6    0    0  0.40444365884E+02  0.17441572731E+02 -0.93336694398E+01  0.45023022736E+02  0.00000000000E+00 0. -1.
        -14    1    6    6    0    0 -0.34977088008E+01 -0.45438476551E+02  0.12287369726E+02  0.47200302678E+02  0.00000000000E+00 0.  1.
</event>
<event>
12    1  0.1627564E-001  0.2156504E+03  0.7818608E-02  0.1137246E+00
         21   -1    0    0  501  502  0.00000000000E+00  0.00000000000E+00  0.14492840034E+03  0.14492840034E+03  0.00000000000E+00 0.  1.
         21   -1    0    0  502  503 -0.00000000000E+00 -0.00000000000E+00 -0.50884982142E+03  0.50884982142E+03  0.00000000000E+00 0.  1.
         -6    2    1    2    0  503  0.64654528193E+02 -0.11360167546E+03 -0.38106311938E+03  0.43785181094E+03  0.17152130687E+03 0.  0.
        -24    2    3    3    0    0 -0.25409920157E+02 -0.41595649349E+02 -0.13192637339E+03  0.16328363934E+03  0.82952497211E+02 0.  0.
          6    2    1    2  501    0 -0.64654528193E+02  0.11360167546E+03  0.17141698295E+02  0.21592641082E+03  0.17101119374E+03 0.  0.
         24    2    5    5    0    0 -0.97473366188E+02  0.12774215530E+03  0.21530354243E+02  0.17961691346E+03  0.77327641166E+02 0.  0.
          5    1    5    5  501    0  0.32818837995E+02 -0.14140479839E+02 -0.43886559479E+01  0.36309497359E+02  0.47000000000E+01 0. -1.
        -13    1    6    6    0    0 -0.50540161541E+02  0.12028195446E+03  0.10922891796E+02  0.13092503986E+03  0.00000000000E+00 0.  1.
         14    1    6    6    0    0 -0.46933204647E+02  0.74602008478E+01  0.10607462447E+02  0.48691873600E+02  0.00000000000E+00 0. -1.
         -5    1    3    3    0  503  0.90064448349E+02 -0.72006026115E+02 -0.24913674599E+03  0.27456817160E+03  0.47000000000E+01 0.  1.
         13    1    4    4    0    0  0.15317483902E+02 -0.13318913195E+02  0.20747300903E+01  0.20404001244E+02  0.00000000000E+00 0. -1.
        -14    1    4    4    0    0 -0.40727404059E+02 -0.28276736153E+02 -0.13400110348E+03  0.14287963810E+03  0.00000000000E+00 0.  1.
</event>
<event>
12    1  0.1627564E-001  0.2153093E+03  0.7818608E-02  0.1137557E+00
         21   -1    0    0  503  502  0.00000000000E+00  0.00000000000E+00  0.19750153321E+03  0.19750153321E+03  0.00000000000E+00 0.  1.
         21   -1    0    0  501  503 -0.00000000000E+00 -0.00000000000E+00 -0.29659431671E+03  0.29659431671E+03  0.00000000000E+00 0.  1.
          6    2    1    2  501    0  0.73529120701E+02 -0.10482144177E+03 -0.16310107716E+03  0.27011122998E+03  0.17310126789E+03 0.  0.
         24    2    3    3    0    0  0.87287523747E+01 -0.11588272912E+03 -0.14238105761E+03  0.20102542085E+03  0.81448488225E+02 0.  0.
         -6    2    1    2    0  502 -0.73529120701E+02  0.10482144177E+03  0.64008293656E+02  0.22398461993E+03  0.17227298705E+03 0.  0.
        -24    2    5    5    0    0 -0.87120206050E+02  0.32162604422E+02  0.82713341836E+02  0.14759094826E+03  0.79480989324E+02 0.  0.
          5    1    3    3  501    0  0.64800368327E+02  0.11061287358E+02 -0.20720019547E+02  0.69085809131E+02  0.47000000000E+01 0. -1.
        -11    1    4    4    0    0  0.30386021906E+02 -0.48933084209E+02 -0.10869205445E+03  0.12301105543E+03  0.00000000000E+00 0.  1.
         12    1    4    4    0    0 -0.21657269532E+02 -0.66949644916E+02 -0.33689003162E+02  0.78014365420E+02  0.00000000000E+00 0. -1.
         -5    1    5    5    0  502  0.13591085348E+02  0.72658837345E+02 -0.18705048180E+02  0.76393671679E+02  0.47000000000E+01 0.  1.
         13    1    6    6    0    0 -0.63303583049E+02 -0.14487849042E+02  0.24825592480E+02  0.69523747301E+02  0.00000000000E+00 0. -1.
        -14    1    6    6    0    0 -0.23816623000E+02  0.46650453463E+02  0.57887749355E+02  0.78067200955E+02  0.00000000000E+00 0.  1.
</event>
<event>
12    1  0.1627564E-001  0.2034577E+03  0.7818608E-02  0.1146931E+00
         21   -1    0    0  501  502  0.00000000000E+00  0.00000000000E+00  0.34881353726E+03  0.34881353726E+03  0.00000000000E+00 0. -1.
         21   -1    0    0  502  503 -0.00000000000E+00 -0.00000000000E+00 -0.12415486867E+03  0.12415486867E+03  0.00000000000E+00 0. -1.
         -6    2    1    2    0  503 -0.55174107265E+02 -0.94010081482E+02  0.16289869964E+03  0.26034350414E+03  0.17134957330E+03 0.  0.
        -24    2    3    3    0    0  0.86026386879E+01  0.90845236366E+01  0.58344463876E+02  0.10018842572E+03  0.80480495899E+02 0.  0.
          6    2    1    2  501    0  0.55174107265E+02  0.94010081482E+02  0.61759968948E+02  0.21262490179E+03  0.17179341537E+03 0.  0.
         24    2    5    5    0    0  0.33504263174E+01  0.99326003076E+02  0.87469223307E+02  0.15434103876E+03  0.79331021532E+02 0.  0.
          5    1    5    5  501    0  0.51823680947E+02 -0.53159215943E+01 -0.25709254359E+02  0.58283863024E+02  0.47000000000E+01 0. -1.
        -13    1    6    6    0    0  0.21379417393E+02  0.99912637312E+02  0.89956911129E+02  0.13613177602E+03  0.00000000000E+00 0.  1.
         14    1    6    6    0    0 -0.18028991076E+02 -0.58663423655E+00 -0.24876878221E+01  0.18209262743E+02  0.00000000000E+00 0. -1.
         -5    1    3    3    0  503 -0.63776745953E+02 -0.10309460512E+03  0.10455423576E+03  0.16015507842E+03  0.47000000000E+01 0.  1.
         13    1    4    4    0    0  0.33045138803E+02 -0.23569741235E+02  0.27044151384E+02  0.48773968718E+02  0.00000000000E+00 0. -1.
        -14    1    4    4    0    0 -0.24442500115E+02  0.32654264872E+02  0.31300312492E+02  0.51414456997E+02  0.00000000000E+00 0.  1.
</event>
<event>
12    1  0.1627564E-001  0.2109441E+03  0.7818608E-02  0.1142876E+00
         21   -1    0    0  503  502  0.00000000000E+00  0.00000000000E+00  0.17936128613E+03  0.17936128613E+03  0.00000000000E+00 0. -1.
         21   -1    0    0  501  503 -0.00000000000E+00 -0.00000000000E+00 -0.37253652350E+03  0.37253652350E+03  0.00000000000E+00 0. -1.
          6    2    1    2  501    0 -0.25483343949E+00  0.12260560846E+03 -0.26193528695E+03  0.33002995969E+03  0.15898892911E+03 0.  0.
         24    2    3    3    0    0 -0.47909631402E+01  0.67197186174E+02 -0.25294878971E+03  0.27351874961E+03  0.79315830781E+02 0.  0.
         -6    2    1    2    0  502  0.25483343949E+00 -0.12260560846E+03  0.68760049572E+02  0.22186784994E+03  0.17165429867E+03 0.  0.
        -24    2    5    5    0    0  0.62762972137E+02 -0.10704661482E+03  0.56032185427E+02  0.15603899447E+03  0.76225937682E+02 0.  0.
          5    1    3    3  501    0  0.45361297007E+01  0.55408422285E+02 -0.89864972361E+01  0.56511210085E+02  0.47000000000E+01 0. -1.
        -11    1    4    4    0    0  0.18451814156E+02  0.50517637144E+02 -0.69634649727E+02  0.87985712197E+02  0.00000000000E+00 0.  1.
         12    1    4    4    0    0 -0.23242777296E+02  0.16679549030E+02 -0.18331413998E+03  0.18553303741E+03  0.00000000000E+00 0. -1.
         -5    1    5    5    0  502 -0.62508138698E+02 -0.15558993638E+02  0.12727864145E+02  0.65828855468E+02  0.47000000000E+01 0.  1.
         13    1    6    6    0    0  0.51940943141E+01 -0.74833615423E+02  0.49219424111E+02  0.89719564883E+02  0.00000000000E+00 0. -1.
        -14    1    6    6    0    0  0.57568877823E+02 -0.32212999398E+02  0.68127613163E+01  0.66319429587E+02  0.00000000000E+00 0.  1.
</event>
<event>
12    1  0.1627564E-001  0.1785565E+03  0.7818608E-02  0.1169479E+00
         21   -1    0    0  503  502  0.00000000000E+00  0.00000000000E+00  0.91052260013E+02  0.91052260013E+02  0.00000000000E+00 0. -1.
         21   -1    0    0  501  503 -0.00000000000E+00 -0.00000000000E+00 -0.85673190440E+03  0.85673190440E+03  0.00000000000E+00 0. -1.
          6    2    1    2  501    0 -0.39091379292E+02 -0.21816181790E+02 -0.74753510599E+03  0.76830812729E+03  0.17171069288E+03 0.  0.
         24    2    3    3    0    0 -0.58313356818E+02  0.43595833373E+02 -0.49696372519E+03  0.50858457613E+03  0.79901706234E+02 0.  0.
         -6    2    1    2    0  502  0.39091379292E+02  0.21816181790E+02 -0.18144538397E+02  0.17947603712E+03  0.17285352731E+03 0.  0.
        -24    2    5    5    0    0 -0.21999062387E+02  0.60240631584E+02  0.82860341153E+01  0.10247509187E+03  0.79495871924E+02 0.  0.
          5    1    3    3  501    0  0.19221977526E+02 -0.65412015163E+02 -0.25057138080E+03  0.25972355115E+03  0.47000000000E+01 0. -1.
        -11    1    4    4    0    0 -0.52257897982E+02  0.16896568756E+02 -0.45611691200E+03  0.45941160124E+03  0.00000000000E+00 0.  1.
         12    1    4    4    0    0 -0.60554588362E+01  0.26699264617E+02 -0.40846813183E+02  0.49172974895E+02  0.00000000000E+00 0. -1.
         -5    1    5    5    0  502  0.61090441678E+02 -0.38424449794E+02 -0.26430572512E+02  0.77000945252E+02  0.47000000000E+01 0.  1.
         11    1    6    6    0    0 -0.15371068551E+02  0.20307185207E+02  0.42450885842E+02  0.49504840453E+02  0.00000000000E+00 0. -1.
        -12    1    6    6    0    0 -0.66279938352E+01  0.39933446376E+02 -0.34164851727E+02  0.52970251418E+02  0.00000000000E+00 0.  1.
</event>
<event>
12    1  0.1627564E-001  0.1771145E+03  0.7818608E-02  0.1170855E+00
         21   -1    0    0  501  502  0.00000000000E+00  0.00000000000E+00  0.50723339963E+03  0.50723339963E+03  0.00000000000E+00 0.  1.
         21   -1    0    0  502  503 -0.00000000000E+00 -0.00000000000E+00 -0.64361746874E+02  0.64361746874E+02  0.00000000000E+00 0.  1.
         -6    2    1    2    0  503 -0.24985463987E+02 -0.31185183506E+02  0.16084149782E+03  0.23856276038E+03  0.17159666121E+03 0.  0.
        -24    2    3    3    0    0 -0.77165505198E+01 -0.24937297918E+02  0.78362153431E+01  0.84387671886E+02  0.79865254749E+02 0.  0.
          6    2    1    2  501    0  0.24985463987E+02  0.31185183506E+02  0.28203015493E+03  0.33303238612E+03  0.17254788562E+03 0.  0.
         24    2    5    5    0    0 -0.58445724334E+01  0.14842185205E+01  0.41743624773E+02  0.88916952271E+02  0.78277278059E+02 0.  0.
          5    1    5    5  501    0  0.30830036420E+02  0.29700964985E+02  0.24028653016E+03  0.24411543385E+03  0.47000000000E+01 0. -1.
        -11    1    6    6    0    0  0.88902886311E+00  0.39299211562E+02  0.27399625653E+02  0.47916154767E+02  0.00000000000E+00 0.  1.
         12    1    6    6    0    0 -0.67336012965E+01 -0.37814993042E+02  0.14343999121E+02  0.41000797504E+02  0.00000000000E+00 0. -1.
         -5    1    3    3    0  503 -0.17268913467E+02 -0.62478855880E+01  0.15300528248E+03  0.15417508849E+03  0.47000000000E+01 0.  1.
         11    1    4    4    0    0  0.73149815845E+01  0.14918515725E+02  0.31533771333E+02  0.35643369671E+02  0.00000000000E+00 0. -1.
        -12    1    4    4    0    0 -0.15031532104E+02 -0.39855813643E+02 -0.23697555990E+02  0.48744302215E+02  0.00000000000E+00 0.  1.
</event>
<event>
12    1  0.1627564E-001  0.1951225E+03  0.7818608E-02  0.1154466E+00
         21   -1    0    0  503  502  0.00000000000E+00  0.00000000000E+00  0.14417387785E+03  0.14417387785E+03  0.00000000000E+00 0. -1.
         21   -1    0    0  501  503 -0.00000000000E+00 -0.00000000000E+00 -0.58375744261E+03  0.58375744261E+03  0.00000000000E+00 0. -1.
          6    2    1    2  501    0 -0.39715092879E+02 -0.83600205321E+02 -0.48991091233E+03  0.52642292831E+03  0.16894411648E+03 0.  0.
         24    2    3    3    0    0 -0.40538614449E+02 -0.85079100850E+02 -0.20882874350E+03  0.24529637148E+03  0.87630092349E+02 0.  0.
         -6    2    1    2    0  502  0.39715092879E+02  0.83600205321E+02  0.50327347582E+02  0.20150839215E+03  0.17177458270E+03 0.  0.
        -24    2    5    5    0    0  0.74683024439E+02  0.10796370546E+03  0.38687438621E+02  0.15707964181E+03  0.77094618009E+02 0.  0.
          5    1    3    3  501    0  0.82352157073E+00  0.14788955285E+01 -0.28108216883E+03  0.28112655683E+03  0.47000000000E+01 0. -1.
        -11    1    4    4    0    0  0.24542276561E+02 -0.69015442694E+01 -0.58184203988E+02  0.63524453920E+02  0.00000000000E+00 0.  1.
         12    1    4    4    0    0 -0.65080891010E+02 -0.78177556581E+02 -0.15064453951E+03  0.18177191756E+03  0.00000000000E+00 0. -1.
         -5    1    5    5    0  502 -0.34967931560E+02 -0.24363500142E+02  0.11639908961E+02  0.44428750347E+02  0.47000000000E+01 0.  1.
         11    1    6    6    0    0  0.45169792523E+02  0.21069359226E+02  0.42105427940E+02  0.65246418421E+02  0.00000000000E+00 0. -1.
        -12    1    6    6    0    0  0.29513231916E+02  0.86894346238E+02 -0.34179893182E+01  0.91833223385E+02  0.00000000000E+00 0.  1.
</event>
<event>
12    1  0.1627564E-001  0.1951818E+03  0.7818608E-02  0.1153919E+00
         21   -1    0    0  503  502  0.00000000000E+00  0.00000000000E+00  0.68667343316E+02  0.68667343316E+02  0.00000000000E+00 0.  1.
         21   -1    0    0  501  503 -0.00000000000E+00 -0.00000000000E+00 -0.90174086339E+03  0.90174086339E+03  0.00000000000E+00 0.  1.
          6    2    1    2  501    0  0.42978608457E+02 -0.82009991583E+02 -0.71793292579E+03  0.74399167968E+03  0.17182297285E+03 0.  0.
         24    2    3    3    0    0  0.22547582348E+02 -0.98697994436E+02 -0.70008569303E+03  0.71179649395E+03  0.79275365887E+02 0.  0.
         -6    2    1    2    0  502 -0.42978608457E+02  0.82009991583E+02 -0.11514059428E+03  0.22641652702E+03  0.17156423798E+03 0.  0.
        -24    2    5    5    0    0 -0.25443704116E+01 -0.60981619740E+01 -0.78229718271E+01  0.81719822088E+02  0.81075699403E+02 0.  0.
          5    1    3    3  501    0  0.20431026109E+02  0.16688002853E+02 -0.17847232755E+02  0.32195185729E+02  0.47000000000E+01 0. -1.
        -11    1    4    4    0    0  0.46364832681E+02 -0.65975287215E+02 -0.56662115902E+03  0.57233030156E+03  0.00000000000E+00 0.  1.
         12    1    4    4    0    0 -0.23817250333E+02 -0.32722707221E+02 -0.13346453401E+03  0.13946619239E+03  0.00000000000E+00 0. -1.
         -5    1    5    5    0  502 -0.40434238045E+02  0.88108153557E+02 -0.10731762246E+03  0.14469670494E+03  0.47000000000E+01 0.  1.
         11    1    6    6    0    0 -0.30367057430E+02  0.11613644570E+02 -0.28126067574E+02  0.42989656830E+02  0.00000000000E+00 0. -1.
        -12    1    6    6    0    0  0.27822687019E+02 -0.17711806544E+02  0.20303095747E+02  0.38730165258E+02  0.00000000000E+00 0.  1.
</event>
<event>
12    1  0.1627564E-001  0.1923841E+03  0.7818608E-02  0.1156551E+00
         21   -1    0    0  503  502  0.00000000000E+00  0.00000000000E+00  0.43797906209E+03  0.43797906209E+03  0.00000000000E+00 0.  1.
         21   -1    0    0  501  503 -0.00000000000E+00 -0.00000000000E+00 -0.11445169141E+03  0.11445169141E+03  0.00000000000E+00 0. -1.
          6    2    1    2  501    0 -0.23896588810E+02 -0.80169765981E+02  0.19132332464E+02  0.19233635374E+03  0.17213073081E+03 0.  0.
         24    2    3    3    0    0  0.25007141800E+02 -0.10647975244E+03  0.77429411534E+01  0.13545403232E+03  0.79527020027E+02 0.  0.
         -6    2    1    2    0  502  0.23896588810E+02  0.80169765981E+02  0.30439503822E+03  0.36009439977E+03  0.17324375636E+03 0.  0.
        -24    2    5    5    0    0 -0.27933786839E+02 -0.90703731943E+01  0.10323176489E+03  0.13395518863E+03  0.80153771967E+02 0.  0.
          5    1    3    3  501    0 -0.48903730610E+02  0.26309986457E+02  0.11389391310E+02  0.56882321413E+02  0.47000000000E+01 0. -1.
        -13    1    4    4    0    0  0.82363034959E+01 -0.10132592101E+02  0.32113998712E+02  0.34667203971E+02  0.00000000000E+00 0.  1.
         14    1    4    4    0    0  0.16770838304E+02 -0.96347160337E+02 -0.24371057558E+02  0.10078682835E+03  0.00000000000E+00 0. -1.
         -5    1    5    5    0  502  0.51830375649E+02  0.89240139175E+02  0.20116327333E+03  0.22613921114E+03  0.47000000000E+01 0.  1.
         11    1    6    6    0    0 -0.50962118444E+02  0.84339420688E+01  0.43280287621E+02  0.67390297459E+02  0.00000000000E+00 0. -1.
        -12    1    6    6    0    0  0.23028331604E+02 -0.17504315263E+02  0.59951477269E+02  0.66564891167E+02  0.00000000000E+00 0.  1.
</event>
<event>
12    1  0.1627564E-001  0.1731370E+03  0.7818608E-02  0.1174917E+00
         21   -1    0    0  503  502  0.00000000000E+00  0.00000000000E+00  0.59572902981E+03  0.59572902981E+03  0.00000000000E+00 0. -1.
         21   -1    0    0  501  503 -0.00000000000E+00 -0.00000000000E+00 -0.55329248822E+02  0.55329248822E+02  0.00000000000E+00 0. -1.
          6    2    1    2  501    0  0.18614074810E+02 -0.15623604217E+02  0.37061832962E+03  0.40856673142E+03  0.17022998263E+03 0.  0.
         24    2    3    3    0    0 -0.34116143880E+02  0.24450281512E+02  0.11877672069E+03  0.14811965760E+03  0.77908895821E+02 0.  0.
         -6    2    1    2    0  502 -0.18614074810E+02  0.15623604217E+02  0.16978145137E+03  0.24249154721E+03  0.17142295193E+03 0.  0.
        -24    2    5    5    0    0 -0.41770040723E+02  0.54307623244E+02  0.53878330809E+02  0.11803964710E+03  0.79601692895E+02 0.  0.
          5    1    3    3  501    0  0.52730218690E+02 -0.40073885729E+02  0.25184160892E+03  0.26044707383E+03  0.47000000000E+01 0. -1.
        -11    1    4    4    0    0 -0.49430342941E+02 -0.40847042957E+01  0.42738422299E+02  0.65472256361E+02  0.00000000000E+00 0.  1.
         12    1    4    4    0    0  0.15314199060E+02  0.28534985808E+02  0.76038298395E+02  0.82647401234E+02  0.00000000000E+00 0. -1.
         -5    1    5    5    0  502  0.23155965913E+02 -0.38684019027E+02  0.11590312056E+03  0.12445190011E+03  0.47000000000E+01 0.  1.
         13    1    6    6    0    0 -0.46755378776E+02  0.21949754835E+02  0.65395556556E+02  0.83333282661E+02  0.00000000000E+00 0. -1.
        -14    1    6    6    0    0  0.49853380532E+01  0.32357868409E+02 -0.11517225748E+02  0.34706364436E+02  0.00000000000E+00 0.  1.
</event>
<event>
12    1  0.1627564E-001  0.2254168E+03  0.7818608E-02  0.1130390E+00
         21   -1    0    0  501  502  0.00000000000E+00  0.00000000000E+00  0.92791895333E+02  0.92791895333E+02  0.00000000000E+00 0. -1.
         21   -1    0    0  502  503 -0.00000000000E+00 -0.00000000000E+00 -0.58142459895E+03  0.58142459895E+03  0.00000000000E+00 0.  1.
         -6    2    1    2    0  503 -0.11192812591E+03 -0.92187828006E+02 -0.33436084998E+03  0.40324921320E+03  0.17258693156E+03 0.  0.
        -24    2    3    3    0    0 -0.25084471226E+02  0.15164807986E+02 -0.10837782465E+03  0.13837787358E+03  0.80891785268E+02 0.  0.
          6    2    1    2  501    0  0.11192812591E+03  0.92187828006E+02 -0.15427185364E+03  0.27096728108E+03  0.16910636177E+03 0.  0.
         24    2    5    5    0    0 -0.51497334993E+01  0.26163715161E+02 -0.77977844044E+02  0.11634103965E+03  0.82119629803E+02 0.  0.
          5    1    5    5  501    0  0.11707785941E+03  0.66024112844E+02 -0.76294009592E+02  0.15462624143E+03  0.47000000000E+01 0. -1.
        -13    1    6    6    0    0 -0.12997182764E+02  0.31117111210E+02 -0.92865011648E+02  0.98798338843E+02  0.00000000000E+00 0.  1.
         14    1    6    6    0    0  0.78474492643E+01 -0.49533960482E+01  0.14887167603E+02  0.17542700807E+02  0.00000000000E+00 0. -1.
         -5    1    3    3    0  503 -0.86843654681E+02 -0.10735263599E+03 -0.22598302534E+03  0.26487133962E+03  0.47000000000E+01 0.  1.
         13    1    4    4    0    0 -0.54842583514E+02  0.88946526210E+01 -0.72647749172E+02  0.91457745825E+02  0.00000000000E+00 0. -1.
        -14    1    4    4    0    0  0.29758112288E+02  0.62701553653E+01 -0.35730075474E+02  0.46920127756E+02  0.00000000000E+00 0.  1.
</event>
<event>
12    1  0.1627564E-001  0.2149219E+03  0.7818608E-02  0.1137979E+00
         21   -1    0    0  501  502  0.00000000000E+00  0.00000000000E+00  0.75583630936E+02  0.75583630936E+02  0.00000000000E+00 0. -1.
         21   -1    0    0  502  503 -0.00000000000E+00 -0.00000000000E+00 -0.78514267168E+03  0.78514267168E+03  0.00000000000E+00 0.  1.
         -6    2    1    2    0  503 -0.33529266786E+02  0.12269848359E+03 -0.56038072643E+03  0.60018163367E+03  0.17324059929E+03 0.  0.
        -24    2    3    3    0    0  0.19306980809E+02  0.23932797404E+02 -0.12977081191E+03  0.15521723251E+03  0.79412765619E+02 0.  0.
          6    2    1    2  501    0  0.33529266786E+02 -0.12269848359E+03 -0.14917831432E+03  0.26054466894E+03  0.17161067987E+03 0.  0.
         24    2    5    5    0    0  0.60066634528E+02 -0.92573287685E+02 -0.37175995242E+02  0.14147171318E+03  0.80339136366E+02 0.  0.
          5    1    5    5  501    0 -0.26537367742E+02 -0.30125195906E+02 -0.11200231908E+03  0.11907295576E+03  0.47000000000E+01 0. -1.
        -11    1    6    6    0    0 -0.30580248190E+01  0.79376712891E+01 -0.19757649124E+02  0.21510993473E+02  0.00000000000E+00 0.  1.
         12    1    6    6    0    0  0.63124659347E+02 -0.10051095897E+03 -0.17418346118E+02  0.11996071971E+03  0.00000000000E+00 0. -1.
         -5    1    3    3    0  503 -0.52836247595E+02  0.98765686187E+02 -0.43060991451E+03  0.44496440117E+03  0.47000000000E+01 0.  1.
         13    1    4    4    0    0 -0.25490117049E+02  0.16270653305E+02 -0.19589917903E+02  0.36031168585E+02  0.00000000000E+00 0. -1.
        -14    1    4    4    0    0  0.44797097858E+02  0.76621440989E+01 -0.11018089401E+03  0.11918606392E+03  0.00000000000E+00 0.  1.
</event>
<event>
12    1  0.1627564E-001  0.2118185E+03  0.7818608E-02  0.1141305E+00
         21   -1    0    0  503  502  0.00000000000E+00  0.00000000000E+00  0.81049947859E+03  0.81049947859E+03  0.00000000000E+00 0. -1.
         21   -1    0    0  501  503 -0.00000000000E+00 -0.00000000000E+00 -0.65691941205E+02  0.65691941205E+02  0.00000000000E+00 0.  1.
          6    2    1    2  501    0 -0.34773501416E+02 -0.11002687717E+03  0.56287432781E+03  0.60141050963E+03  0.17762877607E+03 0.  0.
         24    2    3    3    0    0 -0.85690762480E+01 -0.52868004157E+02  0.11959204837E+03  0.15366607592E+03  0.80265496460E+02 0.  0.
         -6    2    1    2    0  502  0.34773501416E+02  0.11002687717E+03  0.18193320958E+03  0.27478091016E+03  0.17055716269E+03 0.  0.
        -24    2    5    5    0    0  0.58366649202E+02  0.90983358906E+02  0.19879032490E+03  0.23977313178E+03  0.79302737105E+02 0.  0.
          5    1    3    3  501    0 -0.26204425168E+02 -0.57158873011E+02  0.44328227943E+03  0.44774443371E+03  0.47000000000E+01 0. -1.
        -11    1    4    4    0    0  0.40473859114E+01  0.16651096940E+02  0.30884754348E+01  0.17412037289E+02  0.00000000000E+00 0.  1.
         12    1    4    4    0    0 -0.12616462159E+02 -0.69519101097E+02  0.11650357294E+03  0.13625403863E+03  0.00000000000E+00 0. -1.
         -5    1    5    5    0  502 -0.23593147785E+02  0.19043518261E+02 -0.16857115326E+02  0.35007778383E+02  0.47000000000E+01 0.  1.
         11    1    6    6    0    0  0.54193107105E+02  0.97447815720E+02  0.13309902342E+03  0.17363271490E+03  0.00000000000E+00 0. -1.
        -12    1    6    6    0    0  0.41735420971E+01 -0.64644568140E+01  0.65691301480E+02  0.66140416884E+02  0.00000000000E+00 0.  1.
</event>
<event>
12    1  0.1627564E-001  0.2091798E+03  0.7818608E-02  0.1143609E+00
         21   -1    0    0  501  502  0.00000000000E+00  0.00000000000E+00  0.10786397226E+03  0.10786397226E+03  0.00000000000E+00 0.  1.
         21   -1    0    0  502  503 -0.00000000000E+00 -0.00000000000E+00 -0.54528357383E+03  0.54528357383E+03  0.00000000000E+00 0. -1.
         -6    2    1    2    0  503  0.11845240029E+03 -0.37697582398E+01 -0.39421663343E+03  0.44627675065E+03  0.17236879614E+03 0.  0.
        -24    2    3    3    0    0  0.31436103543E+02  0.36669027120E+02 -0.28823707776E+03  0.30323519206E+03  0.80858657889E+02 0.  0.
          6    2    1    2  501    0 -0.11845240029E+03  0.37697582398E+01 -0.43202968143E+02  0.20687079545E+03  0.16396294502E+03 0.  0.
         24    2    5    5    0    0 -0.44859761029E+02  0.16409485699E+02  0.36770293331E+02  0.97356176263E+02  0.76449337501E+02 0.  0.
          5    1    5    5  501    0 -0.73592639265E+02 -0.12639727459E+02 -0.79973261475E+02  0.10951461918E+03  0.47000000000E+01 0. -1.
        -13    1    6    6    0    0 -0.66505194811E+02  0.12792929139E+02  0.31973271070E+02  0.74892523230E+02  0.00000000000E+00 0.  1.
         14    1    6    6    0    0  0.21645433783E+02  0.36165565603E+01  0.47970222613E+01  0.22463653033E+02  0.00000000000E+00 0. -1.
         -5    1    3    3    0  503  0.87016296751E+02 -0.40438785360E+02 -0.10597955568E+03  0.14304155859E+03  0.47000000000E+01 0.  1.
         13    1    4    4    0    0  0.35705667889E+02  0.18185738573E+02 -0.27948626778E+03  0.28234409801E+03  0.00000000000E+00 0. -1.
        -14    1    4    4    0    0 -0.42695643462E+01  0.18483288547E+02 -0.87508099769E+01  0.20891094047E+02  0.00000000000E+00 0.  1.
</event>
<event>
12    1  0.1627564E-001  0.2301747E+03  0.7818608E-02  0.1126790E+00
         21   -1    0    0  501  502  0.00000000000E+00  0.00000000000E+00  0.79321098276E+03  0.79321098276E+03  0.00000000000E+00 0.  1.
         21   -1    0    0  502  503 -0.00000000000E+00 -0.00000000000E+00 -0.20010572545E+03  0.20010572545E+03  0.00000000000E+00 0. -1.
         -6    2    1    2    0  503 -0.13934509176E+03  0.62930693260E+02 -0.10984381355E+03  0.25364259539E+03  0.16997522193E+03 0.  0.
        -24    2    3    3    0    0 -0.84327199273E+02  0.88827029728E+01 -0.12962046426E+03  0.17388446313E+03  0.79021280765E+02 0.  0.
          6    2    1    2  501    0  0.13934509176E+03 -0.62930693260E+02  0.70294907086E+03  0.73967411282E+03  0.17205542774E+03 0.  0.
         24    2    5    5    0    0  0.11632817669E+03 -0.90606675160E+02  0.35948364587E+03  0.39429558640E+03  0.67072375319E+02 0.  0.
          5    1    5    5  501    0  0.23016915066E+02  0.27675981900E+02  0.34346542499E+03  0.34537852643E+03  0.47000000000E+01 0. -1.
        -11    1    6    6    0    0  0.55460663998E+01 -0.52611220729E+01  0.93299335179E+02  0.93611987495E+02  0.00000000000E+00 0.  1.
         12    1    6    6    0    0  0.11078211029E+03 -0.85345553087E+02  0.26618431069E+03  0.30068359890E+03  0.00000000000E+00 0. -1.
         -5    1    3    3    0  503 -0.55017892486E+02  0.54047990287E+02  0.19776650714E+02  0.79758132257E+02  0.47000000000E+01 0.  1.
         11    1    4    4    0    0 -0.86452748750E+02  0.14629423450E+02 -0.65433851281E+02  0.10940606332E+03  0.00000000000E+00 0. -1.
        -12    1    4    4    0    0  0.21255494770E+01 -0.57467204777E+01 -0.64186612979E+02  0.64478399813E+02  0.00000000000E+00 0.  1.
</event>
<event>
12    1  0.1627564E-001  0.1986269E+03  0.7818608E-02  0.1151104E+00
         21   -1    0    0  503  502  0.00000000000E+00  0.00000000000E+00  0.34222609713E+03  0.34222609713E+03  0.00000000000E+00 0. -1.
         21   -1    0    0  501  503 -0.00000000000E+00 -0.00000000000E+00 -0.11530083627E+03  0.11530083627E+03  0.00000000000E+00 0. -1.
          6    2    1    2  501    0 -0.16290318776E+02 -0.98133957351E+02  0.97729412114E+02  0.22136779289E+03  0.17192153346E+03 0.  0.
         24    2    3    3    0    0  0.20281475613E+02  0.11209548120E+02  0.45653721277E+02  0.94768164500E+02  0.79748043952E+02 0.  0.
         -6    2    1    2    0  502  0.16290318776E+02  0.98133957351E+02  0.12919584874E+03  0.23615914050E+03  0.17083303029E+03 0.  0.
        -24    2    5    5    0    0 -0.55251123400E+02  0.56119164979E+02  0.94512785726E+02  0.14611234385E+03  0.78829582297E+02 0.  0.
          5    1    3    3  501    0 -0.36571794389E+02 -0.10934350547E+03  0.52075690836E+02  0.12659962839E+03  0.47000000000E+01 0. -1.
        -11    1    4    4    0    0 -0.47142213202E+00  0.12149018445E+02  0.65152147399E+02  0.66276867750E+02  0.00000000000E+00 0.  1.
         12    1    4    4    0    0  0.20752897745E+02 -0.93947032497E+00 -0.19498426122E+02  0.28491296751E+02  0.00000000000E+00 0. -1.
         -5    1    5    5    0  502  0.71541442176E+02  0.42014792372E+02  0.34683063017E+02  0.90046796650E+02  0.47000000000E+01 0.  1.
         11    1    6    6    0    0 -0.19626728147E+02  0.27271477522E+02 -0.73643867797E+01  0.34397327463E+02  0.00000000000E+00 0. -1.
        -12    1    6    6    0    0 -0.35624395253E+02  0.28847687457E+02  0.10187717251E+03  0.11171501639E+03  0.00000000000E+00 0.  1.
</event>
<event>
12    1  0.1627564E-001  0.1750317E+03  0.7818608E-02  0.1173218E+00
         21   -1    0    0  501  502  0.00000000000E+00  0.00000000000E+00  0.85901993980E+03  0.85901993980E+03  0.00000000000E+00 0. -1.
         21   -1    0    0  502  503 -0.00000000000E+00 -0.00000000000E+00 -0.35613054505E+02  0.35613054505E+02  0.00000000000E+00 0. -1.
         -6    2    1    2    0  503 -0.20057791340E+02 -0.99381835133E+01  0.36876961464E+03  0.40819987749E+03  0.17359443774E+03 0.  0.
        -24    2    3    3    0    0 -0.30836817446E+02 -0.58212223152E+02  0.30959468580E+03  0.33093195070E+03  0.96579057167E+02 0.  0.
          6    2    1    2  501    0  0.20057791340E+02  0.99381835133E+01  0.45463727066E+03  0.48643311682E+03  0.17152564468E+03 0.  0.
         24    2    5    5    0    0 -0.47242330939E+02 -0.22976891649E+02  0.29988792727E+03  0.31443847181E+03  0.78606667989E+02 0.  0.
          5    1    5    5  501    0  0.67300122279E+02  0.32915075162E+02  0.15474934339E+03  0.17199464501E+03  0.47000000000E+01 0. -1.
        -13    1    6    6    0    0 -0.51039902102E+02 -0.35525239440E+02  0.13066214022E+03  0.14470559468E+03  0.00000000000E+00 0.  1.
         14    1    6    6    0    0  0.37975711628E+01  0.12548347791E+02  0.16922578704E+03  0.16973287713E+03  0.00000000000E+00 0. -1.
         -5    1    3    3    0  503  0.10779026106E+02  0.48274039639E+02  0.59174928839E+02  0.77267926787E+02  0.47000000000E+01 0.  1.
         11    1    4    4    0    0 -0.51509823289E+02 -0.35129841002E+01  0.90740187435E+02  0.10440011766E+03  0.00000000000E+00 0. -1.
        -12    1    4    4    0    0  0.20673005843E+02 -0.54699239052E+02  0.21885449836E+03  0.22653183303E+03  0.00000000000E+00 0.  1.
</event>
<event>
12    1  0.1627564E-001  0.1838590E+03  0.7818608E-02  0.1165019E+00
         21   -1    0    0  501  502  0.00000000000E+00  0.00000000000E+00  0.18729307553E+04  0.18729307553E+04  0.00000000000E+00 0.  1.
         21   -1    0    0  502  503 -0.00000000000E+00 -0.00000000000E+00 -0.49612601380E+02  0.49612601380E+02  0.00000000000E+00 0.  1.
         -6    2    1    2    0  503 -0.55352166728E+02 -0.25138776424E+02  0.14384397425E+03  0.23344215082E+03  0.17351751615E+03 0.  0.
        -24    2    3    3    0    0 -0.71250947166E+02  0.39571317649E+02  0.10819089794E+03  0.15772293698E+03  0.80800172026E+02 0.  0.
          6    2    1    2  501    0  0.55352166728E+02  0.25138776424E+02  0.16794741796E+04  0.16891012058E+04  0.16950971364E+03 0.  0.
         24    2    5    5    0    0  0.78373727015E+02  0.39031213064E+02  0.16119504932E+04  0.16162689996E+04  0.79216222270E+02 0.  0.
          5    1    5    5  501    0 -0.23021560287E+02 -0.13892436640E+02  0.67523686470E+02  0.72832206258E+02  0.47000000000E+01 0. -1.
        -11    1    6    6    0    0  0.92081610377E+02  0.19365548903E+02  0.12788379741E+04  0.12822950563E+04  0.00000000000E+00 0.  1.
         12    1    6    6    0    0 -0.13707883362E+02  0.19665664160E+02  0.33311251906E+03  0.33397394325E+03  0.00000000000E+00 0. -1.
         -5    1    3    3    0  503  0.15898780438E+02 -0.64710094073E+02  0.35653076309E+02  0.75719213841E+02  0.47000000000E+01 0.  1.
         13    1    4    4    0    0 -0.43849447281E+02 -0.11096120182E+02  0.83680521032E+02  0.95122697134E+02  0.00000000000E+00 0. -1.
        -14    1    4    4    0    0 -0.27401499885E+02  0.50667437832E+02  0.24510376910E+02  0.62600239845E+02  0.00000000000E+00 0.  1.
</event>
<event>
12    1  0.1627564E-001  0.1833281E+03  0.7818608E-02  0.1166105E+00
         21   -1    0    0  501  502  0.00000000000E+00  0.00000000000E+00  0.41944474541E+03  0.41944474541E+03  0.00000000000E+00 0. -1.
         21   -1    0    0  502  503 -0.00000000000E+00 -0.00000000000E+00 -0.35803911522E+03  0.35803911522E+03  0.00000000000E+00 0. -1.
         -6    2    1    2    0  503 -0.27147474824E+02  0.51493654784E+02 -0.31353479481E+03  0.36012368979E+03  0.16732131519E+03 0.  0.
        -24    2    3    3    0    0 -0.77809467908E+02  0.33367389906E+02 -0.15870796972E+03  0.19614614624E+03  0.78213777724E+02 0.  0.
          6    2    1    2  501    0  0.27147474824E+02 -0.51493654784E+02  0.37494042500E+03  0.41736017084E+03  0.17384075480E+03 0.  0.
         24    2    5    5    0    0  0.12251494660E+02 -0.10209059683E+03  0.28771707693E+03  0.31532124092E+03  0.77934456673E+02 0.  0.
          5    1    5    5  501    0  0.14895980164E+02  0.50596942048E+02  0.87223348068E+02  0.10203892991E+03  0.47000000000E+01 0. -1.
        -11    1    6    6    0    0 -0.15821678149E+02 -0.95891377055E+02  0.18929901336E+03  0.21279003302E+03  0.00000000000E+00 0.  1.
         12    1    6    6    0    0  0.28073172809E+02 -0.61992197766E+01  0.98418063567E+02  0.10253120790E+03  0.00000000000E+00 0. -1.
         -5    1    3    3    0  503  0.50661993084E+02  0.18126264877E+02 -0.15482682509E+03  0.16397754355E+03  0.47000000000E+01 0.  1.
         11    1    4    4    0    0 -0.53405255971E+02  0.54413202361E+02 -0.77215784141E+02  0.10851357186E+03  0.00000000000E+00 0. -1.
        -12    1    4    4    0    0 -0.24404211937E+02 -0.21045812455E+02 -0.81492185584E+02  0.87632574385E+02  0.00000000000E+00 0.  1.
</event>
<event>
12    1  0.1627564E-001  0.1990910E+03  0.7818608E-02  0.1150532E+00
         21   -1    0    0  501  502  0.00000000000E+00  0.00000000000E+00  0.73161357726E+03  0.73161357726E+03  0.00000000000E+00 0. -1.
         21   -1    0    0  502  503 -0.00000000000E+00 -0.00000000000E+00 -0.61512072126E+02  0.61512072126E+02  0.00000000000E+00 0.  1.
         -6    2    1    2    0  503  0.88878620858E+02 -0.43074050147E+02  0.19791330452E+03  0.28072567165E+03  0.17286539149E+03 0.  0.
        -24    2    3    3    0    0  0.16291680260E+02 -0.25579028789E+02  0.18653886040E+03  0.20505264015E+03  0.79562134416E+02 0.  0.
          6    2    1    2  501    0 -0.88878620858E+02  0.43074050147E+02  0.47218820061E+03  0.51239997774E+03  0.17273464432E+03 0.  0.
         24    2    5    5    0    0 -0.74718389395E+02 -0.37625735112E+02  0.23732166728E+03  0.26360820542E+03  0.78544118465E+02 0.  0.
          5    1    5    5  501    0 -0.14160231463E+02  0.80699785259E+02  0.23486653333E+03  0.24879177232E+03  0.47000000000E+01 0. -1.
        -11    1    6    6    0    0 -0.35883295043E+02  0.21798226673E+02  0.11148769552E+03  0.11913135524E+03  0.00000000000E+00 0.  1.
         12    1    6    6    0    0 -0.38835094353E+02 -0.59423961785E+02  0.12583397176E+03  0.14447685018E+03  0.00000000000E+00 0. -1.
         -5    1    3    3    0  503  0.72586940598E+02 -0.17495021358E+02  0.11374444124E+02  0.75673031503E+02  0.47000000000E+01 0.  1.
         11    1    4    4    0    0 -0.22738146017E+02 -0.25747259661E+02  0.36927230610E+02  0.50433768696E+02  0.00000000000E+00 0. -1.
        -12    1    4    4    0    0  0.39029826277E+02  0.16823087182E+00  0.14961162979E+03  0.15461887145E+03  0.00000000000E+00 0.  1.
</event>
<event>
12    1  0.1627564E-001  0.1796295E+03  0.7818608E-02  0.1168757E+00
         21   -1    0    0  501  502  0.00000000000E+00  0.00000000000E+00  0.99280680009E+02  0.99280680009E+02  0.00000000000E+00 0.  1.
         21   -1    0    0  502  503 -0.00000000000E+00 -0.00000000000E+00 -0.34043678558E+03  0.34043678558E+03  0.00000000000E+00 0.  1.
         -6    2    1    2    0  503 -0.45094613900E+02 -0.20757703764E+02 -0.66756604405E+02  0.18935381492E+03  0.17010001918E+03 0.  0.
        -24    2    3    3    0    0  0.44119378679E+01 -0.15462434337E+02 -0.10057921280E+03  0.12898000119E+03  0.79127179837E+02 0.  0.
          6    2    1    2  501    0  0.45094613900E+02  0.20757703764E+02 -0.17439950116E+03  0.25036365066E+03  0.17263361520E+03 0.  0.
         24    2    5    5    0    0  0.33076036040E+01 -0.26493703270E+02 -0.16575600174E+03  0.18652283473E+03  0.81257979354E+02 0.  0.
          5    1    5    5  501    0  0.41787010296E+02  0.47251407034E+02 -0.86434994208E+01  0.63840815929E+02  0.47000000000E+01 0. -1.
        -11    1    6    6    0    0  0.24526775277E+02  0.11757899124E+02 -0.12069600634E+03  0.12372282265E+03  0.00000000000E+00 0.  1.
         12    1    6    6    0    0 -0.21219171673E+02 -0.38251602395E+02 -0.45059995398E+02  0.62800012082E+02  0.00000000000E+00 0. -1.
         -5    1    3    3    0  503 -0.49506551768E+02 -0.52952694264E+01  0.33822608391E+02  0.60373813733E+02  0.47000000000E+01 0.  1.
         13    1    4    4    0    0 -0.33429090166E+02 -0.16788404740E+02 -0.73361421005E+02  0.82348361823E+02  0.00000000000E+00 0. -1.
        -14    1    4    4    0    0  0.37841028033E+02  0.13259704031E+01 -0.27217791791E+02  0.46631639368E+02  0.00000000000E+00 0.  1.
</event>
<event>
12    1  0.1627564E-001  0.1857986E+03  0.7818608E-02  0.1162543E+00
         21   -1    0    0  501  502  0.00000000000E+00  0.00000000000E+00  0.62654369075E+02  0.62654369075E+02  0.00000000000E+00 0.  1.
         21   -1    0    0  502  503 -0.00000000000E+00 -0.00000000000E+00 -0.57139356372E+03  0.57139356372E+03  0.00000000000E+00 0.  1.
         -6    2    1    2    0  503 -0.13037473278E+02 -0.70009902207E+02 -0.31924123952E+03  0.36937255312E+03  0.17160930009E+03 0.  0.
        -24    2    3    3    0    0 -0.35509840727E+02 -0.10771899242E+03 -0.26738289261E+03  0.30126703993E+03  0.80024296139E+02 0.  0.
          6    2    1    2  501    0  0.13037473278E+02  0.70009902207E+02 -0.18949795513E+03  0.26467537967E+03  0.17050577554E+03 0.  0.
         24    2    5    5    0    0  0.11486524943E+02 -0.27620531057E+02 -0.58583593498E+02  0.10129004673E+03  0.77024685317E+02 0.  0.
          5    1    5    5  501    0  0.15509483354E+01  0.97630433264E+02 -0.13091436163E+03  0.16338533294E+03  0.47000000000E+01 0. -1.
        -13    1    6    6    0    0  0.30992103370E+01 -0.49524584788E+02 -0.59917559604E+02  0.77797195014E+02  0.00000000000E+00 0.  1.
         14    1    6    6    0    0  0.83873146057E+01  0.21904053731E+02  0.13339661060E+01  0.23492851715E+02  0.00000000000E+00 0. -1.
         -5    1    3    3    0  503  0.22472367449E+02  0.37709090210E+02 -0.51858346906E+02  0.68105513192E+02  0.47000000000E+01 0.  1.
         11    1    4    4    0    0 -0.21142868736E+02 -0.90501220101E+02 -0.11797265107E+03  0.15018334841E+03  0.00000000000E+00 0. -1.
        -12    1    4    4    0    0 -0.14366971991E+02 -0.17217772316E+02 -0.14941024154E+03  0.15108369152E+03  0.00000000000E+00 0.  1.
</event>
<event>
12    1  0.1627564E-001  0.1872755E+03  0.7818608E-02  0.1161486E+00
         21   -1    0    0  503  502  0.00000000000E+00  0.00000000000E+00  0.19977914248E+03  0.19977914248E+03  0.00000000000E+00 0. -1.
         21   -1    0    0  501  503 -0.00000000000E+00 -0.00000000000E+00 -0.52614131923E+03  0.52614131923E+03  0.00000000000E+00 0. -1.
          6    2    1    2  501    0  0.73999843909E+02 -0.62180361953E+01 -0.46004899850E+03  0.49582424810E+03  0.16935750090E+03 0.  0.
         24    2    3    3    0    0  0.10953200427E+03  0.93021832306E+01 -0.29901795098E+03  0.33012421824E+03  0.86524412082E+02 0.  0.
         -6    2    1    2    0  502 -0.73999843909E+02  0.62180361953E+01  0.13368682176E+03  0.23009621361E+03  0.17192283250E+03 0.  0.
        -24    2    5    5    0    0 -0.84499988453E+02  0.55334626627E+02  0.12699036611E+03  0.17920785532E+03  0.76070581515E+02 0.  0.
          5    1    3    3  501    0 -0.35532160363E+02 -0.15520219426E+02 -0.16103104752E+03  0.16570002986E+03  0.47000000000E+01 0. -1.
        -11    1    4    4    0    0 -0.11713232669E+02 -0.36863390837E+01 -0.81709231926E+01  0.14749674614E+02  0.00000000000E+00 0.  1.
         12    1    4    4    0    0  0.12124523694E+03  0.12988522314E+02 -0.29084702779E+03  0.31537454362E+03  0.00000000000E+00 0. -1.
         -5    1    5    5    0  502  0.10500144544E+02 -0.49116590432E+02  0.66964556467E+01  0.50888358289E+02  0.47000000000E+01 0.  1.
         11    1    6    6    0    0 -0.77732801725E+02  0.18807228024E+02  0.51643070598E+02  0.95200352052E+02  0.00000000000E+00 0. -1.
        -12    1    6    6    0    0 -0.67671867281E+01  0.36527398603E+02  0.75347295510E+02  0.84007503270E+02  0.00000000000E+00 0.  1.
</event>
<event>
12    1  0.1627564E-001  0.2281433E+03  0.7818608E-02  0.1128389E+00
         21   -1    0    0  503  502  0.00000000000E+00  0.00000000000E+00  0.18462093272E+03  0.18462093272E+03  0.00000000000E+00 0. -1.
         21   -1    0    0  501  503 -0.00000000000E+00 -0.00000000000E+00 -0.28028528588E+03  0.28028528588E+03  0.00000000000E+00 0. -1.
          6    2    1    2  501    0  0.13405370905E+02  0.14542658014E+03 -0.31384312419E+02  0.22788025768E+03  0.17209254079E+03 0.  0.
         24    2    3    3    0    0 -0.30193692933E+02  0.18086531737E+02 -0.38032224197E+01  0.90405995289E+02  0.83186523910E+02 0.  0.
         -6    2    1    2    0  502 -0.13405370905E+02 -0.14542658014E+03 -0.64280040743E+02  0.23702596092E+03  0.17527346727E+03 0.  0.
        -24    2    5    5    0    0 -0.31827844467E+02 -0.79048581132E+02  0.29233934922E+02  0.12078319800E+03  0.80450407747E+02 0.  0.
          5    1    3    3  501    0  0.43599063838E+02  0.12734004841E+03 -0.27581089999E+02  0.13747426239E+03  0.47000000000E+01 0. -1.
        -11    1    4    4    0    0  0.16207744542E+02  0.18448761369E+02  0.25598154816E+02  0.35472712177E+02  0.00000000000E+00 0.  1.
         12    1    4    4    0    0 -0.46401437475E+02 -0.36222963139E+00 -0.29401377236E+02  0.54933283112E+02  0.00000000000E+00 0. -1.
         -5    1    5    5    0  502  0.18422473562E+02 -0.66377999011E+02 -0.93513975665E+02  0.11624276291E+03  0.47000000000E+01 0.  1.
         13    1    6    6    0    0  0.29108207731E+01 -0.31698366328E+02  0.49333994183E+02  0.58712028473E+02  0.00000000000E+00 0. -1.
        -14    1    6    6    0    0 -0.34738665240E+02 -0.47350214803E+02 -0.20100059261E+02  0.62071169530E+02  0.00000000000E+00 0.  1.
</event>
<event>
12    1  0.1627564E-001  0.2030135E+03  0.7818608E-02  0.1148303E+00
         21   -1    0    0  503  502  0.00000000000E+00  0.00000000000E+00  0.11148407595E+03  0.11148407595E+03  0.00000000000E+00 0. -1.
         21   -1    0    0  501  503 -0.00000000000E+00 -0.00000000000E+00 -0.36170730525E+03  0.36170730525E+03  0.00000000000E+00 0. -1.
          6    2    1    2  501    0  0.10852300493E+03  0.36456576066E+01 -0.10903199480E+03  0.22590721967E+03  0.16539517100E+03 0.  0.
         24    2    3    3    0    0  0.12857774091E+03 -0.32122841427E+02 -0.74874927530E+02  0.17233135567E+03  0.80794362287E+02 0.  0.
         -6    2    1    2    0  502 -0.10852300493E+03 -0.36456576066E+01 -0.14119123450E+03  0.24728416153E+03  0.17153413195E+03 0.  0.
        -24    2    5    5    0    0 -0.83279885490E+02  0.53282177730E+02 -0.13323503389E+03  0.18432874363E+03  0.80318003459E+02 0.  0.
          5    1    3    3  501    0 -0.20054735977E+02  0.35768499033E+02 -0.34157067272E+02  0.53575863996E+02  0.47000000000E+01 0. -1.
        -11    1    4    4    0    0 -0.11479732259E+02 -0.22410326357E+01 -0.86679702275E+01  0.14558165677E+02  0.00000000000E+00 0.  1.
         12    1    4    4    0    0  0.14005747316E+03 -0.29881808791E+02 -0.66206957303E+02  0.15777318999E+03  0.00000000000E+00 0. -1.
         -5    1    5    5    0  502 -0.25243119438E+02 -0.56927835337E+02 -0.79562006065E+01  0.62955417902E+02  0.47000000000E+01 0.  1.
         11    1    6    6    0    0 -0.67718350934E+02  0.45367189019E+02 -0.42491714092E+02  0.91921176337E+02  0.00000000000E+00 0. -1.
        -12    1    6    6    0    0 -0.15561534557E+02  0.79149887114E+01 -0.90743319799E+02  0.92407567289E+02  0.00000000000E+00 0.  1.
</event>
<event>
12    1  0.1627564E-001  0.2293514E+03  0.7818608E-02  0.1127463E+00
         21   -1    0    0  501  502  0.00000000000E+00  0.00000000000E+00  0.20532262141E+04  0.20532262141E+04  0.00000000000E+00 0. -1.
         21   -1    0    0  502  503 -0.00000000000E+00 -0.00000000000E+00 -0.25462552827E+02  0.25462552827E+02  0.00000000000E+00 0. -1.
         -6    2    1    2    0  503 -0.13606744536E+03 -0.60981198650E+02  0.10649578958E+04  0.10889428261E+04  0.17154621051E+03 0.  0.
        -24    2    3    3    0    0 -0.72680674228E+02 -0.94110436268E+02  0.86671078227E+03  0.87813619153E+03  0.76133672976E+02 0.  0.
          6    2    1    2  501    0  0.13606744536E+03  0.60981198650E+02  0.96280576549E+03  0.98974594088E+03  0.17426712009E+03 0.  0.
         24    2    5    5    0    0  0.10655745839E+03 -0.24779383367E+02  0.65296947204E+03  0.66687392986E+03  0.79894913058E+02 0.  0.
          5    1    5    5  501    0  0.29509986972E+02  0.85760582017E+02  0.30983629345E+03  0.32287201102E+03  0.47000000000E+01 0. -1.
        -11    1    6    6    0    0  0.11929535797E+03 -0.27006776020E+02  0.60095423143E+03  0.61327541664E+03  0.00000000000E+00 0.  1.
         12    1    6    6    0    0 -0.12737899574E+02  0.22273926528E+01  0.52015240614E+02  0.53598513223E+02  0.00000000000E+00 0. -1.
         -5    1    3    3    0  503 -0.63386771135E+02  0.33129237618E+02  0.19824711355E+03  0.21080663455E+03  0.47000000000E+01 0.  1.
         11    1    4    4    0    0 -0.36732092360E+02 -0.15574842830E+02  0.49130946257E+03  0.49292677991E+03  0.00000000000E+00 0. -1.
        -12    1    4    4    0    0 -0.35948581868E+02 -0.78535593438E+02  0.37540131970E+03  0.38520941163E+03  0.00000000000E+00 0.  1.
</event>
<event>
12    1  0.1627564E-001  0.2465186E+03  0.7818608E-02  0.1115760E+00
         21   -1    0    0  501  502  0.00000000000E+00  0.00000000000E+00  0.20522989835E+03  0.20522989835E+03  0.00000000000E+00 0. -1.
         21   -1    0    0  502  503 -0.00000000000E+00 -0.00000000000E+00 -0.29728296824E+03  0.29728296824E+03  0.00000000000E+00 0. -1.
         -6    2    1    2    0  503 -0.12649908455E+03 -0.12243229081E+03 -0.70789863925E+02  0.25507892879E+03  0.17047689244E+03 0.  0.
        -24    2    3    3    0    0 -0.13048679614E+03 -0.11901728849E+03 -0.10286235876E+02  0.19416634313E+03  0.80017768218E+02 0.  0.
          6    2    1    2  501    0  0.12649908455E+03  0.12243229081E+03 -0.21263205967E+02  0.24743393780E+03  0.17256808924E+03 0.  0.
         24    2    5    5    0    0  0.55216074354E+02  0.93400015081E+02 -0.74134591777E+02  0.15393733886E+03  0.80177234379E+02 0.  0.
          5    1    5    5  501    0  0.71283010191E+02  0.29032275730E+02  0.52871385810E+02  0.93496598941E+02  0.47000000000E+01 0. -1.
        -13    1    6    6    0    0 -0.16963203207E+02  0.49813056013E+01 -0.22626086962E+02  0.28714168624E+02  0.00000000000E+00 0.  1.
         14    1    6    6    0    0  0.72179277561E+02  0.88418709480E+02 -0.51508504815E+02  0.12522317023E+03  0.00000000000E+00 0. -1.
         -5    1    3    3    0  503  0.39877115961E+01 -0.34150023229E+01 -0.60503628049E+02  0.60912585660E+02  0.47000000000E+01 0.  1.
         11    1    4    4    0    0 -0.98737679878E+02 -0.12606612480E+03 -0.16762775599E+02  0.16100555238E+03  0.00000000000E+00 0. -1.
        -12    1    4    4    0    0 -0.31749116264E+02  0.70488363121E+01  0.64765397229E+01  0.33160790758E+02  0.00000000000E+00 0.  1.
</event>
<event>
12    1  0.1627564E-001  0.1953216E+03  0.7818608E-02  0.1153904E+00
         21   -1    0    0  503  502  0.00000000000E+00  0.00000000000E+00  0.10230088438E+04  0.10230088438E+04  0.00000000000E+00 0. -1.
         21   -1    0    0  501  503 -0.00000000000E+00 -0.00000000000E+00 -0.97290143434E+02  0.97290143434E+02  0.00000000000E+00 0. -1.
          6    2    1    2  501    0 -0.13702359321E+02  0.90806513460E+02  0.22148945584E+02  0.19585925892E+03  0.17157125626E+03 0.  0.
         24    2    3    3    0    0  0.28344577546E+02 -0.24723234781E+01  0.37312408076E+02  0.92317446518E+02  0.79503255755E+02 0.  0.
         -6    2    1    2    0  502  0.13702359321E+02 -0.90806513460E+02  0.90356975474E+03  0.92443972827E+03  0.17238599708E+03 0.  0.
        -24    2    5    5    0    0 -0.41376375713E+02 -0.62412080501E+02  0.76024724774E+03  0.76822403799E+03  0.81148152152E+02 0.  0.
          5    1    3    3  501    0 -0.42046936867E+02  0.93278836938E+02 -0.15163462492E+02  0.10354181240E+03  0.47000000000E+01 0. -1.
        -11    1    4    4    0    0  0.19741431318E+02 -0.22440399038E+02 -0.16598082192E+02  0.34187599388E+02  0.00000000000E+00 0.  1.
         12    1    4    4    0    0  0.86031462277E+01  0.19968075560E+02  0.53910490267E+02  0.58129847131E+02  0.00000000000E+00 0. -1.
         -5    1    5    5    0  502  0.55078735035E+02 -0.28394432959E+02  0.14332250700E+03  0.15621569028E+03  0.47000000000E+01 0.  1.
         13    1    6    6    0    0 -0.51990482066E+02 -0.23137456243E+02  0.25173455756E+03  0.25808649631E+03  0.00000000000E+00 0. -1.
        -14    1    6    6    0    0  0.10614106352E+02 -0.39274624257E+02  0.50851269017E+03  0.51013754168E+03  0.00000000000E+00 0.  1.
</event>
<event>
12    1  0.1627564E-001  0.2008854E+03  0.7818608E-02  0.1149086E+00
         21   -1    0    0  501  502  0.00000000000E+00  0.00000000000E+00  0.22956423598E+04  0.22956423598E+04  0.00000000000E+00 0. -1.
         21   -1    0    0  502  503 -0.00000000000E+00 -0.00000000000E+00 -0.17542264401E+02  0.17542264401E+02  0.00000000000E+00 0. -1.
         -6    2    1    2    0  503  0.43445605836E+00 -0.10334101062E+03  0.11491314910E+04  0.11664828151E+04  0.17175395502E+03 0.  0.
        -24    2    3    3    0    0 -0.13570566687E+02 -0.13935303745E+03  0.90313051208E+03  0.91742142031E+03  0.80086898265E+02 0.  0.
          6    2    1    2  501    0 -0.43445605836E+00  0.10334101062E+03  0.11289686044E+04  0.11467018091E+04  0.17226542333E+03 0.  0.
         24    2    5    5    0    0  0.39017123639E+02  0.53599383141E+02  0.96780723245E+03  0.97342245531E+03  0.80654866632E+02 0.  0.
          5    1    5    5  501    0 -0.39451579697E+02  0.49741627479E+02  0.16116137194E+03  0.17327935379E+03  0.47000000000E+01 0. -1.
        -11    1    6    6    0    0  0.35648398466E+02 -0.11181448537E+02  0.45442422175E+03  0.45595746119E+03  0.00000000000E+00 0.  1.
         12    1    6    6    0    0  0.33687251733E+01  0.64780831679E+02  0.51338301070E+03  0.51746499412E+03  0.00000000000E+00 0. -1.
         -5    1    3    3    0  503  0.14005022745E+02  0.36012026829E+02  0.24600097896E+03  0.24906139482E+03  0.47000000000E+01 0.  1.
         13    1    4    4    0    0 -0.35219352488E+02 -0.21048543411E+02  0.22916620822E+03  0.23281021232E+03  0.00000000000E+00 0. -1.
        -14    1    4    4    0    0  0.21648785802E+02 -0.11830449404E+03  0.67396430386E+03  0.68461120799E+03  0.00000000000E+00 0.  1.
</event>
<event>
12    1  0.1627564E-001  0.3039466E+03  0.7818608E-02  0.1083311E+00
         21   -1    0    0  501  502  0.00000000000E+00  0.00000000000E+00  0.47080360868E+03  0.47080360868E+03  0.00000000000E+00 0. -1.
         21   -1    0    0  502  503 -0.00000000000E+00 -0.00000000000E+00 -0.62503275894E+03  0.62503275894E+03  0.00000000000E+00 0. -1.
         -6    2    1    2    0  503 -0.24166399263E+03  0.65035766284E+02 -0.53102970195E+03  0.61186279597E+03  0.17248884169E+03 0.  0.
        -24    2    3    3    0    0 -0.20408469763E+03  0.46612606533E+02 -0.52352601272E+03  0.56908416135E+03  0.77162152670E+02 0.  0.
          6    2    1    2  501    0  0.24166399263E+03 -0.65035766284E+02  0.37680055168E+03  0.48397357165E+03  0.17210643823E+03 0.  0.
         24    2    5    5    0    0  0.17317311738E+03  0.21545174149E+02  0.25986590394E+03  0.32309143752E+03  0.80029156311E+02 0.  0.
          5    1    5    5  501    0  0.68490875249E+02 -0.86580940433E+02  0.11693464775E+03  0.16088213413E+03  0.47000000000E+01 0. -1.
        -11    1    6    6    0    0  0.25208033734E+02  0.18967170025E+02  0.10173642929E+03  0.10651525500E+03  0.00000000000E+00 0.  1.
         12    1    6    6    0    0  0.14796508364E+03  0.25780041233E+01  0.15812947465E+03  0.21657618252E+03  0.00000000000E+00 0. -1.
         -5    1    3    3    0  503 -0.37579295000E+02  0.18423159751E+02 -0.75036892263E+01  0.42778634619E+02  0.47000000000E+01 0.  1.
         11    1    4    4    0    0 -0.41825093396E+02  0.29023370706E+02 -0.20440183094E+03  0.21064615586E+03  0.00000000000E+00 0. -1.
        -12    1    4    4    0    0 -0.16225960423E+03  0.17589235827E+02 -0.31912418178E+03  0.35843800549E+03  0.00000000000E+00 0.  1.
</event>
<event>
12    1  0.1627564E-001  0.2018423E+03  0.7818608E-02  0.1148493E+00
         21   -1    0    0  501  502  0.00000000000E+00  0.00000000000E+00  0.11350769473E+03  0.11350769473E+03  0.00000000000E+00 0.  1.
         21   -1    0    0  502  503 -0.00000000000E+00 -0.00000000000E+00 -0.40564723302E+03  0.40564723302E+03  0.00000000000E+00 0. -1.
         -6    2    1    2    0  503 -0.24786322268E+02 -0.98986495559E+02 -0.23607271735E+03  0.30967027503E+03  0.17248960342E+03 0.  0.
        -24    2    3    3    0    0 -0.27822965645E+02  0.40828873338E+00 -0.55528613637E+02  0.10349848324E+03  0.82790246906E+02 0.  0.
          6    2    1    2  501    0  0.24786322268E+02  0.98986495559E+02 -0.56066820951E+02  0.20948465272E+03  0.17414833688E+03 0.  0.
         24    2    5    5    0    0  0.31853682781E+02 -0.14849416226E+02 -0.29733678959E+02  0.92334805245E+02  0.80040379348E+02 0.  0.
          5    1    5    5  501    0 -0.70673605137E+01  0.11383591179E+03 -0.26333141992E+02  0.11714984748E+03  0.47000000000E+01 0. -1.
        -13    1    6    6    0    0  0.30529980852E+02  0.47765464795E+01  0.21373461422E+02  0.37572862284E+02  0.00000000000E+00 0.  1.
         14    1    6    6    0    0  0.13237019296E+01 -0.19625962705E+02 -0.51107140381E+02  0.54761942960E+02  0.00000000000E+00 0. -1.
         -5    1    3    3    0  503  0.30366433773E+01 -0.99394784293E+02 -0.18054410371E+03  0.20617179179E+03  0.47000000000E+01 0.  1.
         13    1    4    4    0    0  0.29182328645E+02  0.61129252984E+01 -0.22659958217E+02  0.37449297286E+02  0.00000000000E+00 0. -1.
        -14    1    4    4    0    0 -0.57005294290E+02 -0.57046365650E+01 -0.32868655420E+02  0.66049185949E+02  0.00000000000E+00 0.  1.
</event>
<event>
12    1  0.1627564E-001  0.1823128E+03  0.7818608E-02  0.1165611E+00
         21   -1    0    0  503  502  0.00000000000E+00  0.00000000000E+00  0.19599344226E+03  0.19599344226E+03  0.00000000000E+00 0.  1.
         21   -1    0    0  501  503 -0.00000000000E+00 -0.00000000000E+00 -0.73256153940E+03  0.73256153940E+03  0.00000000000E+00 0. -1.
          6    2    1    2  501    0 -0.51178068887E+02  0.27553336535E+02 -0.67534776106E+03  0.69952310053E+03  0.17279927291E+03 0.  0.
         24    2    3    3    0    0 -0.22340348645E+02  0.78377884077E+01 -0.11394738318E+03  0.13701728614E+03  0.72313266149E+02 0.  0.
         -6    2    1    2    0  502  0.51178068887E+02 -0.27553336535E+02  0.13877966392E+03  0.22903188114E+03  0.17267723177E+03 0.  0.
        -24    2    5    5    0    0 -0.25915739070E+02 -0.50539083918E+02  0.52140653337E+02  0.11070940668E+03  0.79448728508E+02 0.  0.
          5    1    3    3  501    0 -0.28837720242E+02  0.19715548127E+02 -0.56140037787E+03  0.56250581439E+03  0.47000000000E+01 0. -1.
        -13    1    4    4    0    0 -0.35244673728E+02 -0.22573637954E+02 -0.75511020677E+02  0.86334641948E+02  0.00000000000E+00 0.  1.
         14    1    4    4    0    0  0.12904325082E+02  0.30411426362E+02 -0.38436362506E+02  0.50682644188E+02  0.00000000000E+00 0. -1.
         -5    1    5    5    0  502  0.77093807957E+02  0.22985747383E+02  0.86639010578E+02  0.11832247446E+03  0.47000000000E+01 0.  1.
         11    1    6    6    0    0 -0.18542125326E+02  0.12463224900E+02 -0.75752380114E+01  0.23590816379E+02  0.00000000000E+00 0. -1.
        -12    1    6    6    0    0 -0.73736137446E+01 -0.63002308818E+02  0.59715891349E+02  0.87118590298E+02  0.00000000000E+00 0.  1.
</event>
<event>
12    1  0.1627564E-001  0.2637516E+03  0.7818608E-02  0.1104920E+00
         21   -1    0    0  501  502  0.00000000000E+00  0.00000000000E+00  0.37901474872E+03  0.37901474872E+03  0.00000000000E+00 0.  1.
         21   -1    0    0  502  503 -0.00000000000E+00 -0.00000000000E+00 -0.19735969599E+03  0.19735969599E+03  0.00000000000E+00 0. -1.
         -6    2    1    2    0  503 -0.11302651763E+03 -0.16486407568E+03  0.14435145603E+02  0.26408063509E+03  0.17197398427E+03 0.  0.
        -24    2    3    3    0    0 -0.19504404064E+02 -0.10468396899E+03 -0.41336922404E+02  0.13957905062E+03  0.80214805845E+02 0.  0.
          6    2    1    2  501    0  0.11302651763E+03  0.16486407568E+03  0.16721990713E+03  0.31229380961E+03  0.17207489372E+03 0.  0.
         24    2    5    5    0    0  0.14644693562E+03  0.16453187590E+03  0.16182810647E+03  0.27811492418E+03  0.51401671828E+02 0.  0.
          5    1    5    5  501    0 -0.33420417992E+02  0.33219977779E+00  0.53918006578E+01  0.34178885438E+02  0.47000000000E+01 0. -1.
        -11    1    6    6    0    0  0.39819519058E+02  0.47592414616E+02  0.75898403236E+02  0.98036725979E+02  0.00000000000E+00 0.  1.
         12    1    6    6    0    0  0.10662741657E+03  0.11693946128E+03  0.85929703232E+02  0.18007819820E+03  0.00000000000E+00 0. -1.
         -5    1    3    3    0  503 -0.93522113567E+02 -0.60180106687E+02  0.55772068008E+02  0.12450158447E+03  0.47000000000E+01 0.  1.
         13    1    4    4    0    0  0.24104458549E+02 -0.74389176265E+02 -0.12609677974E+02  0.79207186832E+02  0.00000000000E+00 0. -1.
        -14    1    4    4    0    0 -0.43608862612E+02 -0.30294792724E+02 -0.28727244430E+02  0.60371863787E+02  0.00000000000E+00 0.  1.
</event>
<event>
12    1  0.1627564E-001  0.2929733E+03  0.7818608E-02  0.1088810E+00
         21   -1    0    0  501  502  0.00000000000E+00  0.00000000000E+00  0.13981607460E+04  0.13981607460E+04  0.00000000000E+00 0. -1.
         21   -1    0    0  502  503 -0.00000000000E+00 -0.00000000000E+00 -0.92547544858E+02  0.92547544858E+02  0.00000000000E+00 0.  1.
         -6    2    1    2    0  503 -0.64212135544E+02 -0.22851233009E+03  0.22031554067E+03  0.36656825029E+03  0.17173311069E+03 0.  0.
        -24    2    3    3    0    0  0.32022513258E+02 -0.78655299415E+02  0.92432928261E+02  0.14726414675E+03  0.77011591406E+02 0.  0.
          6    2    1    2  501    0  0.64212135544E+02  0.22851233009E+03  0.10852976605E+04  0.11241400406E+04  0.17169372623E+03 0.  0.
         24    2    5    5    0    0  0.88772672446E+02  0.23766262745E+03  0.96700249385E+03  0.10028850021E+04  0.79500895608E+02 0.  0.
          5    1    5    5  501    0 -0.24560536902E+02 -0.91502973647E+01  0.11829516667E+03  0.12125503854E+03  0.47000000000E+01 0. -1.
        -11    1    6    6    0    0  0.46046038185E+02  0.20537051545E+03  0.71935201491E+03  0.74950957806E+03  0.00000000000E+00 0.  1.
         12    1    6    6    0    0  0.42726634260E+02  0.32292112005E+02  0.24765047894E+03  0.25337542401E+03  0.00000000000E+00 0. -1.
         -5    1    3    3    0  503 -0.96234648802E+02 -0.14985703067E+03  0.12788261240E+03  0.21930410353E+03  0.47000000000E+01 0.  1.
         11    1    4    4    0    0  0.24852231575E+02 -0.45831859737E+02  0.10004523489E+03  0.11281507791E+03  0.00000000000E+00 0. -1.
        -12    1    4    4    0    0  0.71702816829E+01 -0.32823439679E+02 -0.76123066262E+01  0.34449068840E+02  0.00000000000E+00 0.  1.
</event>
<event>
12    1  0.1627564E-001  0.1739606E+03  0.7818608E-02  0.1175418E+00
         21   -1    0    0  501  502  0.00000000000E+00  0.00000000000E+00  0.71614556714E+02  0.71614556714E+02  0.00000000000E+00 0.  1.
         21   -1    0    0  502  503 -0.00000000000E+00 -0.00000000000E+00 -0.63076537670E+03  0.63076537670E+03  0.00000000000E+00 0.  1.
         -6    2    1    2    0  503 -0.24297262253E+02 -0.14664695599E+02 -0.48523273896E+03  0.51336621288E+03  0.16519275808E+03 0.  0.
        -24    2    3    3    0    0 -0.41558953369E+02 -0.32940546598E+02 -0.15831296642E+03  0.18544762484E+03  0.80719266632E+02 0.  0.
          6    2    1    2  501    0  0.24297262253E+02  0.14664695599E+02 -0.73918081029E+02  0.18901372053E+03  0.17163010691E+03 0.  0.
         24    2    5    5    0    0  0.54023754415E+02 -0.45276988260E+02 -0.43761052378E+02  0.11547321348E+03  0.80314765887E+02 0.  0.
          5    1    5    5  501    0 -0.29726492162E+02  0.59941683860E+02 -0.30157028651E+02  0.73540507050E+02  0.47000000000E+01 0. -1.
        -13    1    6    6    0    0  0.55749230066E+02 -0.26363172498E+01 -0.46593057132E+02  0.72703781157E+02  0.00000000000E+00 0.  1.
         14    1    6    6    0    0 -0.17254756507E+01 -0.42640671011E+02  0.28320047542E+01  0.42769432325E+02  0.00000000000E+00 0. -1.
         -5    1    3    3    0  503  0.17261691116E+02  0.18275850999E+02 -0.32691977254E+03  0.32791858805E+03  0.47000000000E+01 0.  1.
         11    1    4    4    0    0 -0.21918289478E+02 -0.59571733439E+02 -0.10556847949E+03  0.12318241230E+03  0.00000000000E+00 0. -1.
        -12    1    4    4    0    0 -0.19640663891E+02  0.26631186840E+02 -0.52744486936E+02  0.62265212541E+02  0.00000000000E+00 0.  1.
</event>
<event>
12    1  0.1627564E-001  0.1771256E+03  0.7818608E-02  0.1171871E+00
         21   -1    0    0  501  502  0.00000000000E+00  0.00000000000E+00  0.27201073996E+03  0.27201073996E+03  0.00000000000E+00 0.  1.
         21   -1    0    0  502  503 -0.00000000000E+00 -0.00000000000E+00 -0.32078859422E+03  0.32078859422E+03  0.00000000000E+00 0.  1.
         -6    2    1    2    0  503 -0.46705430184E+01 -0.44281909598E+02 -0.26356809740E+03  0.31755570987E+03  0.17143740960E+03 0.  0.
        -24    2    3    3    0    0  0.80283414012E+00  0.41292863919E+02 -0.49700430046E+02  0.87089944814E+02  0.58384763317E+02 0.  0.
          6    2    1    2  501    0  0.46705430184E+01  0.44281909598E+02  0.21479024314E+03  0.27524362431E+03  0.16625733874E+03 0.  0.
         24    2    5    5    0    0  0.46386063181E+01 -0.36021429121E+02  0.14007520254E+03  0.16545722023E+03  0.80224493362E+02 0.  0.
          5    1    5    5  501    0  0.31936700277E-01  0.80303338719E+02  0.74715040603E+02  0.10978640408E+03  0.47000000000E+01 0. -1.
        -11    1    6    6    0    0 -0.11808581498E+02  0.14556756146E+02  0.91590952299E+02  0.93489273661E+02  0.00000000000E+00 0.  1.
         12    1    6    6    0    0  0.16447187816E+02 -0.50578185266E+02  0.48484250236E+02  0.71967946565E+02  0.00000000000E+00 0. -1.
         -5    1    3    3    0  503 -0.54733771585E+01 -0.85574773517E+02 -0.21386766736E+03  0.23046576505E+03  0.47000000000E+01 0.  1.
         13    1    4    4    0    0  0.25591045389E+02  0.36949234656E+02 -0.39839442415E+02  0.60061041597E+02  0.00000000000E+00 0. -1.
        -14    1    4    4    0    0 -0.24788211248E+02  0.43436292638E+01 -0.98609876303E+01  0.27028903217E+02  0.00000000000E+00 0.  1.
</event>
<event>
12    1  0.1627564E-001  0.1913263E+03  0.7818608E-02  0.1157451E+00
         21   -1    0    0  503  502  0.00000000000E+00  0.00000000000E+00  0.54478836631E+02  0.54478836631E+02  0.00000000000E+00 0.  1.
         21   -1    0    0  501  503 -0.00000000000E+00 -0.00000000000E+00 -0.99455839972E+03  0.99455839972E+03  0.00000000000E+00 0. -1.
          6    2    1    2  501    0  0.26142902413E+02 -0.79829831380E+02 -0.16931752995E+03  0.25488369518E+03  0.17100005496E+03 0.  0.
         24    2    3    3    0    0  0.82477665557E+00 -0.11667287088E+03 -0.14988099121E+03  0.20591139597E+03  0.79510706272E+02 0.  0.
         -6    2    1    2    0  502 -0.26142902413E+02  0.79829831380E+02 -0.77076203314E+03  0.79415354117E+03  0.17189962741E+03 0.  0.
        -24    2    5    5    0    0 -0.70764987286E+02  0.53233914702E+02 -0.67054762668E+03  0.68117792210E+03  0.80794237502E+02 0.  0.
          5    1    3    3  501    0  0.25318125757E+02  0.36843039496E+02 -0.19436538745E+02  0.48972299206E+02  0.47000000000E+01 0. -1.
        -13    1    4    4    0    0 -0.42413273412E+00 -0.78869610945E+02 -0.37491994019E+02  0.87328374740E+02  0.00000000000E+00 0.  1.
         14    1    4    4    0    0  0.12489093897E+01 -0.37803259930E+02 -0.11238899719E+03  0.11858302123E+03  0.00000000000E+00 0. -1.
         -5    1    5    5    0  502  0.44622084873E+02  0.26595916678E+02 -0.10021440646E+03  0.11297561907E+03  0.47000000000E+01 0.  1.
         13    1    6    6    0    0 -0.23334789164E+02 -0.12918818909E+02 -0.32837996912E+03  0.32946139742E+03  0.00000000000E+00 0. -1.
        -14    1    6    6    0    0 -0.47430198122E+02  0.66152733611E+02 -0.34216765756E+03  0.35171652469E+03  0.00000000000E+00 0.  1.
</event>
<event>
12    1  0.1627564E-001  0.1968215E+03  0.7818608E-02  0.1152702E+00
         21   -1    0    0  501  502  0.00000000000E+00  0.00000000000E+00  0.42827481379E+02  0.42827481379E+02  0.00000000000E+00 0. -1.
         21   -1    0    0  502  503 -0.00000000000E+00 -0.00000000000E+00 -0.13343862866E+04  0.13343862866E+04  0.00000000000E+00 0.  1.
         -6    2    1    2    0  503  0.50762415957E+01 -0.95433977340E+02 -0.10403524494E+04  0.10588068371E+04  0.17206186974E+03 0.  0.
        -24    2    3    3    0    0  0.54153939790E+02 -0.17659017854E+02 -0.38412328723E+03  0.39614827639E+03  0.78347093008E+02 0.  0.
          6    2    1    2  501    0 -0.50762415957E+01  0.95433977340E+02 -0.25120635586E+03  0.31840693094E+03  0.17071885715E+03 0.  0.
         24    2    5    5    0    0 -0.12808578881E+02 -0.74633762929E+01 -0.16341093361E+03  0.18284225784E+03  0.80674632628E+02 0.  0.
          5    1    5    5  501    0  0.77323372848E+01  0.10289735363E+03 -0.87795422252E+02  0.13556467310E+03  0.47000000000E+01 0. -1.
        -13    1    6    6    0    0  0.19410344163E+02  0.18663597471E+02 -0.11925879490E+03  0.12226099743E+03  0.00000000000E+00 0.  1.
         14    1    6    6    0    0 -0.32218923043E+02 -0.26126973764E+02 -0.44152138704E+02  0.60581260405E+02  0.00000000000E+00 0. -1.
         -5    1    3    3    0  503 -0.49077698195E+02 -0.77774959486E+02 -0.65622916216E+03  0.66265856069E+03  0.47000000000E+01 0.  1.
         11    1    4    4    0    0  0.17728333881E+02  0.29227301054E+02 -0.94266951459E+02  0.10027356125E+03  0.00000000000E+00 0. -1.
        -12    1    4    4    0    0  0.36425605910E+02 -0.46886318908E+02 -0.28985633577E+03  0.29587471513E+03  0.00000000000E+00 0.  1.
</event>
<event>
12    1  0.1627564E-001  0.2411161E+03  0.7818608E-02  0.1119313E+00
         21   -1    0    0  503  502  0.00000000000E+00  0.00000000000E+00  0.85009147353E+02  0.85009147353E+02  0.00000000000E+00 0. -1.
         21   -1    0    0  501  503 -0.00000000000E+00 -0.00000000000E+00 -0.71868420920E+03  0.71868420920E+03  0.00000000000E+00 0. -1.
          6    2    1    2  501    0 -0.12611952264E+02  0.16498917796E+03 -0.41171654031E+03  0.47712417878E+03  0.17537526118E+03 0.  0.
         24    2    3    3    0    0 -0.44217903598E+01  0.45933323044E+01 -0.12684938077E+03  0.15006868710E+03  0.79932437191E+02 0.  0.
         -6    2    1    2    0  502  0.12611952264E+02 -0.16498917796E+03 -0.22195852154E+03  0.32656917777E+03  0.17320898476E+03 0.  0.
        -24    2    5    5    0    0  0.58284124271E+01 -0.17446442604E+03 -0.12542560701E+03  0.22922191111E+03  0.79619691612E+02 0.  0.
          5    1    3    3  501    0 -0.81901619045E+01  0.16039584565E+03 -0.28486715954E+03  0.32705549168E+03  0.47000000000E+01 0. -1.
        -13    1    4    4    0    0  0.36334363824E+02 -0.83989617925E+01 -0.55051691370E+02  0.66493738626E+02  0.00000000000E+00 0.  1.
         14    1    4    4    0    0 -0.40756154184E+02  0.12992294097E+02 -0.71797689398E+02  0.83574948475E+02  0.00000000000E+00 0. -1.
         -5    1    5    5    0  502  0.67835398372E+01  0.94752480846E+01 -0.96532914532E+02  0.97347266665E+02  0.47000000000E+01 0.  1.
         13    1    6    6    0    0 -0.18853638997E+02 -0.75627177075E+02 -0.95043457632E+02  0.12291537111E+03  0.00000000000E+00 0. -1.
        -14    1    6    6    0    0  0.24682051424E+02 -0.98837248967E+02 -0.30382149374E+02  0.10630654000E+03  0.00000000000E+00 0.  1.
</event>
<event>
12    1  0.1627564E-001  0.1748124E+03  0.7818608E-02  0.1173042E+00
         21   -1    0    0  503  502  0.00000000000E+00  0.00000000000E+00  0.51968765026E+02  0.51968765026E+02  0.00000000000E+00 0.  1.
         21   -1    0    0  501  503 -0.00000000000E+00 -0.00000000000E+00 -0.64010963364E+03  0.64010963364E+03  0.00000000000E+00 0.  1.
          6    2    1    2  501    0 -0.17883381580E+01 -0.28628315431E+02 -0.39468072091E+03  0.43166218799E+03  0.17244301809E+03 0.  0.
         24    2    3    3    0    0 -0.65739627008E+02  0.40328066815E+01 -0.22877469587E+03  0.25082133147E+03  0.78965288334E+02 0.  0.
         -6    2    1    2    0  502  0.17883381580E+01  0.28628315431E+02 -0.19346014770E+03  0.26041621067E+03  0.17195056101E+03 0.  0.
        -24    2    5    5    0    0  0.29578660715E+02 -0.26339935993E+02 -0.17366409342E+03  0.19554877310E+03  0.80693344948E+02 0.  0.
          5    1    3    3  501    0  0.63951288850E+02 -0.32661122112E+02 -0.16590602504E+03  0.18084085653E+03  0.47000000000E+01 0. -1.
        -11    1    4    4    0    0 -0.38861893697E+02  0.37603419653E+02 -0.84919172238E+02  0.10067536821E+03  0.00000000000E+00 0.  1.
         12    1    4    4    0    0 -0.26877733311E+02 -0.33570612972E+02 -0.14385552363E+03  0.15014596325E+03  0.00000000000E+00 0. -1.
         -5    1    5    5    0  502 -0.27790322557E+02  0.54968251423E+02 -0.19796054286E+02  0.64867437576E+02  0.47000000000E+01 0.  1.
         11    1    6    6    0    0 -0.17243856258E+02 -0.36831068179E+02 -0.95980651493E+02  0.10424089228E+03  0.00000000000E+00 0. -1.
        -12    1    6    6    0    0  0.46822516973E+02  0.10491132186E+02 -0.77683441924E+02  0.91307880818E+02  0.00000000000E+00 0.  1.
</event>
<event>
12    1  0.1627564E-001  0.2000115E+03  0.7818608E-02  0.1150569E+00
         21   -1    0    0  503  502  0.00000000000E+00  0.00000000000E+00  0.17713431055E+03  0.17713431055E+03  0.00000000000E+00 0.  1.
         21   -1    0    0  501  503 -0.00000000000E+00 -0.00000000000E+00 -0.22426041136E+03  0.22426041136E+03  0.00000000000E+00 0. -1.
          6    2    1    2  501    0 -0.85888414785E+02  0.44176236811E+02 -0.46383473945E+02  0.20531935075E+03  0.17514636578E+03 0.  0.
         24    2    3    3    0    0 -0.24957036804E+02  0.79728700032E+02  0.72783112857E+01  0.11655963208E+03  0.80954646079E+02 0.  0.
         -6    2    1    2    0  502  0.85888414785E+02 -0.44176236811E+02 -0.74262687069E+00  0.19607537116E+03  0.17063598679E+03 0.  0.
        -24    2    5    5    0    0 -0.55328667930E+01  0.96759603510E+01 -0.21324555187E+02  0.87892120896E+02  0.84534321066E+02 0.  0.
          5    1    3    3  501    0 -0.60931377982E+02 -0.35552463221E+02 -0.53661785230E+02  0.88759718668E+02  0.47000000000E+01 0. -1.
        -13    1    4    4    0    0 -0.49328083124E+02  0.75209212574E+02 -0.23379349921E+01  0.89973059194E+02  0.00000000000E+00 0.  1.
         14    1    4    4    0    0  0.24371046320E+02  0.45194874578E+01  0.96162462778E+01  0.26586572891E+02  0.00000000000E+00 0. -1.
         -5    1    5    5    0  502  0.91421281578E+02 -0.53852197162E+02  0.20581928316E+02  0.10818325026E+03  0.47000000000E+01 0.  1.
         13    1    6    6    0    0  0.39548424734E+02  0.36729521632E+01 -0.81897787033E+01  0.40554173050E+02  0.00000000000E+00 0. -1.
        -14    1    6    6    0    0 -0.45081291527E+02  0.60030081879E+01 -0.13134776483E+02  0.47337947846E+02  0.00000000000E+00 0.  1.
</event>
<event>
12    1  0.1627564E-001  0.2093399E+03  0.7818608E-02  0.1142110E+00
         21   -1    0    0  503  502  0.00000000000E+00  0.00000000000E+00  0.13274260120E+04  0.13274260120E+04  0.00000000000E+00 0. -1.
         21   -1    0    0  501  503 -0.00000000000E+00 -0.00000000000E+00 -0.39729191721E+02  0.39729191721E+02  0.00000000000E+00 0. -1.
          6    2    1    2  501    0  0.56554260267E+02 -0.10510643020E+03  0.36233127540E+03  0.41840624172E+03  0.17185483394E+03 0.  0.
         24    2    3    3    0    0  0.11527244256E+02 -0.47889764734E+02  0.32136702448E+03  0.33473223840E+03  0.79640442452E+02 0.  0.
         -6    2    1    2    0  502 -0.56554260267E+02  0.10510643020E+03  0.92536554485E+03  0.94874896198E+03  0.17198097347E+03 0.  0.
        -24    2    5    5    0    0 -0.21129590086E+02  0.13477758766E+03  0.78736701196E+03  0.80314343350E+03  0.80505313742E+02 0.  0.
          5    1    3    3  501    0  0.45027016011E+02 -0.57216665462E+02  0.40964250920E+02  0.83674003316E+02  0.47000000000E+01 0. -1.
        -11    1    4    4    0    0 -0.74964206727E+01 -0.53055846741E+02  0.30328666942E+03  0.30798364087E+03  0.00000000000E+00 0.  1.
         12    1    4    4    0    0  0.19023664929E+02  0.51660820068E+01  0.18080355060E+02  0.26748597528E+02  0.00000000000E+00 0. -1.
         -5    1    5    5    0  502 -0.35424670182E+02 -0.29671157469E+02  0.13799853290E+03  0.14560552848E+03  0.47000000000E+01 0.  1.
         13    1    6    6    0    0 -0.21908623393E+02  0.13883322101E+03  0.78645313070E+03  0.79891374868E+03  0.00000000000E+00 0. -1.
        -14    1    6    6    0    0  0.77903330685E+00 -0.40556333459E+01  0.91388125324E+00  0.42296848198E+01  0.00000000000E+00 0.  1.
</event>
<event>
12    1  0.1627564E-001  0.2042248E+03  0.7818608E-02  0.1146800E+00
         21   -1    0    0  501  502  0.00000000000E+00  0.00000000000E+00  0.15609834771E+03  0.15609834771E+03  0.00000000000E+00 0.  1.
         21   -1    0    0  502  503 -0.00000000000E+00 -0.00000000000E+00 -0.43126024391E+03  0.43126024391E+03  0.00000000000E+00 0.  1.
         -6    2    1    2    0  503  0.62916296190E+02 -0.90562533494E+02 -0.32129701539E+03  0.38070925924E+03  0.17189454665E+03 0.  0.
        -24    2    3    3    0    0  0.47012654220E+02 -0.61637072729E+02 -0.84644379398E+02  0.14171936775E+03  0.83128754598E+02 0.  0.
          6    2    1    2  501    0 -0.62916296190E+02  0.90562533494E+02  0.46135119187E+02  0.20664933238E+03  0.16856887184E+03 0.  0.
         24    2    5    5    0    0 -0.79432149875E+02  0.59843409447E+02 -0.40832422798E+01  0.14532713548E+03  0.10588958093E+03 0.  0.
          5    1    5    5  501    0  0.16515853685E+02  0.30719124047E+02  0.50218361467E+02  0.61322196908E+02  0.47000000000E+01 0. -1.
        -11    1    6    6    0    0 -0.46047022803E+02  0.85092567661E+02 -0.22913239787E+02  0.99428818446E+02  0.00000000000E+00 0.  1.
         12    1    6    6    0    0 -0.33385127072E+02 -0.25249158213E+02  0.18829997508E+02  0.45898317030E+02  0.00000000000E+00 0. -1.
         -5    1    3    3    0  503  0.15903641970E+02 -0.28925460765E+02 -0.23665263600E+03  0.23898989149E+03  0.47000000000E+01 0.  1.
         11    1    4    4    0    0 -0.93915112092E+01  0.12328271443E+02  0.65536011470E+00  0.15511810224E+02  0.00000000000E+00 0. -1.
        -12    1    4    4    0    0  0.56404165429E+02 -0.73965344172E+02 -0.85299739513E+02  0.12620755753E+03  0.00000000000E+00 0.  1.
</event>
<event>
12    1  0.1627564E-001  0.1836609E+03  0.7818608E-02  0.1164412E+00
         21   -1    0    0  503  502  0.00000000000E+00  0.00000000000E+00  0.63937312571E+03  0.63937312571E+03  0.00000000000E+00 0.  1.
         21   -1    0    0  501  503 -0.00000000000E+00 -0.00000000000E+00 -0.56278224240E+02  0.56278224240E+02  0.00000000000E+00 0.  1.
          6    2    1    2  501    0  0.19214878350E+02  0.60002546246E+02  0.20263196490E+03  0.27317841489E+03  0.17203841447E+03 0.  0.
         24    2    3    3    0    0 -0.51785371159E+02  0.14561657560E+02  0.12864059720E+03  0.16091656790E+03  0.80324168465E+02 0.  0.
         -6    2    1    2    0  502 -0.19214878350E+02 -0.60002546246E+02  0.38046293657E+03  0.42247293506E+03  0.17251613736E+03 0.  0.
        -24    2    5    5    0    0 -0.23210396540E+02 -0.42020873372E+02  0.84863972673E+02  0.12626330966E+03  0.80225016059E+02 0.  0.
          5    1    3    3  501    0  0.71000249508E+02  0.45440888686E+02  0.73991367696E+02  0.11226184698E+03  0.47000000000E+01 0. -1.
        -11    1    4    4    0    0 -0.19315904400E+02 -0.21398417220E+02  0.65469205136E+01  0.29561099278E+02  0.00000000000E+00 0.  1.
         12    1    4    4    0    0 -0.32469466758E+02  0.35960074780E+02  0.12209367669E+03  0.13135546862E+03  0.00000000000E+00 0. -1.
         -5    1    5    5    0  502  0.39955181901E+01 -0.17981672875E+02  0.29559896390E+03  0.29620962540E+03  0.47000000000E+01 0.  1.
         13    1    6    6    0    0  0.13614662565E+02 -0.46978271811E+02  0.71799452181E+02  0.86876224553E+02  0.00000000000E+00 0. -1.
        -14    1    6    6    0    0 -0.36825059106E+02  0.49573984395E+01  0.13064520492E+02  0.39387085105E+02  0.00000000000E+00 0.  1.
</event>
<event>
12    1  0.1627564E-001  0.2020642E+03  0.7818608E-02  0.1148858E+00
         21   -1    0    0  503  502  0.00000000000E+00  0.00000000000E+00  0.19380522432E+03  0.19380522432E+03  0.00000000000E+00 0.  1.
         21   -1    0    0  501  503 -0.00000000000E+00 -0.00000000000E+00 -0.21074645515E+03  0.21074645515E+03  0.00000000000E+00 0.  1.
          6    2    1    2  501    0  0.92384669884E+02  0.47880757318E+02 -0.37303468903E+02  0.20547863704E+03  0.17321208773E+03 0.  0.
         24    2    3    3    0    0  0.13099664600E+02  0.11967083172E+02 -0.74960619771E+02  0.11052572732E+03  0.79259255547E+02 0.  0.
         -6    2    1    2    0  502 -0.92384669884E+02 -0.47880757318E+02  0.20362238067E+02  0.19907304243E+03  0.16848727350E+03 0.  0.
        -24    2    5    5    0    0  0.92310460226E+01  0.12034059287E+02  0.12629207889E+02  0.80762312889E+02  0.78313622683E+02 0.  0.
          5    1    3    3  501    0  0.79285005284E+02  0.35913674146E+02  0.37657150868E+02  0.94952909724E+02  0.47000000000E+01 0. -1.
        -11    1    4    4    0    0  0.10503579401E+02 -0.30534174783E+02 -0.11854184783E+02  0.34397422967E+02  0.00000000000E+00 0.  1.
         12    1    4    4    0    0  0.25960851988E+01  0.42501257955E+02 -0.63106434988E+02  0.76128304348E+02  0.00000000000E+00 0. -1.
         -5    1    5    5    0  502 -0.10161571591E+03 -0.59914816606E+02  0.77330301781E+01  0.11831072954E+03  0.47000000000E+01 0.  1.
         13    1    6    6    0    0  0.26124192844E+02 -0.11697664165E+02 -0.21568121215E+02  0.35839819355E+02  0.00000000000E+00 0. -1.
        -14    1    6    6    0    0 -0.16893146821E+02  0.23731723452E+02  0.34197329104E+02  0.44922493534E+02  0.00000000000E+00 0.  1.
</event>
<event>
12    1  0.1627564E-001  0.1739557E+03  0.7818608E-02  0.1173979E+00
         21   -1    0    0  503  502  0.00000000000E+00  0.00000000000E+00  0.42100608856E+03  0.42100608856E+03  0.00000000000E+00 0. -1.
         21   -1    0    0  501  503 -0.00000000000E+00 -0.00000000000E+00 -0.23310879991E+03  0.23310879991E+03  0.00000000000E+00 0. -1.
          6    2    1    2  501    0  0.49364997096E+02  0.28939890287E+02 -0.17825532320E+03  0.24906938402E+03  0.16427470170E+03 0.  0.
         24    2    3    3    0    0  0.40052892820E+02  0.45572526446E+02 -0.39579766964E+02  0.10901096846E+03  0.81460075502E+02 0.  0.
         -6    2    1    2    0  502 -0.49364997096E+02 -0.28939890287E+02  0.36615261185E+03  0.40504550445E+03  0.16346163258E+03 0.  0.
        -24    2    5    5    0    0 -0.81759072663E+02 -0.44507150133E+02  0.21534355493E+03  0.24994174126E+03  0.86212499061E+02 0.  0.
          5    1    3    3  501    0  0.93121042755E+01 -0.16632636158E+02 -0.13867555624E+03  0.14005841556E+03  0.47000000000E+01 0. -1.
        -13    1    4    4    0    0 -0.89350587720E+01  0.55611835626E+01  0.19692287771E+02  0.22328193737E+02  0.00000000000E+00 0.  1.
         14    1    4    4    0    0  0.48987951592E+02  0.40011342883E+02 -0.59272054735E+02  0.86682774719E+02  0.00000000000E+00 0. -1.
         -5    1    5    5    0  502  0.32394075568E+02  0.15567259846E+02  0.15080905691E+03  0.15510376320E+03  0.47000000000E+01 0.  1.
         11    1    6    6    0    0 -0.37222998310E+02  0.75946534357E+01  0.15178095817E+03  0.15646306154E+03  0.00000000000E+00 0. -1.
        -12    1    6    6    0    0 -0.44536074353E+02 -0.52101803568E+02  0.63562596770E+02  0.93478679719E+02  0.00000000000E+00 0.  1.
</event>
<event>
12    1  0.1627564E-001  0.2051374E+03  0.7818608E-02  0.1149611E+00
         21   -1    0    0  503  502  0.00000000000E+00  0.00000000000E+00  0.90890944685E+02  0.90890944685E+02  0.00000000000E+00 0. -1.
         21   -1    0    0  501  503 -0.00000000000E+00 -0.00000000000E+00 -0.43262144528E+03  0.43262144528E+03  0.00000000000E+00 0. -1.
          6    2    1    2  501    0  0.56552774643E+02 -0.44052461473E+02 -0.13546164303E+03  0.24582759448E+03  0.19220435425E+03 0.  0.
         24    2    3    3    0    0  0.39650643770E+02  0.49935912519E+02 -0.97856579812E+02  0.14308652551E+03  0.82656364898E+02 0.  0.
         -6    2    1    2    0  502 -0.56552774643E+02  0.44052461473E+02 -0.20626885756E+03  0.27768479549E+03  0.17153182901E+03 0.  0.
        -24    2    5    5    0    0 -0.38070049569E+02 -0.12709675310E+02 -0.19819525870E+03  0.21726274408E+03  0.79441015053E+02 0.  0.
          5    1    3    3  501    0  0.16902130873E+02 -0.93988373991E+02 -0.37605063221E+02  0.10274106897E+03  0.47000000000E+01 0. -1.
        -11    1    4    4    0    0 -0.56296524084E+01  0.57459180914E+02 -0.45887263687E+02  0.73748840169E+02  0.00000000000E+00 0.  1.
         12    1    4    4    0    0  0.45280296178E+02 -0.75232683953E+01 -0.51969316125E+02  0.69337685337E+02  0.00000000000E+00 0. -1.
         -5    1    5    5    0  502 -0.18482725074E+02  0.56762136783E+02 -0.80735988647E+01  0.60422051413E+02  0.47000000000E+01 0.  1.
         11    1    6    6    0    0  0.28548300991E+01  0.27752265368E+02 -0.38742241330E+02  0.47742010339E+02  0.00000000000E+00 0. -1.
        -12    1    6    6    0    0 -0.40924879668E+02 -0.40461940677E+02 -0.15945301737E+03  0.16952073374E+03  0.00000000000E+00 0.  1.
</event>
<event>
12    1  0.1627564E-001  0.2144178E+03  0.7818608E-02  0.1139023E+00
         21   -1    0    0  501  502  0.00000000000E+00  0.00000000000E+00  0.58837973434E+02  0.58837973434E+02  0.00000000000E+00 0. -1.
         21   -1    0    0  502  503 -0.00000000000E+00 -0.00000000000E+00 -0.19108826276E+04  0.19108826276E+04  0.00000000000E+00 0.  1.
         -6    2    1    2    0  503 -0.91611996719E+02  0.77452762345E+02 -0.16928997958E+04  0.17064245422E+04  0.17771694119E+03 0.  0.
        -24    2    3    3    0    0 -0.69376776161E+02  0.38392775058E+02 -0.15911885235E+04  0.15951260222E+04  0.79113634001E+02 0.  0.
          6    2    1    2  501    0  0.91611996719E+02 -0.77452762345E+02 -0.15914485836E+03  0.26329605885E+03  0.17206405879E+03 0.  0.
         24    2    5    5    0    0  0.31446151654E+02 -0.32356339355E+02 -0.16823071537E+03  0.18741286521E+03  0.69182478306E+02 0.  0.
          5    1    5    5  501    0  0.60165845065E+02 -0.45096422991E+02  0.90858570074E+01  0.75883193637E+02  0.47000000000E+01 0. -1.
        -11    1    6    6    0    0 -0.13026653965E+02  0.12493225857E+02 -0.24628349035E+02  0.30534079027E+02  0.00000000000E+00 0.  1.
         12    1    6    6    0    0  0.44472805619E+02 -0.44849565212E+02 -0.14360236633E+03  0.15687878619E+03  0.00000000000E+00 0. -1.
         -5    1    3    3    0  503 -0.22235220558E+02  0.39059987287E+02 -0.10171127233E+03  0.11129852003E+03  0.47000000000E+01 0.  1.
         11    1    4    4    0    0  0.10898765811E+01 -0.89684561510E+00  0.42105080066E+00  0.14729042047E+01  0.00000000000E+00 0. -1.
        -12    1    4    4    0    0 -0.70466652742E+02  0.39289620673E+02 -0.15916095743E+04  0.15936531180E+04  0.00000000000E+00 0.  1.
</event>
<event>
12    1  0.1627564E-001  0.2895320E+03  0.7818608E-02  0.1090810E+00
         21   -1    0    0  501  502  0.00000000000E+00  0.00000000000E+00  0.65124619623E+03  0.65124619623E+03  0.00000000000E+00 0. -1.
         21   -1    0    0  502  503 -0.00000000000E+00 -0.00000000000E+00 -0.13878491255E+03  0.13878491255E+03  0.00000000000E+00 0.  1.
         -6    2    1    2    0  503 -0.21431427202E+03 -0.88315586369E+02  0.14538928523E+03  0.32251573186E+03  0.17072815542E+03 0.  0.
        -24    2    3    3    0    0 -0.21160590514E+03 -0.75177904944E+02  0.17045232771E+03  0.29370288712E+03  0.82332335080E+02 0.  0.
          6    2    1    2  501    0  0.21431427202E+03  0.88315586369E+02  0.36707199845E+03  0.46751537691E+03  0.17348926657E+03 0.  0.
         24    2    5    5    0    0  0.19518950896E+03  0.57235180873E+02  0.19938992506E+03  0.29584384199E+03  0.79952650276E+02 0.  0.
          5    1    5    5  501    0  0.19124763054E+02  0.31080405495E+02  0.16768207339E+03  0.17167153493E+03  0.47000000000E+01 0. -1.
        -11    1    6    6    0    0  0.18961270178E+03  0.33688533389E+02  0.18787980325E+03  0.26904779209E+03  0.00000000000E+00 0.  1.
         12    1    6    6    0    0  0.55768071838E+01  0.23546647484E+02  0.11510121817E+02  0.26796049902E+02  0.00000000000E+00 0. -1.
         -5    1    3    3    0  503 -0.27083668803E+01 -0.13137681424E+02 -0.25063042473E+02  0.28812844746E+02  0.47000000000E+01 0.  1.
         11    1    4    4    0    0 -0.10163237176E+03 -0.82544889783E+01  0.11453384234E+03  0.15334691591E+03  0.00000000000E+00 0. -1.
        -12    1    4    4    0    0 -0.10997353338E+03 -0.66923415966E+02  0.55918485366E+02  0.14035597121E+03  0.00000000000E+00 0.  1.
</event>
<event>
12    1  0.1627564E-001  0.1758307E+03  0.7818608E-02  0.1172619E+00
         21   -1    0    0  501  502  0.00000000000E+00  0.00000000000E+00  0.36862095732E+03  0.36862095732E+03  0.00000000000E+00 0. -1.
         21   -1    0    0  502  503 -0.00000000000E+00 -0.00000000000E+00 -0.10324446756E+03  0.10324446756E+03  0.00000000000E+00 0. -1.
         -6    2    1    2    0  503  0.42714642057E+02 -0.93948439464E+01  0.27837812160E+02  0.17802075958E+03  0.17030456047E+03 0.  0.
        -24    2    3    3    0    0 -0.29245092049E+02  0.35455616371E+02  0.25591241579E+02  0.93068395261E+02  0.76775246073E+02 0.  0.
          6    2    1    2  501    0 -0.42714642057E+02  0.93948439464E+01  0.23753867760E+03  0.29384466531E+03  0.16735369800E+03 0.  0.
         24    2    5    5    0    0 -0.70671790723E+02  0.39319212833E+02  0.10029035877E+03  0.15053988159E+03  0.77869104173E+02 0.  0.
          5    1    5    5  501    0  0.27957148666E+02 -0.29924368887E+02  0.13724831883E+03  0.14330478372E+03  0.47000000000E+01 0. -1.
        -13    1    6    6    0    0 -0.17862716807E+02 -0.15150901782E+02 -0.16336502025E+01  0.23479678225E+02  0.00000000000E+00 0.  1.
         14    1    6    6    0    0 -0.52809073915E+02  0.54470114615E+02  0.10192400897E+03  0.12706020336E+03  0.00000000000E+00 0. -1.
         -5    1    3    3    0  503  0.71959734107E+02 -0.44850460318E+02  0.22465705813E+01  0.84952364315E+02  0.47000000000E+01 0.  1.
         13    1    4    4    0    0 -0.10676085873E+02 -0.22056672982E+02 -0.54850797383E+01  0.25110988279E+02  0.00000000000E+00 0. -1.
        -14    1    4    4    0    0 -0.18569006177E+02  0.57512289354E+02  0.31076321317E+02  0.67957406982E+02  0.00000000000E+00 0.  1.
</event>
<event>
12    1  0.1627564E-001  0.1804469E+03  0.7818608E-02  0.1168294E+00
         21   -1    0    0  503  502  0.00000000000E+00  0.00000000000E+00  0.29342304820E+03  0.29342304820E+03  0.00000000000E+00 0. -1.
         21   -1    0    0  501  503 -0.00000000000E+00 -0.00000000000E+00 -0.12342768001E+03  0.12342768001E+03  0.00000000000E+00 0. -1.
          6    2    1    2  501    0 -0.33032281484E+02  0.33484856053E+02  0.13688183825E+02  0.18096532709E+03  0.17420882879E+03 0.  0.
         24    2    3    3    0    0  0.41140282991E+02  0.16987143629E+01  0.36157715023E+02  0.97067186727E+02  0.80120221345E+02 0.  0.
         -6    2    1    2    0  502  0.33032281484E+02 -0.33484856053E+02  0.15630718436E+03  0.23588540112E+03  0.17028687376E+03 0.  0.
        -24    2    5    5    0    0  0.58350101701E+02 -0.16998240057E+02  0.32360879147E+02  0.10822343692E+03  0.83494977488E+02 0.  0.
          5    1    3    3  501    0 -0.74172564475E+02  0.31786141691E+02 -0.22469531198E+02  0.83898140364E+02  0.47000000000E+01 0. -1.
        -11    1    4    4    0    0 -0.82116238127E+01 -0.15194137019E+02  0.41187647856E+02  0.44662231262E+02  0.00000000000E+00 0.  1.
         12    1    4    4    0    0  0.49351906804E+02  0.16892851382E+02 -0.50299328332E+01  0.52404955465E+02  0.00000000000E+00 0. -1.
         -5    1    5    5    0  502 -0.25317820218E+02 -0.16486615997E+02  0.12394630521E+03  0.12766196420E+03  0.47000000000E+01 0.  1.
         11    1    6    6    0    0  0.51222030551E+02 -0.43141594469E+02  0.42470945161E+02  0.79301164997E+02  0.00000000000E+00 0. -1.
        -12    1    6    6    0    0  0.71280711507E+01  0.26143354413E+02 -0.10110066014E+02  0.28922271921E+02  0.00000000000E+00 0.  1.
</event>
<event>
12    1  0.1627564E-001  0.1972383E+03  0.7818608E-02  0.1152361E+00
         21   -1    0    0  503  502  0.00000000000E+00  0.00000000000E+00  0.43181211640E+03  0.43181211640E+03  0.00000000000E+00 0.  1.
         21   -1    0    0  501  503 -0.00000000000E+00 -0.00000000000E+00 -0.12567370557E+03  0.12567370557E+03  0.00000000000E+00 0.  1.
          6    2    1    2  501    0 -0.90970566008E+02 -0.21620931152E+02  0.32133466309E+01  0.19600755803E+03  0.17223683887E+03 0.  0.
         24    2    3    3    0    0 -0.13056252807E+03 -0.92757232878E+01  0.10945653754E+02  0.15355987034E+03  0.79550070179E+02 0.  0.
         -6    2    1    2    0  502  0.90970566008E+02  0.21620931152E+02  0.30292506420E+03  0.36147826393E+03  0.17366586375E+03 0.  0.
        -24    2    5    5    0    0  0.10223743776E+03  0.35082862140E+02  0.12470922944E+03  0.18233826353E+03  0.77534183068E+02 0.  0.
          5    1    3    3  501    0  0.39591962057E+02 -0.12345207864E+02 -0.77323071227E+01  0.42447687690E+02  0.47000000000E+01 0. -1.
        -13    1    4    4    0    0 -0.10817370465E+03 -0.28883599364E+02 -0.16381679806E+02  0.11315552184E+03  0.00000000000E+00 0.  1.
         14    1    4    4    0    0 -0.22388823417E+02  0.19607876077E+02  0.27327333560E+02  0.40404348500E+02  0.00000000000E+00 0. -1.
         -5    1    5    5    0  502 -0.11266871755E+02 -0.13461930988E+02  0.17821583476E+03  0.17914000040E+03  0.47000000000E+01 0.  1.
         13    1    6    6    0    0  0.46968675835E+01 -0.20263878431E+02  0.17380987877E+02  0.27106900851E+02  0.00000000000E+00 0. -1.
        -14    1    6    6    0    0  0.97540570180E+02  0.55346740571E+02  0.10732824156E+03  0.15523136268E+03  0.00000000000E+00 0.  1.
</event>
<event>
12    1  0.1627564E-001  0.3809184E+03  0.7818608E-02  0.1051426E+00
         21   -1    0    0  503  502  0.00000000000E+00  0.00000000000E+00  0.34347446872E+03  0.34347446872E+03  0.00000000000E+00 0.  1.
         21   -1    0    0  501  503 -0.00000000000E+00 -0.00000000000E+00 -0.44195081531E+03  0.44195081531E+03  0.00000000000E+00 0. -1.
          6    2    1    2  501    0 -0.25543944422E+03  0.20948017403E+03 -0.14985063458E+03  0.40105811277E+03  0.17105889091E+03 0.  0.
         24    2    3    3    0    0 -0.73453971358E+02  0.85213357884E+02 -0.73645861745E+01  0.13859798643E+03  0.80612421145E+02 0.  0.
         -6    2    1    2    0  502  0.25543944422E+03 -0.20948017403E+03  0.51374287989E+02  0.38436717126E+03  0.18965113209E+03 0.  0.
        -24    2    5    5    0    0  0.18928855667E+03 -0.57587579992E+02  0.49219201777E+02  0.21861423933E+03  0.78887063324E+02 0.  0.
          5    1    3    3  501    0 -0.18198547286E+03  0.12426681614E+03 -0.14248604840E+03  0.26246012634E+03  0.47000000000E+01 0. -1.
        -11    1    4    4    0    0 -0.15294204316E+01 -0.12456529864E+02  0.10024958656E+02  0.16062504760E+02  0.00000000000E+00 0.  1.
         12    1    4    4    0    0 -0.71924550927E+02  0.97669887749E+02 -0.17389544831E+02  0.12253548167E+03  0.00000000000E+00 0. -1.
         -5    1    5    5    0  502  0.66150887551E+02 -0.15189259404E+03  0.21550862114E+01  0.16575293193E+03  0.47000000000E+01 0.  1.
         11    1    6    6    0    0  0.69114391906E+02  0.93174127444E+00 -0.14363053366E+02  0.70597199749E+02  0.00000000000E+00 0. -1.
        -12    1    6    6    0    0  0.12017416476E+03 -0.58519321266E+02  0.63582255143E+02  0.14801703958E+03  0.00000000000E+00 0.  1.
</event>
<event>
12    1  0.1627564E-001  0.2110250E+03  0.7818608E-02  0.1140814E+00
         21   -1    0    0  501  502  0.00000000000E+00  0.00000000000E+00  0.82937303988E+03  0.82937303988E+03  0.00000000000E+00 0.  1.
         21   -1    0    0  502  503 -0.00000000000E+00 -0.00000000000E+00 -0.54995994635E+02  0.54995994635E+02  0.00000000000E+00 0.  1.
         -6    2    1    2    0  503 -0.10478257487E+03 -0.60864290137E+02  0.31696878518E+03  0.38062916987E+03  0.17241085919E+03 0.  0.
        -24    2    3    3    0    0  0.66878388570E+01 -0.22420920780E+02  0.19032197164E+03  0.20752500711E+03  0.79352068722E+02 0.  0.
          6    2    1    2  501    0  0.10478257487E+03  0.60864290137E+02  0.45740826006E+03  0.50373986464E+03  0.17276482584E+03 0.  0.
         24    2    5    5    0    0  0.36666029343E+02  0.74929565972E+02  0.39027319248E+03  0.40695710244E+03  0.79637182887E+02 0.  0.
          5    1    5    5  501    0  0.68116545530E+02 -0.14065275835E+02  0.67135067584E+02  0.96782762199E+02  0.47000000000E+01 0. -1.
        -11    1    6    6    0    0  0.57454399755E+02  0.31866227820E+02  0.26040308279E+03  0.26856327012E+03  0.00000000000E+00 0.  1.
         12    1    6    6    0    0 -0.20788370412E+02  0.43063338152E+02  0.12987010968E+03  0.13839383233E+03  0.00000000000E+00 0. -1.
         -5    1    3    3    0  503 -0.11147041373E+03 -0.38443369357E+02  0.12664681354E+03  0.17310416276E+03  0.47000000000E+01 0.  1.
         13    1    4    4    0    0 -0.60891426319E+01 -0.42057923609E+02  0.17364033116E+03  0.17876496078E+03  0.00000000000E+00 0. -1.
        -14    1    4    4    0    0  0.12776981489E+02  0.19637002829E+02  0.16681640481E+02  0.28760046335E+02  0.00000000000E+00 0.  1.
</event>
<event>
12    1  0.1627564E-001  0.1789624E+03  0.7818608E-02  0.1168923E+00
         21   -1    0    0  501  502  0.00000000000E+00  0.00000000000E+00  0.42260595317E+02  0.42260595317E+02  0.00000000000E+00 0.  1.
         21   -1    0    0  502  503 -0.00000000000E+00 -0.00000000000E+00 -0.14827582151E+04  0.14827582151E+04  0.00000000000E+00 0.  1.
         -6    2    1    2    0  503  0.74835220769E+01 -0.46955415094E+02 -0.12545869016E+04  0.12672867979E+04  0.17253034644E+03 0.  0.
        -24    2    3    3    0    0 -0.64923737469E+01  0.33734237664E+02 -0.44138144724E+03  0.44995495178E+03  0.80384867740E+02 0.  0.
          6    2    1    2  501    0 -0.74835220769E+01  0.46955415094E+02 -0.18591071825E+03  0.25773201255E+03  0.17205284369E+03 0.  0.
         24    2    5    5    0    0 -0.74698246162E+01  0.37326957350E+02 -0.21183452462E+03  0.22968132409E+03  0.80190677712E+02 0.  0.
          5    1    5    5  501    0 -0.13697460689E-01  0.96284577439E+01  0.25923806369E+02  0.28050688455E+02  0.47000000000E+01 0. -1.
        -13    1    6    6    0    0  0.19684885939E+02 -0.67962024445E+01 -0.13801635145E+02  0.24983359157E+02  0.00000000000E+00 0.  1.
         14    1    6    6    0    0 -0.27154710556E+02  0.44123159794E+02 -0.19803288947E+03  0.20469796494E+03  0.00000000000E+00 0. -1.
         -5    1    3    3    0  503  0.13975895824E+02 -0.80689652758E+02 -0.81320545435E+03  0.81733184613E+03  0.47000000000E+01 0.  1.
         13    1    4    4    0    0 -0.13289005716E+02 -0.24938314306E+02 -0.13319484630E+03  0.13615940758E+03  0.00000000000E+00 0. -1.
        -14    1    4    4    0    0  0.67966319693E+01  0.58672551970E+02 -0.30818660094E+03  0.31379554420E+03  0.00000000000E+00 0.  1.
</event>
<event>
12    1  0.1627564E-001  0.2288350E+03  0.7818608E-02  0.1127464E+00
         21   -1    0    0  503  502  0.00000000000E+00  0.00000000000E+00  0.23367052477E+03  0.23367052477E+03  0.00000000000E+00 0. -1.
         21   -1    0    0  501  503 -0.00000000000E+00 -0.00000000000E+00 -0.34140257682E+03  0.34140257682E+03  0.00000000000E+00 0.  1.
          6    2    1    2  501    0  0.77135134293E+02 -0.13009236792E+03 -0.22241657320E+03  0.31911528869E+03  0.17173113378E+03 0.  0.
         24    2    3    3    0    0  0.20714466021E+02 -0.97188501469E+02 -0.21954853133E+03  0.25356933611E+03  0.78874309394E+02 0.  0.
         -6    2    1    2    0  502 -0.77135134293E+02  0.13009236792E+03  0.11468452115E+03  0.25595781290E+03  0.17172073100E+03 0.  0.
        -24    2    5    5    0    0 -0.11500738742E+03  0.12939951558E+03  0.90968108899E+02  0.21102068113E+03  0.79269144289E+02 0.  0.
          5    1    3    3  501    0  0.56420668272E+02 -0.32903866453E+02 -0.28680418616E+01  0.65545952582E+02  0.47000000000E+01 0. -1.
        -13    1    4    4    0    0  0.43514360211E+02 -0.30993834337E+02 -0.66762463266E+02  0.85506396327E+02  0.00000000000E+00 0.  1.
         14    1    4    4    0    0 -0.22799894189E+02 -0.66194667132E+02 -0.15278606807E+03  0.16806293978E+03  0.00000000000E+00 0. -1.
         -5    1    5    5    0  502  0.37872253123E+02  0.69285234112E+00  0.23716412251E+02  0.44937131763E+02  0.47000000000E+01 0.  1.
         11    1    6    6    0    0 -0.63446646628E+02  0.15840271501E+02  0.36919422318E+02  0.75096171099E+02  0.00000000000E+00 0. -1.
        -12    1    6    6    0    0 -0.51560740788E+02  0.11355924408E+03  0.54048686582E+02  0.13592451003E+03  0.00000000000E+00 0.  1.
</event>
<event>
12    1  0.1627564E-001  0.1856005E+03  0.7818608E-02  0.1162744E+00
         21   -1    0    0  501  502  0.00000000000E+00  0.00000000000E+00  0.14622504086E+04  0.14622504086E+04  0.00000000000E+00 0.  1.
         21   -1    0    0  502  503 -0.00000000000E+00 -0.00000000000E+00 -0.49100467732E+02  0.49100467732E+02  0.00000000000E+00 0.  1.
         -6    2    1    2    0  503  0.66690327901E+02 -0.10735283250E+02  0.15908124475E+03  0.24362226608E+03  0.17170358166E+03 0.  0.
        -24    2    3    3    0    0  0.20456029503E+02 -0.15327653327E+02  0.17891522842E+03  0.19288591698E+03  0.67386437156E+02 0.  0.
          6    2    1    2  501    0 -0.66690327901E+02  0.10735283250E+02  0.12540686961E+04  0.12677286103E+04  0.17287188474E+03 0.  0.
         24    2    5    5    0    0  0.32793240830E+02  0.84359341417E+01  0.62176738099E+03  0.62762759435E+03  0.78582183051E+02 0.  0.
          5    1    5    5  501    0 -0.99483568731E+02  0.22993491088E+01  0.63230131514E+03  0.64010101591E+03  0.47000000000E+01 0. -1.
        -11    1    6    6    0    0 -0.12657678850E+02 -0.24934886475E+02  0.25883716167E+03  0.26034331499E+03  0.00000000000E+00 0.  1.
         12    1    6    6    0    0  0.45450919681E+02  0.33370820617E+02  0.36293021932E+03  0.36728427936E+03  0.00000000000E+00 0. -1.
         -5    1    3    3    0  503  0.46234298398E+02  0.45923700764E+01 -0.19833983665E+02  0.50736349093E+02  0.47000000000E+01 0.  1.
         13    1    4    4    0    0  0.14962826000E+01  0.26276408064E+02  0.68157372835E+02  0.73062411363E+02  0.00000000000E+00 0. -1.
        -14    1    4    4    0    0  0.18959746903E+02 -0.41604061391E+02  0.11075785558E+03  0.11982350562E+03  0.00000000000E+00 0.  1.
</event>
<event>
12    1  0.1627564E-001  0.1883827E+03  0.7818608E-02  0.1160047E+00
         21   -1    0    0  501  502  0.00000000000E+00  0.00000000000E+00  0.18184909799E+03  0.18184909799E+03  0.00000000000E+00 0.  1.
         21   -1    0    0  502  503 -0.00000000000E+00 -0.00000000000E+00 -0.19754671269E+03  0.19754671269E+03  0.00000000000E+00 0. -1.
         -6    2    1    2    0  503  0.16362758466E+02 -0.74787357702E+02 -0.30949429771E+02  0.19039673737E+03  0.17155804167E+03 0.  0.
        -24    2    3    3    0    0 -0.14792407573E+02  0.12099712272E+02 -0.49495551425E+02  0.96130858451E+02  0.80163046204E+02 0.  0.
          6    2    1    2  501    0 -0.16362758466E+02  0.74787357702E+02  0.15251815070E+02  0.18899907331E+03  0.17212537033E+03 0.  0.
         24    2    5    5    0    0  0.52305178103E+02  0.28374792917E+02 -0.14295153955E+02  0.10088253081E+03  0.80199582711E+02 0.  0.
          5    1    5    5  501    0 -0.68667936570E+02  0.46412564785E+02  0.29546969025E+02  0.88116542495E+02  0.47000000000E+01 0. -1.
        -13    1    6    6    0    0  0.32874437327E+02  0.45801527551E+02  0.18163099117E+02  0.59231805013E+02  0.00000000000E+00 0.  1.
         14    1    6    6    0    0  0.19430740776E+02 -0.17426734634E+02 -0.32458253073E+02  0.41650725799E+02  0.00000000000E+00 0. -1.
         -5    1    3    3    0  503  0.31155166039E+02 -0.86887069974E+02  0.18546121654E+02  0.94265878917E+02  0.47000000000E+01 0.  1.
         11    1    4    4    0    0  0.40002952837E+01  0.60534256577E+01 -0.68408265717E+02  0.68791984583E+02  0.00000000000E+00 0. -1.
        -12    1    4    4    0    0 -0.18792702857E+02  0.60462866140E+01  0.18912714292E+02  0.27338873868E+02  0.00000000000E+00 0.  1.
</event>
<event>
12    1  0.1627564E-001  0.2574778E+03  0.7818608E-02  0.1108755E+00
         21   -1    0    0  501  502  0.00000000000E+00  0.00000000000E+00  0.29094522669E+03  0.29094522669E+03  0.00000000000E+00 0. -1.
         21   -1    0    0  502  503 -0.00000000000E+00 -0.00000000000E+00 -0.22735514704E+03  0.22735514704E+03  0.00000000000E+00 0.  1.
         -6    2    1    2    0  503  0.17185309549E+03  0.81185298540E+02  0.31918056819E+02  0.25944862282E+03  0.17369595966E+03 0.  0.
        -24    2    3    3    0    0  0.15452143208E+03  0.12157899474E+03  0.15079848952E+02  0.21214479112E+03  0.78228419516E+02 0.  0.
          6    2    1    2  501    0 -0.17185309549E+03 -0.81185298540E+02  0.31672022829E+02  0.25885175090E+03  0.17284840985E+03 0.  0.
         24    2    5    5    0    0 -0.18726611511E+03 -0.10138052141E+03  0.24636858412E+02  0.23207504949E+03  0.88911449287E+02 0.  0.
          5    1    5    5  501    0  0.15413019616E+02  0.20195222867E+02  0.70351644172E+01  0.26776701415E+02  0.47000000000E+01 0. -1.
        -13    1    6    6    0    0 -0.89913002390E+02 -0.26379066144E+02 -0.28854134685E+02  0.98044705201E+02  0.00000000000E+00 0.  1.
         14    1    6    6    0    0 -0.97353112718E+02 -0.75001455263E+02  0.53490993097E+02  0.13403034429E+03  0.00000000000E+00 0. -1.
         -5    1    3    3    0  503  0.17331663413E+02 -0.40393696202E+02  0.16838207867E+02  0.47303831702E+02  0.47000000000E+01 0.  1.
         11    1    4    4    0    0  0.32373112014E+01 -0.57746096763E+00  0.17377229055E+02  0.17685636393E+02  0.00000000000E+00 0. -1.
        -12    1    4    4    0    0  0.15128412088E+03  0.12215645571E+03 -0.22973801029E+01  0.19445915473E+03  0.00000000000E+00 0.  1.
</event>
<event>
12    1  0.1627564E-001  0.2434239E+03  0.7818608E-02  0.1117768E+00
         21   -1    0    0  501  502  0.00000000000E+00  0.00000000000E+00  0.81363361389E+03  0.81363361389E+03  0.00000000000E+00 0.  1.
         21   -1    0    0  502  503 -0.00000000000E+00 -0.00000000000E+00 -0.77212512322E+02  0.77212512322E+02  0.00000000000E+00 0. -1.
         -6    2    1    2    0  503 -0.15803155324E+03  0.65760063811E+02  0.25802345120E+03  0.35472707765E+03  0.17308044499E+03 0.  0.
        -24    2    3    3    0    0 -0.10458181747E+03 -0.18908093969E+02  0.19683803515E+03  0.23729064237E+03  0.79162897299E+02 0.  0.
          6    2    1    2  501    0  0.15803155324E+03 -0.65760063811E+02  0.47839765037E+03  0.53611904857E+03  0.17105836590E+03 0.  0.
         24    2    5    5    0    0  0.18687756383E+03 -0.59727744960E+02  0.40982857186E+03  0.46133743501E+03  0.79888317362E+02 0.  0.
          5    1    5    5  501    0 -0.28846010591E+02 -0.60323188508E+01  0.68569078510E+02  0.74781613552E+02  0.47000000000E+01 0. -1.
        -11    1    6    6    0    0  0.10243988873E+03 -0.22889851316E+02  0.30086464046E+03  0.31864934956E+03  0.00000000000E+00 0.  1.
         12    1    6    6    0    0  0.84437675093E+02 -0.36837893644E+02  0.10896393140E+03  0.14268808545E+03  0.00000000000E+00 0. -1.
         -5    1    3    3    0  503 -0.53449735764E+02  0.84668157781E+02  0.61185416045E+02  0.11743643528E+03  0.47000000000E+01 0.  1.
         13    1    4    4    0    0 -0.53653586895E+02 -0.26856753874E+02  0.39776321205E+02  0.71987140129E+02  0.00000000000E+00 0. -1.
        -14    1    4    4    0    0 -0.50928230577E+02  0.79486599045E+01  0.15706171395E+03  0.16530350224E+03  0.00000000000E+00 0.  1.
</event>
<event>
12    1  0.1627564E-001  0.1788551E+03  0.7818608E-02  0.1169221E+00
         21   -1    0    0  503  502  0.00000000000E+00  0.00000000000E+00  0.57211892632E+02  0.57211892632E+02  0.00000000000E+00 0.  1.
         21   -1    0    0  501  503 -0.00000000000E+00 -0.00000000000E+00 -0.64750931167E+03  0.64750931167E+03  0.00000000000E+00 0.  1.
          6    2    1    2  501    0  0.43617837701E+02 -0.22112529839E+01 -0.42727109254E+03  0.46271555732E+03  0.17215601951E+03 0.  0.
         24    2    3    3    0    0  0.26446308247E+01  0.24561449817E+02 -0.90167711665E+02  0.12204509970E+03  0.78450820539E+02 0.  0.
         -6    2    1    2    0  502 -0.43617837701E+02  0.22112529839E+01 -0.16302632650E+03  0.24200564699E+03  0.17344089667E+03 0.  0.
        -24    2    5    5    0    0 -0.80005171042E+02 -0.43850998904E+02 -0.97147528678E+02  0.15364346572E+03  0.76452172835E+02 0.  0.
          5    1    3    3  501    0  0.40973206876E+02 -0.26772702801E+02 -0.33710338088E+03  0.34067045762E+03  0.47000000000E+01 0. -1.
        -13    1    4    4    0    0 -0.36889471909E+02  0.97847770212E+01 -0.55869296549E+02  0.67660574163E+02  0.00000000000E+00 0.  1.
         14    1    4    4    0    0  0.39534102734E+02  0.14776672796E+02 -0.34298415116E+02  0.54384525532E+02  0.00000000000E+00 0. -1.
         -5    1    5    5    0  502  0.36387333341E+02  0.46062251888E+02 -0.65878797820E+02  0.88362181271E+02  0.47000000000E+01 0.  1.
         13    1    6    6    0    0 -0.19389109492E+02 -0.10435382071E+02 -0.79107548239E+02  0.82114791325E+02  0.00000000000E+00 0. -1.
        -14    1    6    6    0    0 -0.60616061551E+02 -0.33415616833E+02 -0.18039980439E+02  0.71528674393E+02  0.00000000000E+00 0.  1.
</event>
<event>
12    1  0.1627564E-001  0.2041996E+03  0.7818608E-02  0.1147555E+00
         21   -1    0    0  503  502  0.00000000000E+00  0.00000000000E+00  0.39621964485E+02  0.39621964485E+02  0.00000000000E+00 0.  1.
         21   -1    0    0  501  503 -0.00000000000E+00 -0.00000000000E+00 -0.12569464743E+04  0.12569464743E+04  0.00000000000E+00 0.  1.
          6    2    1    2  501    0  0.88807199918E+02  0.52287115360E+02 -0.88223528880E+03  0.90416268170E+03  0.16896860355E+03 0.  0.
         24    2    3    3    0    0  0.46221282984E+02 -0.36556294496E+02 -0.39605575517E+03  0.40807867599E+03  0.78710068802E+02 0.  0.
         -6    2    1    2    0  502 -0.88807199918E+02 -0.52287115360E+02 -0.33508922106E+03  0.39240575712E+03  0.17628621888E+03 0.  0.
        -24    2    5    5    0    0  0.26030833876E+01 -0.30703662699E+02 -0.65839213086E+02  0.10720522747E+03  0.78795100552E+02 0.  0.
          5    1    3    3  501    0  0.42585916934E+02  0.88843409856E+02 -0.48617953364E+03  0.49608400571E+03  0.47000000000E+01 0. -1.
        -11    1    4    4    0    0 -0.60877897671E+01 -0.43960487583E+02 -0.15066499866E+03  0.15706536051E+03  0.00000000000E+00 0.  1.
         12    1    4    4    0    0  0.52309072751E+02  0.74041930871E+01 -0.24539075651E+03  0.25101331548E+03  0.00000000000E+00 0. -1.
         -5    1    5    5    0  502 -0.91410283306E+02 -0.21583452661E+02 -0.26925000797E+03  0.28520052965E+03  0.47000000000E+01 0.  1.
         13    1    6    6    0    0  0.23803562230E+02 -0.36809787057E+02 -0.72003869030E+02  0.84297847857E+02  0.00000000000E+00 0. -1.
        -14    1    6    6    0    0 -0.21200478843E+02  0.61061243582E+01  0.61646559444E+01  0.22907379613E+02  0.00000000000E+00 0.  1.
</event>
<event>
12    1  0.1627564E-001  0.2105144E+03  0.7818608E-02  0.1145108E+00
         21   -1    0    0  503  502  0.00000000000E+00  0.00000000000E+00  0.47407495065E+03  0.47407495065E+03  0.00000000000E+00 0. -1.
         21   -1    0    0  501  503 -0.00000000000E+00 -0.00000000000E+00 -0.93041280288E+02  0.93041280288E+02  0.00000000000E+00 0.  1.
          6    2    1    2  501    0  0.26724533522E+02 -0.78602162655E+02  0.26437388606E+03  0.32643844098E+03  0.17255724689E+03 0.  0.
         24    2    3    3    0    0 -0.54982328848E+01 -0.34614577187E+02  0.25872580895E+03  0.27141839804E+03  0.74165376407E+02 0.  0.
         -6    2    1    2    0  502 -0.26724533522E+02  0.78602162655E+02  0.11665978430E+03  0.24067778995E+03  0.19345230068E+03 0.  0.
        -24    2    5    5    0    0 -0.42189097107E+01  0.58082949380E+02  0.15926502841E+03  0.18809606269E+03  0.81383974582E+02 0.  0.
          5    1    3    3  501    0  0.32222766407E+02 -0.43987585468E+02  0.56480771076E+01  0.55020042941E+02  0.47000000000E+01 0. -1.
        -13    1    4    4    0    0 -0.21529021180E+02 -0.88805349115E+01  0.19775026619E+02  0.30551830241E+02  0.00000000000E+00 0.  1.
         14    1    4    4    0    0  0.16030788296E+02 -0.25734042275E+02  0.23895078233E+03  0.24086656780E+03  0.00000000000E+00 0. -1.
         -5    1    5    5    0  502 -0.22505623811E+02  0.20519213275E+02 -0.42605244107E+02  0.52581727263E+02  0.47000000000E+01 0.  1.
         11    1    6    6    0    0 -0.14265260867E+02 -0.15683093163E+02  0.15715355644E+02  0.26389950394E+02  0.00000000000E+00 0. -1.
        -12    1    6    6    0    0  0.10046351156E+02  0.73766042544E+02  0.14354967276E+03  0.16170611230E+03  0.00000000000E+00 0.  1.
</event>
<event>
12    1  0.1627564E-001  0.2387715E+03  0.7818608E-02  0.1121345E+00
         21   -1    0    0  503  502  0.00000000000E+00  0.00000000000E+00  0.68431354645E+02  0.68431354645E+02  0.00000000000E+00 0.  1.
         21   -1    0    0  501  503 -0.00000000000E+00 -0.00000000000E+00 -0.13678818502E+04  0.13678818502E+04  0.00000000000E+00 0. -1.
          6    2    1    2  501    0  0.10647108472E+03 -0.12710864715E+03 -0.11014511381E+04  0.11261268125E+04  0.16575369680E+03 0.  0.
         24    2    3    3    0    0  0.75169665716E+02 -0.64445792579E+02 -0.37331585013E+03  0.39461502186E+03  0.80947839302E+02 0.  0.
         -6    2    1    2    0  502 -0.10647108472E+03  0.12710864715E+03 -0.19799935745E+03  0.31018639240E+03  0.17181138618E+03 0.  0.
        -24    2    5    5    0    0 -0.10436300873E+03  0.90565501026E+02 -0.67841725609E+02  0.17489801656E+03  0.83024507798E+02 0.  0.
          5    1    3    3  501    0  0.31301419001E+02 -0.62662854572E+02 -0.72813528801E+03  0.73151179062E+03  0.47000000000E+01 0. -1.
        -11    1    4    4    0    0  0.85523971431E+02 -0.71265945025E+02 -0.35800049951E+03  0.37491004556E+03  0.00000000000E+00 0.  1.
         12    1    4    4    0    0 -0.10354305715E+02  0.68201524460E+01 -0.15315350624E+02  0.19704976300E+02  0.00000000000E+00 0. -1.
         -5    1    5    5    0  502 -0.21080759873E+01  0.36543146125E+02 -0.13015763184E+03  0.13528837585E+03  0.47000000000E+01 0.  1.
         13    1    6    6    0    0 -0.12853386385E+02 -0.14013643251E+02 -0.20814876050E+02  0.28193098512E+02  0.00000000000E+00 0. -1.
        -14    1    6    6    0    0 -0.91509622345E+02  0.10457914428E+03 -0.47026849559E+02  0.14670491805E+03  0.00000000000E+00 0.  1.
</event>
<event>
12    1  0.1627564E-001  0.2570150E+03  0.7818608E-02  0.1108998E+00
         21   -1    0    0  503  502  0.00000000000E+00  0.00000000000E+00  0.21598441930E+03  0.21598441930E+03  0.00000000000E+00 0.  1.
         21   -1    0    0  501  503 -0.00000000000E+00 -0.00000000000E+00 -0.35064634094E+03  0.35064634094E+03  0.00000000000E+00 0. -1.
          6    2    1    2  501    0 -0.18182815220E+03  0.58869762028E+02 -0.16906727596E+03  0.30763687151E+03  0.17184171524E+03 0.  0.
         24    2    3    3    0    0 -0.29176864219E+02  0.59819310650E+02 -0.67484682411E+02  0.12421268914E+03  0.80280573306E+02 0.  0.
         -6    2    1    2    0  502  0.18182815220E+03 -0.58869762028E+02  0.34405354319E+02  0.25899388873E+03  0.17136796719E+03 0.  0.
        -24    2    5    5    0    0  0.10668170101E+03 -0.92068445402E+02 -0.16967515547E+02  0.16198665466E+03  0.78065329908E+02 0.  0.
          5    1    3    3  501    0 -0.15265128799E+03 -0.94954862191E+00 -0.10158259355E+03  0.18342418237E+03  0.47000000000E+01 0. -1.
        -11    1    4    4    0    0  0.85125478388E+01 -0.25298719428E+01  0.12940661207E+02  0.15694726351E+02  0.00000000000E+00 0.  1.
         12    1    4    4    0    0 -0.37689412058E+02  0.62349182593E+02 -0.80425343618E+02  0.10851796279E+03  0.00000000000E+00 0. -1.
         -5    1    5    5    0  502  0.75146451191E+02  0.33198683374E+02  0.51372869866E+02  0.97007234074E+02  0.47000000000E+01 0.  1.
         11    1    6    6    0    0  0.15137420358E+02 -0.23156913139E+02 -0.36449511609E+02  0.45759709546E+02  0.00000000000E+00 0. -1.
        -12    1    6    6    0    0  0.91544280655E+02 -0.68911532264E+02  0.19481996062E+02  0.11622694511E+03  0.00000000000E+00 0.  1.
</event>
<event>
12    1  0.1627564E-001  0.2079239E+03  0.7818608E-02  0.1143278E+00
         21   -1    0    0  503  502  0.00000000000E+00  0.00000000000E+00  0.15349703876E+04  0.15349703876E+04  0.00000000000E+00 0.  1.
         21   -1    0    0  501  503 -0.00000000000E+00 -0.00000000000E+00 -0.29137036684E+02  0.29137036684E+02  0.00000000000E+00 0.  1.
          6    2    1    2  501    0  0.32049346232E+02  0.11242420332E+03  0.60775624075E+03  0.64233946934E+03  0.17194761884E+03 0.  0.
         24    2    3    3    0    0  0.60032594349E+02  0.13777424389E+03  0.53090262618E+03  0.55658251742E+03  0.73081088814E+02 0.  0.
         -6    2    1    2    0  502 -0.32049346232E+02 -0.11242420332E+03  0.89807711022E+03  0.92176795499E+03  0.17160217033E+03 0.  0.
        -24    2    5    5    0    0  0.12559423619E+02 -0.10372106261E+03  0.82638859337E+03  0.83675607080E+03  0.79541289988E+02 0.  0.
          5    1    3    3  501    0 -0.27983248117E+02 -0.25350040574E+02  0.76853614563E+02  0.85756951926E+02  0.47000000000E+01 0. -1.
        -13    1    4    4    0    0  0.27114678106E+01  0.31367004212E+02  0.23265071098E+03  0.23477136607E+03  0.00000000000E+00 0.  1.
         14    1    4    4    0    0  0.57321126539E+02  0.10640723968E+03  0.29825191521E+03  0.32181115134E+03  0.00000000000E+00 0. -1.
         -5    1    5    5    0  502 -0.44608769852E+02 -0.87031407086E+01  0.71688516845E+02  0.85011884189E+02  0.47000000000E+01 0.  1.
         13    1    6    6    0    0 -0.26380375945E+02 -0.35265698541E+02  0.45397274064E+03  0.45610398263E+03  0.00000000000E+00 0. -1.
        -14    1    6    6    0    0  0.38939799565E+02 -0.68455364066E+02  0.37241585274E+03  0.38065208817E+03  0.00000000000E+00 0.  1.
</event>
<event>
12    1  0.1627564E-001  0.1900298E+03  0.7818608E-02  0.1159562E+00
         21   -1    0    0  501  502  0.00000000000E+00  0.00000000000E+00  0.16687119402E+03  0.16687119402E+03  0.00000000000E+00 0. -1.
         21   -1    0    0  502  503 -0.00000000000E+00 -0.00000000000E+00 -0.30069555967E+03  0.30069555967E+03  0.00000000000E+00 0.  1.
         -6    2    1    2    0  503 -0.31387132540E+02  0.56521790113E+02 -0.19533040764E+03  0.27251661399E+03  0.17869379369E+03 0.  0.
        -24    2    3    3    0    0 -0.21750353501E+02  0.94170161880E+02 -0.19678403765E+03  0.23334429663E+03  0.79903104012E+02 0.  0.
          6    2    1    2  501    0  0.31387132540E+02 -0.56521790113E+02  0.61506041998E+02  0.19505013970E+03  0.17344076496E+03 0.  0.
         24    2    5    5    0    0  0.49632246357E+02 -0.80264538539E+01  0.94519440440E+02  0.13343312668E+03  0.79641012268E+02 0.  0.
          5    1    5    5  501    0 -0.18245113816E+02 -0.48495336259E+02 -0.33013398443E+02  0.61617013022E+02  0.47000000000E+01 0. -1.
        -11    1    6    6    0    0 -0.18004923813E+02  0.12712144149E+02  0.32984325050E+02  0.39670412014E+02  0.00000000000E+00 0.  1.
         12    1    6    6    0    0  0.67637170170E+02 -0.20738598003E+02  0.61535115391E+02  0.93762714668E+02  0.00000000000E+00 0. -1.
         -5    1    3    3    0  503 -0.96367790392E+01 -0.37648371767E+02  0.14536300035E+01  0.39172317358E+02  0.47000000000E+01 0.  1.
         13    1    4    4    0    0 -0.38032108365E+02  0.69027023008E+02 -0.78158135695E+02  0.11099488883E+03  0.00000000000E+00 0. -1.
        -14    1    4    4    0    0  0.16281754864E+02  0.25143138872E+02 -0.11862590195E+03  0.12234940779E+03  0.00000000000E+00 0.  1.
</event>
<event>
12    1  0.1627564E-001  0.3729246E+03  0.7818608E-02  0.1053634E+00
         21   -1    0    0  503  502  0.00000000000E+00  0.00000000000E+00  0.77581947497E+02  0.77581947497E+02  0.00000000000E+00 0.  1.
         21   -1    0    0  501  503 -0.00000000000E+00 -0.00000000000E+00 -0.21885339577E+04  0.21885339577E+04  0.00000000000E+00 0. -1.
          6    2    1    2  501    0 -0.31758652773E+02  0.32954095389E+03 -0.57122742535E+03  0.68187332848E+03  0.17042479956E+03 0.  0.
         24    2    3    3    0    0  0.20538191215E+02  0.26063504107E+03 -0.34844778205E+03  0.44284227572E+03  0.79630285836E+02 0.  0.
         -6    2    1    2    0  502  0.31758652773E+02 -0.32954095389E+03 -0.15397245848E+04  0.15842425767E+04  0.17165923326E+03 0.  0.
        -24    2    5    5    0    0  0.53098052594E+02 -0.15910947174E+03 -0.10100356109E+04  0.10273810506E+04  0.84880273030E+02 0.  0.
          5    1    3    3  501    0 -0.52296843988E+02  0.68905912822E+02 -0.22277964330E+03  0.23903105276E+03  0.47000000000E+01 0. -1.
        -13    1    4    4    0    0  0.36000859645E+01  0.18240700470E+03 -0.17973294882E+03  0.25610390249E+03  0.00000000000E+00 0.  1.
         14    1    4    4    0    0  0.16938105250E+02  0.78228036365E+02 -0.16871483323E+03  0.18673837323E+03  0.00000000000E+00 0. -1.
         -5    1    5    5    0  502 -0.21339399821E+02 -0.17043148214E+03 -0.52968897394E+03  0.55686152606E+03  0.47000000000E+01 0.  1.
         13    1    6    6    0    0 -0.19105112284E+00  0.23690665117E+00 -0.20491032167E+03  0.20491054768E+03  0.00000000000E+00 0. -1.
        -14    1    6    6    0    0  0.53289103717E+02 -0.15934637839E+03 -0.80512528923E+03  0.82247050296E+03  0.00000000000E+00 0.  1.
</event>
<event>
12    1  0.1627564E-001  0.1946124E+03  0.7818608E-02  0.1155551E+00
         21   -1    0    0  503  502  0.00000000000E+00  0.00000000000E+00  0.10397424797E+03  0.10397424797E+03  0.00000000000E+00 0.  1.
         21   -1    0    0  501  503 -0.00000000000E+00 -0.00000000000E+00 -0.38366964426E+03  0.38366964426E+03  0.00000000000E+00 0. -1.
          6    2    1    2  501    0 -0.74822046320E+02 -0.47485757900E+02 -0.20546678288E+03  0.27935595102E+03  0.16724207809E+03 0.  0.
         24    2    3    3    0    0 -0.96423507315E+02 -0.80020386929E+02 -0.17515722903E+03  0.22969828034E+03  0.79877969559E+02 0.  0.
         -6    2    1    2    0  502  0.74822046320E+02  0.47485757900E+02 -0.74228613407E+02  0.20828794121E+03  0.17326495199E+03 0.  0.
        -24    2    5    5    0    0  0.11557431113E+03  0.57731060841E+02 -0.53352325492E+02  0.16113263698E+03  0.80168318467E+02 0.  0.
          5    1    3    3  501    0  0.21601460995E+02  0.32534629029E+02 -0.30309553841E+02  0.49657670678E+02  0.47000000000E+01 0. -1.
        -13    1    4    4    0    0 -0.10118003627E+03 -0.48838123900E+02 -0.10963573651E+03  0.15697947894E+03  0.00000000000E+00 0.  1.
         14    1    4    4    0    0  0.47565289589E+01 -0.31182263029E+02 -0.65521492519E+02  0.72718801402E+02  0.00000000000E+00 0. -1.
         -5    1    5    5    0  502 -0.40752264815E+02 -0.10245302941E+02 -0.20876287915E+02  0.47155304229E+02  0.47000000000E+01 0.  1.
         11    1    6    6    0    0  0.37111153990E+02  0.58397008228E+00 -0.52209162687E+02  0.64057594710E+02  0.00000000000E+00 0. -1.
        -12    1    6    6    0    0  0.78463157145E+02  0.57147090759E+02 -0.11431628050E+01  0.97075042274E+02  0.00000000000E+00 0.  1.
</event>
<event>
12    1  0.1627564E-001  0.2019689E+03  0.7818608E-02  0.1148458E+00
         21   -1    0    0  501  502  0.00000000000E+00  0.00000000000E+00  0.75927331658E+03  0.75927331658E+03  0.00000000000E+00 0. -1.
         21   -1    0    0  502  503 -0.00000000000E+00 -0.00000000000E+00 -0.14274567302E+03  0.14274567302E+03  0.00000000000E+00 0. -1.
         -6    2    1    2    0  503 -0.14928926015E+02 -0.10444824136E+03 -0.48331788859E+02  0.20767141953E+03  0.17221831703E+03 0.  0.
        -24    2    3    3    0    0 -0.59992867605E+02 -0.42873595831E+02  0.14084116841E+02  0.10897982370E+03  0.78999685086E+02 0.  0.
          6    2    1    2  501    0  0.14928926015E+02  0.10444824136E+03  0.66485943242E+03  0.69434757006E+03  0.17014163284E+03 0.  0.
         24    2    5    5    0    0  0.50023912406E+02  0.73682164689E+02  0.25034360236E+03  0.27718612301E+03  0.78922584469E+02 0.  0.
          5    1    5    5  501    0 -0.35094986391E+02  0.30766076673E+02  0.41451583005E+03  0.41716144705E+03  0.47000000000E+01 0. -1.
        -13    1    6    6    0    0 -0.16346757659E+02  0.37468184520E+02  0.11649544123E+03  0.12345958515E+03  0.00000000000E+00 0.  1.
         14    1    6    6    0    0  0.66370670065E+02  0.36213980169E+02  0.13384816113E+03  0.15372653786E+03  0.00000000000E+00 0. -1.
         -5    1    3    3    0  503  0.45063941589E+02 -0.61574645531E+02 -0.62415905700E+02  0.98691595834E+02  0.47000000000E+01 0.  1.
         13    1    4    4    0    0 -0.74323572567E+02 -0.17016846049E+02  0.30175067108E-01  0.76246753368E+02  0.00000000000E+00 0. -1.
        -14    1    4    4    0    0  0.14330704963E+02 -0.25856749782E+02  0.14053941774E+02  0.32733070333E+02  0.00000000000E+00 0.  1.
</event>
<event>
12    1  0.1627564E-001  0.2183195E+03  0.7818608E-02  0.1135398E+00
         21   -1    0    0  503  502  0.00000000000E+00  0.00000000000E+00  0.67093926820E+03  0.67093926820E+03  0.00000000000E+00 0. -1.
         21   -1    0    0  501  503 -0.00000000000E+00 -0.00000000000E+00 -0.16706152015E+03  0.16706152015E+03  0.00000000000E+00 0. -1.
          6    2    1    2  501    0  0.38880105807E+01 -0.13262307097E+03 -0.66114371793E+02  0.22811076084E+03  0.17337650785E+03 0.  0.
         24    2    3    3    0    0 -0.63385965955E+02 -0.66828143787E+02 -0.19272232153E+02  0.12289176822E+03  0.79039143991E+02 0.  0.
         -6    2    1    2    0  502 -0.38880105807E+01  0.13262307097E+03  0.56999211985E+03  0.60989002751E+03  0.17167071209E+03 0.  0.
        -24    2    5    5    0    0  0.13441261897E+02  0.16275859586E+03  0.47983802217E+03  0.51315169553E+03  0.80056898918E+02 0.  0.
          5    1    3    3  501    0  0.67273976536E+02 -0.65794927179E+02 -0.46842139640E+02  0.10521899262E+03  0.47000000000E+01 0. -1.
        -11    1    4    4    0    0  0.18856615953E+02 -0.10053491036E+02 -0.49456083174E+01  0.21934075974E+02  0.00000000000E+00 0.  1.
         12    1    4    4    0    0 -0.82242581908E+02 -0.56774652752E+02 -0.14326623835E+02  0.10095769225E+03  0.00000000000E+00 0. -1.
         -5    1    5    5    0  502 -0.17329272478E+02 -0.30135524893E+02  0.90154097681E+02  0.96738331978E+02  0.47000000000E+01 0.  1.
         11    1    6    6    0    0  0.24284371447E+02  0.42156242694E+02  0.23528525221E+03  0.24026241779E+03  0.00000000000E+00 0. -1.
        -12    1    6    6    0    0 -0.10843109550E+02  0.12060235317E+03  0.24455276995E+03  0.27288927774E+03  0.00000000000E+00 0.  1.
</event>
<event>
12    1  0.1627564E-001  0.2054505E+03  0.7818608E-02  0.1146568E+00
         21   -1    0    0  503  502  0.00000000000E+00  0.00000000000E+00  0.17327121961E+04  0.17327121961E+04  0.00000000000E+00 0.  1.
         21   -1    0    0  501  503 -0.00000000000E+00 -0.00000000000E+00 -0.29902554649E+02  0.29902554649E+02  0.00000000000E+00 0.  1.
          6    2    1    2  501    0  0.66367825937E+02  0.74249721933E+02  0.43590338409E+03  0.47915793791E+03  0.17222909066E+03 0.  0.
         24    2    3    3    0    0  0.37465469298E+01  0.41102590812E+02  0.94254862319E+02  0.13020814307E+03  0.79791740587E+02 0.  0.
         -6    2    1    2    0  502 -0.66367825937E+02 -0.74249721933E+02  0.12669062573E+04  0.12834568128E+04  0.17970035050E+03 0.  0.
        -24    2    5    5    0    0 -0.30137156022E+01  0.34194262270E+01  0.27635094130E+03  0.28783230328E+03  0.80354322197E+02 0.  0.
          5    1    3    3  501    0  0.62621279007E+02  0.33147131122E+02  0.34164852178E+03  0.34894979484E+03  0.47000000000E+01 0. -1.
        -11    1    4    4    0    0 -0.15683683602E+02  0.50811536489E+02  0.94558091048E+02  0.10848512688E+03  0.00000000000E+00 0.  1.
         12    1    4    4    0    0  0.19430230532E+02 -0.97089456778E+01 -0.30322872938E+00  0.21723016190E+02  0.00000000000E+00 0. -1.
         -5    1    5    5    0  502 -0.63354110335E+02 -0.77669148160E+02  0.99055531603E+03  0.99562450954E+03  0.47000000000E+01 0.  1.
         11    1    6    6    0    0 -0.16822086134E+02  0.23288726310E+02  0.25154346820E+03  0.25317871899E+03  0.00000000000E+00 0. -1.
        -12    1    6    6    0    0  0.13808370532E+02 -0.19869300083E+02  0.24807473105E+02  0.34653584294E+02  0.00000000000E+00 0.  1.
</event>
<event>
12    1  0.1627564E-001  0.2014385E+03  0.7818608E-02  0.1148595E+00
         21   -1    0    0  501  502  0.00000000000E+00  0.00000000000E+00  0.10752204292E+03  0.10752204292E+03  0.00000000000E+00 0. -1.
         21   -1    0    0  502  503 -0.00000000000E+00 -0.00000000000E+00 -0.43015269118E+03  0.43015269118E+03  0.00000000000E+00 0. -1.
         -6    2    1    2    0  503 -0.95571027460E+02 -0.42966961168E+02 -0.25587687515E+03  0.32546363349E+03  0.17167882936E+03 0.  0.
        -24    2    3    3    0    0 -0.10884924731E+03 -0.75780116552E+02 -0.15781233601E+03  0.22110004729E+03  0.79935679213E+02 0.  0.
          6    2    1    2  501    0  0.95571027460E+02  0.42966961168E+02 -0.66753773121E+02  0.21221110060E+03  0.17203925120E+03 0.  0.
         24    2    5    5    0    0  0.81128966558E+02  0.90123068034E+02 -0.24256682270E+02  0.14693963464E+03  0.79364935506E+02 0.  0.
          5    1    5    5  501    0  0.14442060901E+02 -0.47156106866E+02 -0.42497090851E+02  0.65271465960E+02  0.47000000000E+01 0. -1.
        -13    1    6    6    0    0  0.23907802370E+02  0.29965538691E+01  0.22251784422E+02  0.32797930715E+02  0.00000000000E+00 0.  1.
         14    1    6    6    0    0  0.57221164189E+02  0.87126514165E+02 -0.46508466693E+02  0.11414170393E+03  0.00000000000E+00 0. -1.
         -5    1    3    3    0  503  0.13278219850E+02  0.32813155384E+02 -0.98064539137E+02  0.10436358620E+03  0.47000000000E+01 0.  1.
         11    1    4    4    0    0 -0.89511586405E+02 -0.84808446677E+02 -0.15714499090E+03  0.19974820373E+03  0.00000000000E+00 0. -1.
        -12    1    4    4    0    0 -0.19337660905E+02  0.90283301242E+01 -0.66734511262E+00  0.21351843564E+02  0.00000000000E+00 0.  1.
</event>
<event>
12    1  0.1627564E-001  0.2769813E+03  0.7818608E-02  0.1097407E+00
         21   -1    0    0  503  502  0.00000000000E+00  0.00000000000E+00  0.24634980176E+04  0.24634980176E+04  0.00000000000E+00 0.  1.
         21   -1    0    0  501  503 -0.00000000000E+00 -0.00000000000E+00 -0.39315317357E+02  0.39315317357E+02  0.00000000000E+00 0. -1.
          6    2    1    2  501    0 -0.21196970634E+03  0.45157000752E+02  0.17850430410E+04  0.18064045297E+04  0.17247711568E+03 0.  0.
         24    2    3    3    0    0 -0.21223804477E+03  0.53998786397E+02  0.12680708465E+04  0.12893352992E+04  0.80131052037E+02 0.  0.
         -6    2    1    2    0  502  0.21196970634E+03 -0.45157000752E+02  0.63913965916E+03  0.69640880522E+03  0.17180049169E+03 0.  0.
        -24    2    5    5    0    0  0.16814133063E+03 -0.95815084122E+02  0.49512770157E+03  0.53751040416E+03  0.79460407168E+02 0.  0.
          5    1    3    3  501    0  0.26833842458E+00 -0.88417856446E+01  0.51697219454E+03  0.51706923047E+03  0.47000000000E+01 0. -1.
        -11    1    4    4    0    0 -0.15952751174E+02  0.25910449866E+01  0.28944410220E+03  0.28989496733E+03  0.00000000000E+00 0.  1.
         12    1    4    4    0    0 -0.19628529360E+03  0.51407741410E+02  0.97862674431E+03  0.99944033190E+03  0.00000000000E+00 0. -1.
         -5    1    5    5    0  502  0.43828375713E+02  0.50658083369E+02  0.14401195759E+03  0.15889840106E+03  0.47000000000E+01 0.  1.
         11    1    6    6    0    0  0.15665973580E+02 -0.29583435308E+02  0.35738021053E+02  0.48967423065E+02  0.00000000000E+00 0. -1.
        -12    1    6    6    0    0  0.15247535705E+03 -0.66231648814E+02  0.45938968052E+03  0.48854298109E+03  0.00000000000E+00 0.  1.
</event>
<event>
12    1  0.1627564E-001  0.1805709E+03  0.7818608E-02  0.1167635E+00
         21   -1    0    0  503  502  0.00000000000E+00  0.00000000000E+00  0.10353467718E+03  0.10353467718E+03  0.00000000000E+00 0. -1.
         21   -1    0    0  501  503 -0.00000000000E+00 -0.00000000000E+00 -0.36008710344E+03  0.36008710344E+03  0.00000000000E+00 0. -1.
          6    2    1    2  501    0  0.49825287634E+02  0.12324028665E+02 -0.21234723632E+03  0.27771870856E+03  0.17146979717E+03 0.  0.
         24    2    3    3    0    0  0.55236228234E+02 -0.15114992504E+02 -0.44515920370E+02  0.10750819544E+03  0.79352637092E+02 0.  0.
         -6    2    1    2    0  502 -0.49825287634E+02 -0.12324028665E+02 -0.44205189934E+02  0.18590307206E+03  0.17312253583E+03 0.  0.
        -24    2    5    5    0    0  0.35876040660E+02 -0.31040994943E+02 -0.25062765310E+02  0.95994424429E+02  0.79599960151E+02 0.  0.
          5    1    3    3  501    0 -0.54109406005E+01  0.27439021169E+02 -0.16783131595E+03  0.17021051312E+03  0.47000000000E+01 0. -1.
        -13    1    4    4    0    0  0.83097685759E+01 -0.36015896274E+02 -0.42181528924E+02  0.56084564905E+02  0.00000000000E+00 0.  1.
         14    1    4    4    0    0  0.46926459658E+02  0.20900903770E+02 -0.23343914456E+01  0.51423630540E+02  0.00000000000E+00 0. -1.
         -5    1    5    5    0  502 -0.85701328293E+02  0.18716966278E+02 -0.19142424624E+02  0.89908647628E+02  0.47000000000E+01 0.  1.
         13    1    6    6    0    0 -0.17806792192E+02 -0.77509293019E+01  0.15454312516E+02  0.24819237066E+02  0.00000000000E+00 0. -1.
        -14    1    6    6    0    0  0.53682832852E+02 -0.23290065641E+02 -0.40517077826E+02  0.71175187363E+02  0.00000000000E+00 0.  1.
</event>
<event>
12    1  0.1627564E-001  0.1801206E+03  0.7818608E-02  0.1168027E+00
         21   -1    0    0  501  502  0.00000000000E+00  0.00000000000E+00  0.52517523788E+03  0.52517523788E+03  0.00000000000E+00 0. -1.
         21   -1    0    0  502  503 -0.00000000000E+00 -0.00000000000E+00 -0.86194714985E+02  0.86194714985E+02  0.00000000000E+00 0. -1.
         -6    2    1    2    0  503  0.52966362181E+02  0.29537710073E+01  0.55808897981E+02  0.18856847210E+03  0.17213156389E+03 0.  0.
        -24    2    3    3    0    0  0.97092558109E+02  0.43889911377E+02  0.44743015840E+02  0.12718905777E+03  0.53120897854E+02 0.  0.
          6    2    1    2  501    0 -0.52966362181E+02 -0.29537710073E+01  0.38317162491E+03  0.42280148077E+03  0.17066469382E+03 0.  0.
         24    2    5    5    0    0 -0.89321426942E+02  0.13809391229E+02  0.19728215468E+03  0.23259191349E+03  0.83724148654E+02 0.  0.
          5    1    5    5  501    0  0.36355064761E+02 -0.16763162236E+02  0.18588947023E+03  0.19020956728E+03  0.47000000000E+01 0. -1.
        -11    1    6    6    0    0 -0.29935438017E+02 -0.20105422147E+02  0.17182152114E+02  0.39944771876E+02  0.00000000000E+00 0.  1.
         12    1    6    6    0    0 -0.59385988925E+02  0.33914813376E+02  0.18010000257E+03  0.19264714161E+03  0.00000000000E+00 0. -1.
         -5    1    3    3    0  503 -0.44126195928E+02 -0.40936140370E+02  0.11065882141E+02  0.61379414326E+02  0.47000000000E+01 0.  1.
         13    1    4    4    0    0  0.57472412970E+02  0.12907338268E+01  0.71645006988E+01  0.57931634852E+02  0.00000000000E+00 0. -1.
        -14    1    4    4    0    0  0.39620145139E+02  0.42599177550E+02  0.37578515141E+02  0.69257422917E+02  0.00000000000E+00 0.  1.
</event>
<event>
12    1  0.1627564E-001  0.1737728E+03  0.7818608E-02  0.1174194E+00
         21   -1    0    0  501  502  0.00000000000E+00  0.00000000000E+00  0.19155846371E+03  0.19155846371E+03  0.00000000000E+00 0.  1.
         21   -1    0    0  502  503 -0.00000000000E+00 -0.00000000000E+00 -0.23890966502E+03  0.23890966502E+03  0.00000000000E+00 0.  1.
         -6    2    1    2    0  503  0.18136127014E+02  0.12782708966E+02 -0.14978748494E+03  0.22875006306E+03  0.17145840299E+03 0.  0.
        -24    2    3    3    0    0 -0.53105124760E+02  0.79884701094E+01 -0.60413243234E+02  0.11425925225E+03  0.80755475578E+02 0.  0.
          6    2    1    2  501    0 -0.18136127014E+02 -0.12782708966E+02  0.10243628363E+03  0.20171806567E+03  0.17235042518E+03 0.  0.
         24    2    5    5    0    0 -0.70639668324E+02 -0.31004497064E+02  0.81828207305E+02  0.14225851453E+03  0.87122832061E+02 0.  0.
          5    1    5    5  501    0  0.52503541310E+02  0.18221788098E+02  0.20608076328E+02  0.59459551138E+02  0.47000000000E+01 0. -1.
        -11    1    6    6    0    0 -0.37414132698E+02  0.29281231258E+02  0.34810319818E+02  0.58897930315E+02  0.00000000000E+00 0.  1.
         12    1    6    6    0    0 -0.33225535626E+02 -0.60285728322E+02  0.47017887487E+02  0.83360584215E+02  0.00000000000E+00 0. -1.
         -5    1    3    3    0  503  0.71241251774E+02  0.47942388563E+01 -0.89374241702E+02  0.11449081081E+03  0.47000000000E+01 0.  1.
         11    1    4    4    0    0 -0.31005489354E+02 -0.36103772163E+02 -0.31850165285E+02  0.57264786415E+02  0.00000000000E+00 0. -1.
        -12    1    4    4    0    0 -0.22099635406E+02  0.44092242273E+02 -0.28563077949E+02  0.56994465833E+02  0.00000000000E+00 0.  1.
</event>
<event>
12    1  0.1627564E-001  0.2326690E+03  0.7818608E-02  0.1124840E+00
         21   -1    0    0  503  502  0.00000000000E+00  0.00000000000E+00  0.72170925932E+03  0.72170925932E+03  0.00000000000E+00 0.  1.
         21   -1    0    0  501  503 -0.00000000000E+00 -0.00000000000E+00 -0.88123206650E+02  0.88123206650E+02  0.00000000000E+00 0. -1.
          6    2    1    2  501    0 -0.15296506842E+03  0.34824307852E+02  0.15965923535E+03  0.28187273764E+03  0.17131877953E+03 0.  0.
         24    2    3    3    0    0 -0.11787678364E+03 -0.41445824496E+02  0.10159212563E+03  0.17968565408E+03  0.79707476440E+02 0.  0.
         -6    2    1    2    0  502  0.15296506842E+03 -0.34824307852E+02  0.47392681732E+03  0.52795972833E+03  0.17182491666E+03 0.  0.
        -24    2    5    5    0    0  0.55512131659E+02 -0.43141359575E+02  0.11690741873E+03  0.15775547497E+03  0.79225448320E+02 0.  0.
          5    1    3    3  501    0 -0.35088284777E+02  0.76270132348E+02  0.58067109716E+02  0.10218708357E+03  0.47000000000E+01 0. -1.
        -13    1    4    4    0    0 -0.51626114635E+02  0.79539775930E+01  0.77762609934E+02  0.93677878795E+02  0.00000000000E+00 0.  1.
         14    1    4    4    0    0 -0.66250669009E+02 -0.49399802089E+02  0.23829515699E+02  0.86007775283E+02  0.00000000000E+00 0. -1.
         -5    1    5    5    0  502  0.97452936762E+02  0.83170517231E+01  0.35701939859E+03  0.37020425336E+03  0.47000000000E+01 0.  1.
         11    1    6    6    0    0  0.27798774581E+02 -0.58084928810E+02  0.10675675003E+03  0.12467411319E+03  0.00000000000E+00 0. -1.
        -12    1    6    6    0    0  0.27713357078E+02  0.14943569235E+02  0.10150668699E+02  0.33081361778E+02  0.00000000000E+00 0.  1.
</event>
<event>
12    1  0.1627564E-001  0.1918593E+03  0.7818608E-02  0.1156813E+00
         21   -1    0    0  503  502  0.00000000000E+00  0.00000000000E+00  0.11528440713E+04  0.11528440713E+04  0.00000000000E+00 0. -1.
         21   -1    0    0  501  503 -0.00000000000E+00 -0.00000000000E+00 -0.51564011219E+02  0.51564011219E+02  0.00000000000E+00 0. -1.
          6    2    1    2  501    0  0.71103763376E+02 -0.48986107456E+02  0.17898328716E+03  0.26238329354E+03  0.17133181770E+03 0.  0.
         24    2    3    3    0    0  0.10251179562E+03  0.36849463661E+01  0.12499155968E+03  0.18054258829E+03  0.80314937103E+02 0.  0.
         -6    2    1    2    0  502 -0.71103763376E+02  0.48986107456E+02  0.92229677290E+03  0.94202478896E+03  0.17124246500E+03 0.  0.
        -24    2    5    5    0    0 -0.86952569202E+02  0.89398533772E+02  0.73699263186E+03  0.75164605188E+03  0.79125221975E+02 0.  0.
          5    1    3    3  501    0 -0.31408032245E+02 -0.52671053822E+02  0.53991727475E+02  0.81840705251E+02  0.47000000000E+01 0. -1.
        -13    1    4    4    0    0 -0.15130498945E+01 -0.22271031836E+01 -0.98071430562E+01  0.10170022787E+02  0.00000000000E+00 0.  1.
         14    1    4    4    0    0  0.10402484552E+03  0.59120495497E+01  0.13479870274E+03  0.17037256550E+03  0.00000000000E+00 0. -1.
         -5    1    5    5    0  502  0.15848805826E+02 -0.40412426315E+02  0.18530414104E+03  0.19037873708E+03  0.47000000000E+01 0.  1.
         13    1    6    6    0    0 -0.52538960673E+01  0.51008581127E+02  0.37875504529E+03  0.38221049581E+03  0.00000000000E+00 0. -1.
        -14    1    6    6    0    0 -0.81698673135E+02  0.38389952645E+02  0.35823758657E+03  0.36943555607E+03  0.00000000000E+00 0.  1.
</event>
<event>
12    1  0.1627564E-001  0.1819670E+03  0.7818608E-02  0.1165918E+00
         21   -1    0    0  501  502  0.00000000000E+00  0.00000000000E+00  0.12415415229E+03  0.12415415229E+03  0.00000000000E+00 0.  1.
         21   -1    0    0  502  503 -0.00000000000E+00 -0.00000000000E+00 -0.99329076023E+03  0.99329076023E+03  0.00000000000E+00 0.  1.
         -6    2    1    2    0  503 -0.50296987537E+02  0.31679291275E+02 -0.91244671273E+03  0.93041441099E+03  0.17198432530E+03 0.  0.
        -24    2    3    3    0    0 -0.77491859222E+02 -0.21160768313E+02 -0.46387902591E+03  0.47790287234E+03  0.82186606923E+02 0.  0.
          6    2    1    2  501    0  0.50296987537E+02 -0.31679291275E+02  0.43310104791E+02  0.18703050153E+03  0.17196301601E+03 0.  0.
         24    2    5    5    0    0  0.36439219696E+02 -0.82610559995E+02  0.55308808383E+02  0.13269735556E+03  0.79982513928E+02 0.  0.
          5    1    5    5  501    0  0.13857767841E+02  0.50931268720E+02 -0.11998703592E+02  0.54333145969E+02  0.47000000000E+01 0. -1.
        -11    1    6    6    0    0  0.64812685314E+01 -0.78347943328E+02  0.63824882402E+02  0.10126214830E+03  0.00000000000E+00 0.  1.
         12    1    6    6    0    0  0.29957951164E+02 -0.42626166673E+01 -0.85160740192E+01  0.31435207260E+02  0.00000000000E+00 0. -1.
         -5    1    3    3    0  503  0.27194871685E+02  0.52840059588E+02 -0.44856768682E+03  0.45251153864E+03  0.47000000000E+01 0.  1.
         11    1    4    4    0    0 -0.57902525127E+02 -0.30850746361E+02 -0.15581297336E+03  0.16906257313E+03  0.00000000000E+00 0. -1.
        -12    1    4    4    0    0 -0.19589334094E+02  0.96899780485E+01 -0.30806605255E+03  0.30884029921E+03  0.00000000000E+00 0.  1.
</event>
<event>
12    1  0.1627564E-001  0.3178273E+03  0.7818608E-02  0.1076686E+00
         21   -1    0    0  501  502  0.00000000000E+00  0.00000000000E+00  0.24329576521E+03  0.24329576521E+03  0.00000000000E+00 0. -1.
         21   -1    0    0  502  503 -0.00000000000E+00 -0.00000000000E+00 -0.51201854606E+03  0.51201854606E+03  0.00000000000E+00 0.  1.
         -6    2    1    2    0  503 -0.82168872809E+02 -0.25423176653E+03 -0.29885231518E+03  0.43606208992E+03  0.17161563217E+03 0.  0.
        -24    2    3    3    0    0  0.15794334511E+02 -0.12693749855E+03 -0.18414954224E+03  0.23862998319E+03  0.81673896850E+02 0.  0.
          6    2    1    2  501    0  0.82168872809E+02  0.25423176653E+03  0.30129534334E+02  0.31925222136E+03  0.17212982668E+03 0.  0.
         24    2    5    5    0    0  0.76411461690E+02  0.24411563235E+03 -0.18764948520E+02  0.26877208262E+03  0.80343983384E+02 0.  0.
          5    1    5    5  501    0  0.57574111190E+01  0.10116134176E+02  0.48894482854E+02  0.50480138738E+02  0.47000000000E+01 0. -1.
        -11    1    6    6    0    0 -0.69374083204E+00  0.41243987777E+02 -0.30690385360E+02  0.51414468369E+02  0.00000000000E+00 0.  1.
         12    1    6    6    0    0  0.77105202522E+02  0.20287164457E+03  0.11925436840E+02  0.21735761425E+03  0.00000000000E+00 0. -1.
         -5    1    3    3    0  503 -0.97963207320E+02 -0.12729426798E+03 -0.11470277294E+03  0.19743210673E+03  0.47000000000E+01 0.  1.
         11    1    4    4    0    0  0.10159593677E+02 -0.34493969443E+02 -0.41454208078E+01  0.36197179245E+02  0.00000000000E+00 0. -1.
        -12    1    4    4    0    0  0.56347408335E+01 -0.92443529106E+02 -0.18000412143E+03  0.20243280394E+03  0.00000000000E+00 0.  1.
</event>
<event>
12    1  0.1627564E-001  0.2295240E+03  0.7818608E-02  0.1127513E+00
         21   -1    0    0  501  502  0.00000000000E+00  0.00000000000E+00  0.65082760512E+03  0.65082760512E+03  0.00000000000E+00 0. -1.
         21   -1    0    0  502  503 -0.00000000000E+00 -0.00000000000E+00 -0.85640889070E+02  0.85640889070E+02  0.00000000000E+00 0. -1.
         -6    2    1    2    0  503 -0.14951600119E+03 -0.22582641661E+02  0.18534373524E+03  0.29266453930E+03  0.16862746530E+03 0.  0.
        -24    2    3    3    0    0 -0.16024861134E+03 -0.27272214886E+01  0.19560677716E+03  0.26742871832E+03  0.87000304259E+02 0.  0.
          6    2    1    2  501    0  0.14951600119E+03  0.22582641661E+02  0.37984298081E+03  0.44380395489E+03  0.17267382543E+03 0.  0.
         24    2    5    5    0    0  0.44674427445E+01 -0.13922430636E+02  0.10685809181E+03  0.13249294604E+03  0.76954121689E+02 0.  0.
          5    1    5    5  501    0  0.14504855845E+03  0.36505072297E+02  0.27298488900E+03  0.31131100886E+03  0.47000000000E+01 0. -1.
        -13    1    6    6    0    0  0.12114601351E+02 -0.39141571153E+02  0.95264845389E+02  0.10370254059E+03  0.00000000000E+00 0.  1.
         14    1    6    6    0    0 -0.76471586064E+01  0.25219140517E+02  0.11593246421E+02  0.28790405446E+02  0.00000000000E+00 0. -1.
         -5    1    3    3    0  503  0.10732610145E+02 -0.19855420173E+02 -0.10263041922E+02  0.25235820974E+02  0.47000000000E+01 0.  1.
         13    1    4    4    0    0 -0.73589241299E+02  0.22514867994E+02  0.38050348393E+02  0.85849430566E+02  0.00000000000E+00 0. -1.
        -14    1    4    4    0    0 -0.86659370037E+02 -0.25242089483E+02  0.15755642877E+03  0.18157928776E+03  0.00000000000E+00 0.  1.
</event>
<event>
12    1  0.1627564E-001  0.1866332E+03  0.7818608E-02  0.1162056E+00
         21   -1    0    0  501  502  0.00000000000E+00  0.00000000000E+00  0.24592960636E+03  0.24592960636E+03  0.00000000000E+00 0.  1.
         21   -1    0    0  502  503 -0.00000000000E+00 -0.00000000000E+00 -0.14860810235E+03  0.14860810235E+03  0.00000000000E+00 0. -1.
         -6    2    1    2    0  503 -0.11171048492E+02 -0.69423352562E+02  0.96601698309E+02  0.21015195116E+03  0.17288019047E+03 0.  0.
        -24    2    3    3    0    0 -0.12046991306E+02 -0.26007891767E+02 -0.18878217846E+02  0.86687905601E+02  0.79604431000E+02 0.  0.
          6    2    1    2  501    0  0.11171048492E+02  0.69423352562E+02  0.71980570670E+00  0.18438575755E+03  0.17044997877E+03 0.  0.
         24    2    5    5    0    0  0.46964356724E+02 -0.13557967263E+02  0.87304345930E+01  0.93537969853E+02  0.79269553028E+02 0.  0.
          5    1    5    5  501    0 -0.35793308232E+02  0.82981319825E+02 -0.80106288863E+01  0.90847787696E+02  0.47000000000E+01 0. -1.
        -13    1    6    6    0    0  0.56580870573E+01  0.12459331016E+02  0.35370365257E+02  0.37925078997E+02  0.00000000000E+00 0.  1.
         14    1    6    6    0    0  0.41306269667E+02 -0.26017298279E+02 -0.26639930664E+02  0.55612890856E+02  0.00000000000E+00 0. -1.
         -5    1    3    3    0  503  0.87594281389E+00 -0.43415460795E+02  0.11547991615E+03  0.12346404556E+03  0.47000000000E+01 0.  1.
         11    1    4    4    0    0 -0.21558788675E+02  0.20211421238E+02 -0.25506545825E+02  0.39036736512E+02  0.00000000000E+00 0. -1.
        -12    1    4    4    0    0  0.95117973686E+01 -0.46219313005E+02  0.66283279789E+01  0.47651169090E+02  0.00000000000E+00 0.  1.
</event>
<event>
12    1  0.1627564E-001  0.3064731E+03  0.7818608E-02  0.1082052E+00
         21   -1    0    0  501  502  0.00000000000E+00  0.00000000000E+00  0.38594417597E+03  0.38594417597E+03  0.00000000000E+00 0. -1.
         21   -1    0    0  502  503 -0.00000000000E+00 -0.00000000000E+00 -0.26843438775E+03  0.26843438775E+03  0.00000000000E+00 0.  1.
         -6    2    1    2    0  503  0.23597512484E+03  0.94032182357E+02 -0.41279385070E+02  0.30921224949E+03  0.17141154203E+03 0.  0.
        -24    2    3    3    0    0  0.22841711502E+03  0.52059501462E+02  0.29368959996E+01  0.24760057068E+03  0.80080254245E+02 0.  0.
          6    2    1    2  501    0 -0.23597512484E+03 -0.94032182357E+02  0.15878917329E+03  0.34516631423E+03  0.17146274249E+03 0.  0.
         24    2    5    5    0    0 -0.30247128449E+02 -0.24562418853E+02  0.34083590967E+02  0.94719455988E+02  0.79321390370E+02 0.  0.
          5    1    5    5  501    0 -0.20572799639E+03 -0.69469763504E+02  0.12470558232E+03  0.25044685824E+03  0.47000000000E+01 0. -1.
        -11    1    6    6    0    0 -0.27540373436E+02 -0.40725563022E+02 -0.77682438488E+01  0.49773379079E+02  0.00000000000E+00 0.  1.
         12    1    6    6    0    0 -0.27067550128E+01  0.16163144169E+02  0.41851834815E+02  0.44946076909E+02  0.00000000000E+00 0. -1.
         -5    1    3    3    0  503  0.75580098245E+01  0.41972680895E+02 -0.44216281070E+02  0.61611678809E+02  0.47000000000E+01 0.  1.
         11    1    4    4    0    0  0.56737363592E+02 -0.16487692444E+02 -0.17485342909E+02  0.61617445956E+02  0.00000000000E+00 0. -1.
        -12    1    4    4    0    0  0.17167975142E+03  0.68547193906E+02  0.20422238908E+02  0.18598312473E+03  0.00000000000E+00 0.  1.
</event>
<event>
12    1  0.1627564E-001  0.2829595E+03  0.7818608E-02  0.1094591E+00
         21   -1    0    0  501  502  0.00000000000E+00  0.00000000000E+00  0.95427238602E+02  0.95427238602E+02  0.00000000000E+00 0. -1.
         21   -1    0    0  502  503 -0.00000000000E+00 -0.00000000000E+00 -0.82855575335E+03  0.82855575335E+03  0.00000000000E+00 0.  1.
         -6    2    1    2    0  503  0.86989799881E+02  0.20752513955E+03 -0.38132002870E+03  0.47483788682E+03  0.17155799497E+03 0.  0.
        -24    2    3    3    0    0  0.10745561810E+03  0.20740556188E+03 -0.37824162637E+03  0.45361453705E+03  0.90197801230E+02 0.  0.
          6    2    1    2  501    0 -0.86989799881E+02 -0.20752513955E+03 -0.35180848605E+03  0.44914510514E+03  0.16531244897E+03 0.  0.
         24    2    5    5    0    0 -0.11026846079E+03 -0.20903942044E+03 -0.34208812590E+03  0.42343976519E+03  0.80126999944E+02 0.  0.
          5    1    5    5  501    0  0.23278660909E+02  0.15142808909E+01 -0.97203601473E+01  0.25705339946E+02  0.47000000000E+01 0. -1.
        -11    1    6    6    0    0 -0.61562370776E+01 -0.16816635789E+02 -0.80812380285E+02  0.82772817407E+02  0.00000000000E+00 0.  1.
         12    1    6    6    0    0 -0.10411222371E+03 -0.19222278465E+03 -0.26127574562E+03  0.34066694779E+03  0.00000000000E+00 0. -1.
         -5    1    3    3    0  503 -0.20465818219E+02  0.11957767343E+00 -0.30784023271E+01  0.21223349761E+02  0.47000000000E+01 0.  1.
         11    1    4    4    0    0  0.20609547216E+01  0.81086788635E+02 -0.85775919690E+02  0.11805432319E+03  0.00000000000E+00 0. -1.
        -12    1    4    4    0    0  0.10539466338E+03  0.12631877324E+03 -0.29246570668E+03  0.33556021386E+03  0.00000000000E+00 0.  1.
</event>
<event>
12    1  0.1627564E-001  0.1959199E+03  0.7818608E-02  0.1153649E+00
         21   -1    0    0  501  502  0.00000000000E+00  0.00000000000E+00  0.14453651396E+04  0.14453651396E+04  0.00000000000E+00 0.  1.
         21   -1    0    0  502  503 -0.00000000000E+00 -0.00000000000E+00 -0.62240744762E+02  0.62240744762E+02  0.00000000000E+00 0. -1.
         -6    2    1    2    0  503  0.61912757723E+02 -0.71376928724E+02  0.11726168294E+03  0.22667144972E+03  0.16941602141E+03 0.  0.
        -24    2    3    3    0    0  0.59572676591E+02  0.19262618760E+02  0.63125658369E+02  0.12096524033E+03  0.82023096414E+02 0.  0.
          6    2    1    2  501    0 -0.61912757723E+02  0.71376928724E+02  0.12658627119E+04  0.12809344346E+04  0.17162973214E+03 0.  0.
         24    2    5    5    0    0 -0.58593089709E+01  0.10483041027E+03  0.80165792400E+03  0.81213885056E+03  0.76748544374E+02 0.  0.
          5    1    5    5  501    0 -0.56053448752E+02 -0.33453481542E+02  0.46420478790E+03  0.46879558408E+03  0.47000000000E+01 0. -1.
        -13    1    6    6    0    0 -0.15658938559E+02  0.96640567537E+02  0.46286446821E+03  0.47310476385E+03  0.00000000000E+00 0.  1.
         14    1    6    6    0    0  0.97996295879E+01  0.81898427296E+01  0.33879345579E+03  0.33903408671E+03  0.00000000000E+00 0. -1.
         -5    1    3    3    0  503  0.23400811320E+01 -0.90639547485E+02  0.54136024571E+02  0.10570620939E+03  0.47000000000E+01 0.  1.
         11    1    4    4    0    0  0.24430271831E+02  0.47893612130E+02  0.50852298814E+02  0.74004003671E+02  0.00000000000E+00 0. -1.
        -12    1    4    4    0    0  0.35142404759E+02 -0.28630993370E+02  0.12273359555E+02  0.46961236657E+02  0.00000000000E+00 0.  1.
</event>
<event>
12    1  0.1627564E-001  0.1766962E+03  0.7818608E-02  0.1171105E+00
         21   -1    0    0  501  502  0.00000000000E+00  0.00000000000E+00  0.48602572272E+02  0.48602572272E+02  0.00000000000E+00 0.  1.
         21   -1    0    0  502  503 -0.00000000000E+00 -0.00000000000E+00 -0.75280290178E+03  0.75280290178E+03  0.00000000000E+00 0.  1.
         -6    2    1    2    0  503  0.23913677743E+02  0.31933921564E+02 -0.50600522642E+03  0.53588178666E+03  0.17186145809E+03 0.  0.
        -24    2    3    3    0    0 -0.46477138071E+02  0.20012264293E+02 -0.21020712020E+03  0.23155367014E+03  0.82882167466E+02 0.  0.
          6    2    1    2  501    0 -0.23913677743E+02 -0.31933921564E+02 -0.19819510309E+03  0.26552368740E+03  0.17213335049E+03 0.  0.
         24    2    5    5    0    0 -0.55117949128E+02  0.25374885554E+02 -0.68110331120E+02  0.11991412787E+03  0.77836416450E+02 0.  0.
          5    1    5    5  501    0  0.31204271385E+02 -0.57308807118E+02 -0.13008477197E+03  0.14560955952E+03  0.47000000000E+01 0. -1.
        -11    1    6    6    0    0  0.11061145017E+02 -0.94190053332E+01  0.49777007083E+01  0.15357216379E+02  0.00000000000E+00 0.  1.
         12    1    6    6    0    0 -0.66179094146E+02  0.34793890888E+02 -0.73088031829E+02  0.10455691150E+03  0.00000000000E+00 0. -1.
         -5    1    3    3    0  503  0.70390815814E+02  0.11921657271E+02 -0.29579810622E+03  0.30432811652E+03  0.47000000000E+01 0.  1.
         13    1    4    4    0    0 -0.68277240468E+02  0.86747579636E+01 -0.17938613366E+03  0.19213645656E+03  0.00000000000E+00 0. -1.
        -14    1    4    4    0    0  0.21800102397E+02  0.11337506330E+02 -0.30820986546E+02  0.39417213574E+02  0.00000000000E+00 0.  1.
</event>
<event>
12    1  0.1627564E-001  0.1728392E+03  0.7818608E-02  0.1176441E+00
         21   -1    0    0  503  502  0.00000000000E+00  0.00000000000E+00  0.18504879566E+03  0.18504879566E+03  0.00000000000E+00 0. -1.
         21   -1    0    0  501  503 -0.00000000000E+00 -0.00000000000E+00 -0.20725736245E+03  0.20725736245E+03  0.00000000000E+00 0. -1.
          6    2    1    2  501    0  0.13097048941E+02 -0.13572542651E+02 -0.10877514294E+03  0.20421905431E+03  0.17180699583E+03 0.  0.
         24    2    3    3    0    0  0.32125033368E+01  0.17081176438E+02 -0.26143349284E+02  0.11540769209E+03  0.11105572438E+03 0.  0.
         -6    2    1    2    0  502 -0.13097048941E+02  0.13572542651E+02  0.86566576156E+02  0.18808710379E+03  0.16591335058E+03 0.  0.
        -24    2    5    5    0    0 -0.41580429800E+01  0.68787279533E+02  0.33679123549E+02  0.11096547492E+03  0.80187742917E+02 0.  0.
          5    1    3    3  501    0  0.98845456040E+01 -0.30653719088E+02 -0.82631793661E+02  0.88811362220E+02  0.47000000000E+01 0. -1.
        -13    1    4    4    0    0 -0.74897918816E+01 -0.51373150253E+01  0.41983402947E+02  0.42954570317E+02  0.00000000000E+00 0.  1.
         14    1    4    4    0    0  0.10702295218E+02  0.22218491463E+02 -0.68126752231E+02  0.72453121778E+02  0.00000000000E+00 0. -1.
         -5    1    5    5    0  502 -0.89390059608E+01 -0.55214736882E+02  0.52887452607E+02  0.77121628871E+02  0.47000000000E+01 0.  1.
         13    1    6    6    0    0 -0.28238148709E+02 -0.44291849226E+01  0.72901237433E+01  0.29498417344E+02  0.00000000000E+00 0. -1.
        -14    1    6    6    0    0  0.24080105729E+02  0.73216464455E+02  0.26388999806E+02  0.81467057576E+02  0.00000000000E+00 0.  1.
</event>
<event>
12    1  0.1627564E-001  0.1776109E+03  0.7818608E-02  0.1170899E+00
         21   -1    0    0  501  502  0.00000000000E+00  0.00000000000E+00  0.15842015405E+04  0.15842015405E+04  0.00000000000E+00 0. -1.
         21   -1    0    0  502  503 -0.00000000000E+00 -0.00000000000E+00 -0.32370418408E+02  0.32370418408E+02  0.00000000000E+00 0. -1.
         -6    2    1    2    0  503 -0.36137080561E+02  0.19123178016E+02  0.27173288789E+03  0.32462960746E+03  0.17284106905E+03 0.  0.
        -24    2    3    3    0    0 -0.49376093813E+02  0.42503984962E+02  0.27828405069E+03  0.29657713271E+03  0.79192142285E+02 0.  0.
          6    2    1    2  501    0  0.36137080561E+02 -0.19123178016E+02  0.12800982342E+04  0.12919423515E+04  0.16968195465E+03 0.  0.
         24    2    5    5    0    0  0.40461851458E+02 -0.71747152540E+02  0.67889168705E+03  0.68840329831E+03  0.78869278206E+02 0.  0.
          5    1    5    5  501    0 -0.43247708963E+01  0.52623974524E+02  0.60120654716E+03  0.60353905316E+03  0.47000000000E+01 0. -1.
        -13    1    6    6    0    0 -0.10347206982E+02 -0.50013854854E+01  0.13432566626E+02  0.17678020117E+02  0.00000000000E+00 0.  1.
         14    1    6    6    0    0  0.50809058440E+02 -0.66745767054E+02  0.66545912043E+03  0.67072527819E+03  0.00000000000E+00 0. -1.
         -5    1    3    3    0  503  0.13239013252E+02 -0.23380806946E+02 -0.65511628032E+01  0.28052474746E+02  0.47000000000E+01 0.  1.
         13    1    4    4    0    0 -0.34063153132E+01  0.15820399917E+02  0.33164941807E+01  0.16519296934E+02  0.00000000000E+00 0. -1.
        -14    1    4    4    0    0 -0.45969778500E+02  0.26683585045E+02  0.27496755651E+03  0.28005783578E+03  0.00000000000E+00 0.  1.
</event>
<event>
12    1  0.1627564E-001  0.1864114E+03  0.7818608E-02  0.1161794E+00
         21   -1    0    0  501  502  0.00000000000E+00  0.00000000000E+00  0.41596878168E+03  0.41596878168E+03  0.00000000000E+00 0.  1.
         21   -1    0    0  502  503 -0.00000000000E+00 -0.00000000000E+00 -0.61319584550E+03  0.61319584550E+03  0.00000000000E+00 0.  1.
         -6    2    1    2    0  503  0.35326288015E+02 -0.67427506413E+02 -0.57691885817E+03  0.60628754227E+03  0.17016109941E+03 0.  0.
        -24    2    3    3    0    0  0.25108587258E+02 -0.12824779314E+02 -0.51703251005E+03  0.52446869416E+03  0.83365931780E+02 0.  0.
          6    2    1    2  501    0 -0.35326288015E+02  0.67427506413E+02  0.37969179436E+03  0.42287708492E+03  0.16989630661E+03 0.  0.
         24    2    5    5    0    0 -0.42659768076E+02 -0.63914386832E+01  0.11932080726E+03  0.15210382644E+03  0.83889288181E+02 0.  0.
          5    1    5    5  501    0  0.73334800612E+01  0.73818945096E+02  0.26037098710E+03  0.27077325848E+03  0.47000000000E+01 0. -1.
        -11    1    6    6    0    0 -0.58723941640E+02  0.17968908449E+02  0.59316466438E+02  0.85380478935E+02  0.00000000000E+00 0.  1.
         12    1    6    6    0    0  0.16064173564E+02 -0.24360347132E+02  0.60004340818E+02  0.66723347500E+02  0.00000000000E+00 0. -1.
         -5    1    3    3    0  503  0.10217700757E+02 -0.54602727099E+02 -0.59886348121E+02  0.81818848114E+02  0.47000000000E+01 0.  1.
         13    1    4    4    0    0  0.16089196347E+02  0.15091882790E+02 -0.33895116914E+02  0.40441391122E+02  0.00000000000E+00 0. -1.
        -14    1    4    4    0    0  0.90193909112E+01 -0.27916662104E+02 -0.48313739314E+03  0.48402730304E+03  0.00000000000E+00 0.  1.
</event>
<event>
12    1  0.1627564E-001  0.2253836E+03  0.7818608E-02  0.1129958E+00
         21   -1    0    0  503  502  0.00000000000E+00  0.00000000000E+00  0.11893079779E+04  0.11893079779E+04  0.00000000000E+00 0. -1.
         21   -1    0    0  501  503 -0.00000000000E+00 -0.00000000000E+00 -0.61651021724E+02  0.61651021724E+02  0.00000000000E+00 0.  1.
          6    2    1    2  501    0 -0.13738202917E+03 -0.48507270239E+02  0.21678009265E+03  0.31261234573E+03  0.17177337665E+03 0.  0.
         24    2    3    3    0    0 -0.14335332101E+03 -0.57657520761E+02  0.11297626557E+03  0.20812929481E+03  0.81728834785E+02 0.  0.
         -6    2    1    2    0  502  0.13738202917E+03  0.48507270239E+02  0.91087686356E+03  0.93834665393E+03  0.17196222017E+03 0.  0.
        -24    2    5    5    0    0  0.74853667011E+02 -0.28585620356E+02  0.64137987464E+03  0.65111185992E+03  0.78474845488E+02 0.  0.
          5    1    3    3  501    0  0.59712918309E+01  0.91502505221E+01  0.10380382709E+03  0.10448305092E+03  0.47000000000E+01 0. -1.
        -13    1    4    4    0    0 -0.13590476940E+03 -0.27724003484E+02  0.70382513396E+02  0.15553914268E+03  0.00000000000E+00 0.  1.
         14    1    4    4    0    0 -0.74485516094E+01 -0.29933517277E+02  0.42593752170E+02  0.52590152134E+02  0.00000000000E+00 0. -1.
         -5    1    5    5    0  502  0.62528362164E+02  0.77092890595E+02  0.26949698892E+03  0.28723479401E+03  0.47000000000E+01 0.  1.
         11    1    6    6    0    0 -0.20156034529E+01  0.17370537728E+02  0.49576275394E+02  0.52570003996E+02  0.00000000000E+00 0. -1.
        -12    1    6    6    0    0  0.76869270464E+02 -0.45956158084E+02  0.59180359925E+03  0.59854185592E+03  0.00000000000E+00 0.  1.
</event>
<event>
12    1  0.1627564E-001  0.1930295E+03  0.7818608E-02  0.1155905E+00
         21   -1    0    0  503  502  0.00000000000E+00  0.00000000000E+00  0.19104285732E+03  0.19104285732E+03  0.00000000000E+00 0. -1.
         21   -1    0    0  501  503 -0.00000000000E+00 -0.00000000000E+00 -0.39256443995E+03  0.39256443995E+03  0.00000000000E+00 0. -1.
          6    2    1    2  501    0  0.70857041800E+02  0.51437279604E+02 -0.30819105757E+03  0.36365107789E+03  0.17202867312E+03 0.  0.
         24    2    3    3    0    0 -0.31316301848E-01 -0.25368693466E+02 -0.10881989004E+03  0.13849497813E+03  0.81826150531E+02 0.  0.
         -6    2    1    2    0  502 -0.70857041800E+02 -0.51437279604E+02  0.10666947494E+03  0.21995621938E+03  0.17127710721E+03 0.  0.
        -24    2    5    5    0    0 -0.63249286544E+02 -0.29951473776E+02  0.14333811131E+03  0.17652585344E+03  0.75617456652E+02 0.  0.
          5    1    3    3  501    0  0.70888358102E+02  0.76805973070E+02 -0.19937116753E+03  0.22515609975E+03  0.47000000000E+01 0. -1.
        -13    1    4    4    0    0  0.16503682272E+02 -0.18269052041E+02  0.33894363370E+01  0.24851922857E+02  0.00000000000E+00 0.  1.
         14    1    4    4    0    0 -0.16534998574E+02 -0.70996414251E+01 -0.11220932638E+03  0.11364305528E+03  0.00000000000E+00 0. -1.
         -5    1    5    5    0  502 -0.76077552562E+01 -0.21485805828E+02 -0.36668636373E+02  0.43430365938E+02  0.47000000000E+01 0.  1.
         11    1    6    6    0    0  0.14429058510E+02  0.57350687835E+01  0.36733708056E+02  0.39880497125E+02  0.00000000000E+00 0. -1.
        -12    1    6    6    0    0 -0.77678345054E+02 -0.35686542559E+02  0.10660440325E+03  0.13664535632E+03  0.00000000000E+00 0.  1.
</event>
<event>
12    1  0.1627564E-001  0.1748713E+03  0.7818608E-02  0.1173054E+00
         21   -1    0    0  503  502  0.00000000000E+00  0.00000000000E+00  0.10327218883E+03  0.10327218883E+03  0.00000000000E+00 0. -1.
         21   -1    0    0  501  503 -0.00000000000E+00 -0.00000000000E+00 -0.29527442248E+03  0.29527442248E+03  0.00000000000E+00 0. -1.
          6    2    1    2  501    0  0.22280152237E+02  0.20630091940E+02 -0.10407134652E+03  0.20349648806E+03  0.17221489369E+03 0.  0.
         24    2    3    3    0    0 -0.51845704651E+02  0.24613975210E+01 -0.75976452611E+02  0.12203387590E+03  0.80161149855E+02 0.  0.
         -6    2    1    2    0  502 -0.22280152237E+02 -0.20630091940E+02 -0.87930887137E+02  0.19505012325E+03  0.17143717156E+03 0.  0.
        -24    2    5    5    0    0 -0.41270232919E+01  0.41421192012E+01  0.25971177223E+02  0.76986713168E+02  0.72237542077E+02 0.  0.
          5    1    3    3  501    0  0.74125856888E+02  0.18168694419E+02 -0.28094893909E+02  0.81462612161E+02  0.47000000000E+01 0. -1.
        -13    1    4    4    0    0 -0.81095979796E+01 -0.20925743135E+02  0.85626927965E+01  0.24020241736E+02  0.00000000000E+00 0.  1.
         14    1    4    4    0    0 -0.43736106672E+02  0.23387140656E+02 -0.84539145408E+02  0.98013634159E+02  0.00000000000E+00 0. -1.
         -5    1    5    5    0  502 -0.18153128945E+02 -0.24772211142E+02 -0.11390206436E+03  0.11806341009E+03  0.47000000000E+01 0.  1.
         11    1    6    6    0    0  0.25753384305E+02 -0.20437078178E+02  0.18004352086E+02  0.37484232174E+02  0.00000000000E+00 0. -1.
        -12    1    6    6    0    0 -0.29880407597E+02  0.24579197380E+02  0.79668251371E+01  0.39502480995E+02  0.00000000000E+00 0.  1.
</event>
<event>
12    1  0.1627564E-001  0.1758833E+03  0.7818608E-02  0.1175715E+00
         21   -1    0    0  501  502  0.00000000000E+00  0.00000000000E+00  0.75325671837E+03  0.75325671837E+03  0.00000000000E+00 0.  1.
         21   -1    0    0  502  503 -0.00000000000E+00 -0.00000000000E+00 -0.56602233428E+02  0.56602233428E+02  0.00000000000E+00 0.  1.
         -6    2    1    2    0  503 -0.13686864233E+02 -0.27345895189E+02  0.10420369896E+03  0.19185178512E+03  0.15815678404E+03 0.  0.
        -24    2    3    3    0    0  0.28508396394E+02  0.97480775714E+01  0.10594732050E+03  0.13544670511E+03  0.78823990776E+02 0.  0.
          6    2    1    2  501    0  0.13686864233E+02  0.27345895189E+02  0.59245078597E+03  0.61800716668E+03  0.17320449193E+03 0.  0.
         24    2    5    5    0    0  0.38921393311E+02  0.12045943032E+02  0.15012656530E+03  0.17467469979E+03  0.79456186288E+02 0.  0.
          5    1    5    5  501    0 -0.25234529078E+02  0.15299952157E+02  0.44232422068E+03  0.44333246688E+03  0.47000000000E+01 0. -1.
        -13    1    6    6    0    0  0.60428711270E+02  0.81997387241E+01  0.13490083203E+03  0.14804424792E+03  0.00000000000E+00 0.  1.
         14    1    6    6    0    0 -0.21507317959E+02  0.38462043084E+01  0.15225733270E+02  0.26630451873E+02  0.00000000000E+00 0. -1.
         -5    1    3    3    0  503 -0.42195260627E+02 -0.37093972761E+02 -0.17436215413E+01  0.56405080007E+02  0.47000000000E+01 0.  1.
         11    1    4    4    0    0  0.36798568336E+02  0.11384263054E+02  0.10910105570E+02  0.40034566070E+02  0.00000000000E+00 0. -1.
        -12    1    4    4    0    0 -0.82901719419E+01 -0.16361854822E+01  0.95037214935E+02  0.95412139041E+02  0.00000000000E+00 0.  1.
</event>
<event>
12    1  0.1627564E-001  0.2935073E+03  0.7818608E-02  0.1088652E+00
         21   -1    0    0  501  502  0.00000000000E+00  0.00000000000E+00  0.42853140274E+03  0.42853140274E+03  0.00000000000E+00 0. -1.
         21   -1    0    0  502  503 -0.00000000000E+00 -0.00000000000E+00 -0.58274479097E+03  0.58274479097E+03  0.00000000000E+00 0. -1.
         -6    2    1    2    0  503  0.10908474650E+03 -0.21161148375E+03 -0.48664108046E+03  0.56781853471E+03  0.17005718215E+03 0.  0.
        -24    2    3    3    0    0  0.24237005415E+02 -0.67868561750E+02 -0.26597250153E+03  0.29109145162E+03  0.93804517636E+02 0.  0.
          6    2    1    2  501    0 -0.10908474650E+03  0.21161148375E+03  0.33242769222E+03  0.44345765900E+03  0.17166136080E+03 0.  0.
         24    2    5    5    0    0 -0.14578006287E+03  0.17986248933E+03  0.27870066315E+03  0.37090954708E+03  0.79356730512E+02 0.  0.
          5    1    5    5  501    0  0.36695316363E+02  0.31748994419E+02  0.53727029076E+02  0.72548111919E+02  0.47000000000E+01 0. -1.
        -13    1    6    6    0    0 -0.14365666839E+03  0.13859852664E+03  0.20322038596E+03  0.28486016785E+03  0.00000000000E+00 0.  1.
         14    1    6    6    0    0 -0.21233944796E+01  0.41263962692E+02  0.75480277188E+02  0.86049379228E+02  0.00000000000E+00 0. -1.
         -5    1    3    3    0  503  0.84847741086E+02 -0.14374292200E+03 -0.22066857893E+03  0.27672708309E+03  0.47000000000E+01 0.  1.
         11    1    4    4    0    0  0.50390572232E+02 -0.15953956830E+02 -0.77117513014E+02  0.93492509443E+02  0.00000000000E+00 0. -1.
        -12    1    4    4    0    0 -0.26153566816E+02 -0.51914604920E+02 -0.18885498852E+03  0.19759894218E+03  0.00000000000E+00 0.  1.
</event>
<event>
12    1  0.1627564E-001  0.1916978E+03  0.7818608E-02  0.1157587E+00
         21   -1    0    0  501  502  0.00000000000E+00  0.00000000000E+00  0.53867253863E+03  0.53867253863E+03  0.00000000000E+00 0.  1.
         21   -1    0    0  502  503 -0.00000000000E+00 -0.00000000000E+00 -0.74168534618E+02  0.74168534618E+02  0.00000000000E+00 0.  1.
         -6    2    1    2    0  503  0.74230921060E+02  0.25857844700E+02  0.32779383192E+03  0.37973258615E+03  0.17484045003E+03 0.  0.
        -24    2    3    3    0    0 -0.17975000800E+02  0.39995634071E+02  0.10637440870E+03  0.13941933206E+03  0.78736801606E+02 0.  0.
          6    2    1    2  501    0 -0.74230921060E+02 -0.25857844700E+02  0.13671017209E+03  0.23310848709E+03  0.17167130753E+03 0.  0.
         24    2    5    5    0    0 -0.59115433657E+02 -0.57166960236E+02  0.15530754369E+03  0.19340091974E+03  0.80751388763E+02 0.  0.
          5    1    5    5  501    0 -0.15115487403E+02  0.31309115536E+02 -0.18597371601E+02  0.39707567359E+02  0.47000000000E+01 0. -1.
        -13    1    6    6    0    0  0.17504093027E+02 -0.17007018555E+02  0.59537971978E+02  0.64345956050E+02  0.00000000000E+00 0.  1.
         14    1    6    6    0    0 -0.76619526684E+02 -0.40159941681E+02  0.95769571717E+02  0.12905496369E+03  0.00000000000E+00 0. -1.
         -5    1    3    3    0  503  0.92205921861E+02 -0.14137789371E+02  0.22141942322E+03  0.24031325409E+03  0.47000000000E+01 0.  1.
         13    1    4    4    0    0 -0.27243768686E+02 -0.30281633570E+00  0.21952185081E+01  0.27333744973E+02  0.00000000000E+00 0. -1.
        -14    1    4    4    0    0  0.92687678862E+01  0.40298450407E+02  0.10417919019E+03  0.11208558709E+03  0.00000000000E+00 0.  1.
</event>
<event>
12    1  0.1627564E-001  0.2108166E+03  0.7818608E-02  0.1140921E+00
         21   -1    0    0  501  502  0.00000000000E+00  0.00000000000E+00  0.46177878980E+03  0.46177878980E+03  0.00000000000E+00 0. -1.
         21   -1    0    0  502  503 -0.00000000000E+00 -0.00000000000E+00 -0.10532464712E+03  0.10532464712E+03  0.00000000000E+00 0.  1.
         -6    2    1    2    0  503 -0.12142774482E+03  0.12130062500E+02  0.26148748742E+03  0.33588428409E+03  0.17190320123E+03 0.  0.
        -24    2    3    3    0    0 -0.91690320251E+02 -0.27705789588E+01  0.27372984701E+03  0.30013083804E+03  0.82071309641E+02 0.  0.
          6    2    1    2  501    0  0.12142774482E+03 -0.12130062500E+02  0.94966655266E+02  0.23121915284E+03  0.17190635648E+03 0.  0.
         24    2    5    5    0    0  0.67212444703E+02  0.37893384429E+02 -0.39866190907E-01  0.11084484857E+03  0.79581138203E+02 0.  0.
          5    1    5    5  501    0  0.54215300115E+02 -0.50023446929E+02  0.95006521457E+02  0.12037430427E+03  0.47000000000E+01 0. -1.
        -11    1    6    6    0    0  0.62401431330E+02  0.13634689029E+02  0.31129807409E+02  0.71055670332E+02  0.00000000000E+00 0.  1.
         12    1    6    6    0    0  0.48110133729E+01  0.24258695400E+02 -0.31169673600E+02  0.39789178234E+02  0.00000000000E+00 0. -1.
         -5    1    3    3    0  503 -0.29737424567E+02  0.14900641459E+02 -0.12242359591E+02  0.35753446045E+02  0.47000000000E+01 0.  1.
         13    1    4    4    0    0 -0.82205691022E+02 -0.17123609615E+02  0.12608678841E+03  0.15148885059E+03  0.00000000000E+00 0. -1.
        -14    1    4    4    0    0 -0.94846292294E+01  0.14353030657E+02  0.14764305860E+03  0.14864198745E+03  0.00000000000E+00 0.  1.
</event>
<event>
12    1  0.1627564E-001  0.1942055E+03  0.7818608E-02  0.1156357E+00
         21   -1    0    0  501  502  0.00000000000E+00  0.00000000000E+00  0.45778406053E+03  0.45778406053E+03  0.00000000000E+00 0.  1.
         21   -1    0    0  502  503 -0.00000000000E+00 -0.00000000000E+00 -0.80272703701E+02  0.80272703701E+02  0.00000000000E+00 0.  1.
         -6    2    1    2    0  503 -0.30818675024E+02  0.64282219607E+02  0.21453060456E+03  0.28452471391E+03  0.17276845211E+03 0.  0.
        -24    2    3    3    0    0 -0.44092994126E+02  0.76599987826E+02  0.69997863266E+02  0.13878611824E+03  0.80932907327E+02 0.  0.
          6    2    1    2  501    0  0.30818675024E+02 -0.64282219607E+02  0.16298075227E+03  0.25353205032E+03  0.18064822292E+03 0.  0.
         24    2    5    5    0    0  0.21974044615E+01  0.38722683459E+02  0.10488258685E+03  0.13176721956E+03  0.69699127162E+02 0.  0.
          5    1    5    5  501    0  0.28621270563E+02 -0.10300490307E+03  0.58098165422E+02  0.12176483076E+03  0.47000000000E+01 0. -1.
        -13    1    6    6    0    0 -0.32028570853E+02  0.13249628943E+02  0.31257561417E+02  0.46673516728E+02  0.00000000000E+00 0.  1.
         14    1    6    6    0    0  0.34225975315E+02  0.25473054516E+02  0.73625025430E+02  0.85093702835E+02  0.00000000000E+00 0. -1.
         -5    1    3    3    0  503  0.13274319102E+02 -0.12317768219E+02  0.14453274129E+03  0.14573859567E+03  0.47000000000E+01 0.  1.
         11    1    4    4    0    0 -0.53351127683E+02  0.27191885994E+02  0.64829542841E+02  0.88253108240E+02  0.00000000000E+00 0. -1.
        -12    1    4    4    0    0  0.92581335572E+01  0.49408101832E+02  0.51683204242E+01  0.50533010000E+02  0.00000000000E+00 0.  1.
</event>
<event>
12    1  0.1627564E-001  0.2174900E+03  0.7818608E-02  0.1136218E+00
         21   -1    0    0  503  502  0.00000000000E+00  0.00000000000E+00  0.11002789367E+04  0.11002789367E+04  0.00000000000E+00 0.  1.
         21   -1    0    0  501  503 -0.00000000000E+00 -0.00000000000E+00 -0.16430649242E+03  0.16430649242E+03  0.00000000000E+00 0. -1.
          6    2    1    2  501    0 -0.67633957054E+02 -0.11488808782E+03 -0.75704347247E+02  0.23028905458E+03  0.17183793411E+03 0.  0.
         24    2    3    3    0    0 -0.75831525994E+02 -0.89454152696E+01 -0.43954318407E+02  0.11928813416E+03  0.80419127421E+02 0.  0.
         -6    2    1    2    0  502  0.67633957054E+02  0.11488808782E+03  0.10116767916E+04  0.10342963746E+04  0.16883552642E+03 0.  0.
        -24    2    5    5    0    0 -0.20302452894E+02  0.79260467592E+02  0.66215491647E+03  0.67209508980E+03  0.81044833327E+02 0.  0.
          5    1    3    3  501    0  0.81975689397E+01 -0.10594267255E+03 -0.31750028841E+02  0.11100092043E+03  0.47000000000E+01 0. -1.
        -11    1    4    4    0    0 -0.81552925415E+02  0.11247660934E+02 -0.15243895279E+02  0.83724344510E+02  0.00000000000E+00 0.  1.
         12    1    4    4    0    0  0.57213994213E+01 -0.20193076204E+02 -0.28710423127E+02  0.35563789647E+02  0.00000000000E+00 0. -1.
         -5    1    5    5    0  502  0.87936409948E+02  0.35627620229E+02  0.34952187509E+03  0.36220128477E+03  0.47000000000E+01 0.  1.
         11    1    6    6    0    0 -0.13255444777E+02  0.94663090403E+02  0.60424752496E+03  0.61176129243E+03  0.00000000000E+00 0. -1.
        -12    1    6    6    0    0 -0.70470081168E+01 -0.15402622811E+02  0.57907391513E+02  0.60333797367E+02  0.00000000000E+00 0.  1.
</event>
<event>
12    1  0.1627564E-001  0.2257364E+03  0.7818608E-02  0.1129706E+00
         21   -1    0    0  503  502  0.00000000000E+00  0.00000000000E+00  0.74542094762E+03  0.74542094762E+03  0.00000000000E+00 0.  1.
         21   -1    0    0  501  503 -0.00000000000E+00 -0.00000000000E+00 -0.78314325579E+02  0.78314325579E+02  0.00000000000E+00 0.  1.
          6    2    1    2  501    0  0.18552911761E+02 -0.14463452759E+03  0.18624577053E+03  0.29252524624E+03  0.17210512932E+03 0.  0.
         24    2    3    3    0    0 -0.46410086290E+02 -0.36690303769E+02  0.71624960411E+02  0.12213696411E+03  0.79292045930E+02 0.  0.
         -6    2    1    2    0  502 -0.18552911761E+02  0.14463452759E+03  0.48086085151E+03  0.53121002697E+03  0.17231824375E+03 0.  0.
        -24    2    5    5    0    0 -0.37273586257E+02  0.20082870783E+02  0.21241573016E+03  0.23464898428E+03  0.90261073940E+02 0.  0.
          5    1    3    3  501    0  0.64962998052E+02 -0.10794422382E+03  0.11462081012E+03  0.17038828213E+03  0.47000000000E+01 0. -1.
        -13    1    4    4    0    0 -0.49398247762E+02 -0.58180082734E+02  0.62301463352E+02  0.98521983560E+02  0.00000000000E+00 0.  1.
         14    1    4    4    0    0  0.29881614718E+01  0.21489778964E+02  0.93234970590E+01  0.23614980549E+02  0.00000000000E+00 0. -1.
         -5    1    5    5    0  502  0.18720674495E+02  0.12455165681E+03  0.26844512134E+03  0.29656104269E+03  0.47000000000E+01 0.  1.
         11    1    6    6    0    0  0.23642749149E+02  0.27508604332E+02  0.10297934090E+03  0.10918080212E+03  0.00000000000E+00 0. -1.
        -12    1    6    6    0    0 -0.60916335405E+02 -0.74257335490E+01  0.10943638927E+03  0.12546818216E+03  0.00000000000E+00 0.  1.
</event>
<event>
12    1  0.1627564E-001  0.2007706E+03  0.7818608E-02  0.1149817E+00
         21   -1    0    0  503  502  0.00000000000E+00  0.00000000000E+00  0.80160916712E+02  0.80160916712E+02  0.00000000000E+00 0.  1.
         21   -1    0    0  501  503 -0.00000000000E+00 -0.00000000000E+00 -0.52203361799E+03  0.52203361799E+03  0.00000000000E+00 0.  1.
          6    2    1    2  501    0  0.86752141265E+02 -0.44332417467E+02 -0.29213424758E+03  0.35447317979E+03  0.17554919347E+03 0.  0.
         24    2    3    3    0    0  0.41245060251E+02 -0.35158865457E+02 -0.54637750017E+02  0.11243656100E+03  0.81971920242E+02 0.  0.
         -6    2    1    2    0  502 -0.86752141265E+02  0.44332417467E+02 -0.14973845370E+03  0.24772135491E+03  0.17161867005E+03 0.  0.
        -24    2    5    5    0    0 -0.55617456257E+02 -0.18668772909E+02 -0.20749516547E+02  0.10075620766E+03  0.79242958189E+02 0.  0.
          5    1    3    3  501    0  0.45507081014E+02 -0.91735520097E+01 -0.23749649756E+03  0.24203661879E+03  0.47000000000E+01 0. -1.
        -11    1    4    4    0    0  0.36691773213E+02  0.20027012616E+02 -0.31871357791E+02  0.52565681801E+02  0.00000000000E+00 0.  1.
         12    1    4    4    0    0  0.45532870379E+01 -0.55185878073E+02 -0.22766392226E+02  0.59870879203E+02  0.00000000000E+00 0. -1.
         -5    1    5    5    0  502 -0.31134685008E+02  0.63001190376E+02 -0.12898893715E+03  0.14696514725E+03  0.47000000000E+01 0.  1.
         11    1    6    6    0    0  0.16432569213E+02 -0.60882686680E+01  0.11353752606E+02  0.20880709868E+02  0.00000000000E+00 0. -1.
        -12    1    6    6    0    0 -0.72050025470E+02 -0.12580504241E+02 -0.32103269153E+02  0.79875497792E+02  0.00000000000E+00 0.  1.
</event>
<event>
12    1  0.1627564E-001  0.3878258E+03  0.7818608E-02  0.1048683E+00
         21   -1    0    0  503  502  0.00000000000E+00  0.00000000000E+00  0.12077775739E+03  0.12077775739E+03  0.00000000000E+00 0. -1.
         21   -1    0    0  501  503 -0.00000000000E+00 -0.00000000000E+00 -0.12951803501E+04  0.12951803501E+04  0.00000000000E+00 0. -1.
          6    2    1    2  501    0 -0.13168389900E+03  0.31358605209E+03 -0.42611111342E+03  0.57617664168E+03  0.18636517944E+03 0.  0.
         24    2    3    3    0    0 -0.13720002051E+02  0.68227525643E+02 -0.75219662359E+02  0.13203343514E+03  0.83256211042E+02 0.  0.
         -6    2    1    2    0  502  0.13168389900E+03 -0.31358605209E+03 -0.74829147925E+03  0.83978146576E+03  0.17209273956E+03 0.  0.
        -24    2    5    5    0    0  0.93518357645E+02 -0.24890269328E+03 -0.69282025786E+03  0.74629514668E+03  0.79109432545E+02 0.  0.
          5    1    3    3  501    0 -0.11796389695E+03  0.24535852645E+03 -0.35089145106E+03  0.44414320654E+03  0.47000000000E+01 0. -1.
        -11    1    4    4    0    0 -0.51367203967E+01  0.13682877069E+02 -0.75414056744E+02  0.76817230983E+02  0.00000000000E+00 0.  1.
         12    1    4    4    0    0 -0.85832816545E+01  0.54544648573E+02  0.19439438561E+00  0.55216204154E+02  0.00000000000E+00 0. -1.
         -5    1    5    5    0  502  0.38165541355E+02 -0.64683358810E+02 -0.55471221385E+02  0.93486319084E+02  0.47000000000E+01 0.  1.
         13    1    6    6    0    0 -0.23650355099E+01 -0.47296289672E+02 -0.19570092931E+03  0.20134891642E+03  0.00000000000E+00 0. -1.
        -14    1    6    6    0    0  0.95883393154E+02 -0.20160640361E+03 -0.49711932855E+03  0.54494623026E+03  0.00000000000E+00 0.  1.
</event>
<event>
12    1  0.1627564E-001  0.2097468E+03  0.7818608E-02  0.1141957E+00
         21   -1    0    0  503  502  0.00000000000E+00  0.00000000000E+00  0.51032392834E+03  0.51032392834E+03  0.00000000000E+00 0. -1.
         21   -1    0    0  501  503 -0.00000000000E+00 -0.00000000000E+00 -0.90412551848E+02  0.90412551848E+02  0.00000000000E+00 0. -1.
          6    2    1    2  501    0 -0.11881614061E+03  0.33837709143E+01  0.14267857679E+03  0.25367478968E+03  0.17281492259E+03 0.  0.
         24    2    3    3    0    0 -0.16011499431E+02 -0.38693461687E+02  0.78075022593E+02  0.12508631054E+03  0.88302456595E+02 0.  0.
         -6    2    1    2    0  502  0.11881614061E+03 -0.33837709143E+01  0.27723279970E+03  0.34706169051E+03  0.17165391522E+03 0.  0.
        -24    2    5    5    0    0  0.13221742298E+03  0.14096463051E+02  0.14248159683E+03  0.21044130541E+03  0.79400128330E+02 0.  0.
          5    1    3    3  501    0 -0.10280464118E+03  0.42077232602E+02  0.64603554196E+02  0.12858847914E+03  0.47000000000E+01 0. -1.
        -13    1    4    4    0    0 -0.42465148759E+02 -0.52765059967E+02  0.52584845035E+02  0.85747340133E+02  0.00000000000E+00 0.  1.
         14    1    4    4    0    0  0.26453649329E+02  0.14071598279E+02  0.25490177558E+02  0.39338970409E+02  0.00000000000E+00 0. -1.
         -5    1    5    5    0  502 -0.13401282362E+02 -0.17480233965E+02  0.13475120287E+03  0.13662038510E+03  0.47000000000E+01 0.  1.
         11    1    6    6    0    0  0.11638788203E+03  0.26637307823E+02  0.14736583196E+03  0.18966384389E+03  0.00000000000E+00 0. -1.
        -12    1    6    6    0    0  0.15829540948E+02 -0.12540844773E+02 -0.48842351325E+01  0.20777461516E+02  0.00000000000E+00 0.  1.
</event>
<event>
12    1  0.1627564E-001  0.2217774E+03  0.7818608E-02  0.1134318E+00
         21   -1    0    0  503  502  0.00000000000E+00  0.00000000000E+00  0.62143193707E+03  0.62143193707E+03  0.00000000000E+00 0. -1.
         21   -1    0    0  501  503 -0.00000000000E+00 -0.00000000000E+00 -0.13128418164E+03  0.13128418164E+03  0.00000000000E+00 0.  1.
          6    2    1    2  501    0  0.63685415492E+02 -0.10738915100E+03  0.36166181827E+01  0.22180686676E+03  0.18329469255E+03 0.  0.
         24    2    3    3    0    0  0.33321354721E+02 -0.10757644203E+03 -0.60729923893E+02  0.15050063463E+03  0.79242121415E+02 0.  0.
         -6    2    1    2    0  502 -0.63685415492E+02  0.10738915100E+03  0.48653113725E+03  0.53090925195E+03  0.17194133996E+03 0.  0.
        -24    2    5    5    0    0 -0.95956413057E+02  0.28880280025E+02  0.31411219985E+03  0.33867127422E+03  0.77395439834E+02 0.  0.
          5    1    3    3  501    0  0.30364060771E+02  0.18729103488E+00  0.64346542076E+02  0.71306232137E+02  0.47000000000E+01 0. -1.
        -13    1    4    4    0    0 -0.60580107632E+01 -0.31273340417E+02 -0.56096677122E+02  0.64510142608E+02  0.00000000000E+00 0.  1.
         14    1    4    4    0    0  0.39379365484E+02 -0.76303101614E+02 -0.46332467715E+01  0.85990492017E+02  0.00000000000E+00 0. -1.
         -5    1    5    5    0  502  0.32270997565E+02  0.78508870971E+02  0.17241893741E+03  0.19223797773E+03  0.47000000000E+01 0.  1.
         13    1    6    6    0    0 -0.80101789168E+02  0.49392395279E+02  0.19181052855E+03  0.21365201661E+03  0.00000000000E+00 0. -1.
        -14    1    6    6    0    0 -0.15854623889E+02 -0.20512115254E+02  0.12230167129E+03  0.12501925760E+03  0.00000000000E+00 0.  1.
</event>
<event>
12    1  0.1627564E-001  0.2232634E+03  0.7818608E-02  0.1131560E+00
         21   -1    0    0  503  502  0.00000000000E+00  0.00000000000E+00  0.32233472743E+03  0.32233472743E+03  0.00000000000E+00 0.  1.
         21   -1    0    0  501  503 -0.00000000000E+00 -0.00000000000E+00 -0.15598439010E+03  0.15598439010E+03  0.00000000000E+00 0. -1.
          6    2    1    2  501    0 -0.14320852050E+03 -0.45864725518E+01  0.58512308985E+02  0.23080344574E+03  0.17122156461E+03 0.  0.
         24    2    3    3    0    0 -0.62927039117E+02  0.56828410610E+02  0.55685758375E+02  0.12957606053E+03  0.80621158965E+02 0.  0.
         -6    2    1    2    0  502  0.14320852050E+03  0.45864725518E+01  0.10783802835E+03  0.24751567179E+03  0.17060261238E+03 0.  0.
        -24    2    5    5    0    0 -0.81511332097E+01  0.12710774712E+02  0.33502405881E+02  0.78626288393E+02  0.69510267301E+02 0.  0.
          5    1    3    3  501    0 -0.80281481383E+02 -0.61414883162E+02  0.28265506098E+01  0.10122738520E+03  0.47000000000E+01 0. -1.
        -13    1    4    4    0    0 -0.78109396876E+02  0.39755191233E+02  0.60146364428E+02  0.10629740479E+03  0.00000000000E+00 0.  1.
         14    1    4    4    0    0  0.15182357759E+02  0.17073219377E+02 -0.44606060529E+01  0.23278655747E+02  0.00000000000E+00 0. -1.
         -5    1    5    5    0  502  0.15135965371E+03 -0.81243021603E+01  0.74335622465E+02  0.16888938340E+03  0.47000000000E+01 0.  1.
         11    1    6    6    0    0 -0.17950987884E+02  0.22630403546E+02 -0.11817749461E+02  0.31209491073E+02  0.00000000000E+00 0. -1.
        -12    1    6    6    0    0  0.97998546747E+01 -0.99196288343E+01  0.45320155342E+02  0.47416797320E+02  0.00000000000E+00 0.  1.
</event>
<event>
12    1  0.1627564E-001  0.1995185E+03  0.7818608E-02  0.1150991E+00
         21   -1    0    0  503  502  0.00000000000E+00  0.00000000000E+00  0.22356341757E+03  0.22356341757E+03  0.00000000000E+00 0.  1.
         21   -1    0    0  501  503 -0.00000000000E+00 -0.00000000000E+00 -0.18381497216E+03  0.18381497216E+03  0.00000000000E+00 0.  1.
          6    2    1    2  501    0  0.19706383128E+02 -0.99088366578E+02 -0.25665030681E+02  0.20116248407E+03  0.17204884559E+03 0.  0.
         24    2    3    3    0    0 -0.23500964110E+02 -0.90325943052E+02 -0.67913983218E+02  0.13991937089E+03  0.79082551368E+02 0.  0.
         -6    2    1    2    0  502 -0.19706383128E+02  0.99088366578E+02  0.65413476086E+02  0.20621590566E+03  0.16744918921E+03 0.  0.
        -24    2    5    5    0    0  0.14795716678E+02  0.11352602543E+03  0.83139812562E+02  0.16456072724E+03  0.84029356981E+02 0.  0.
          5    1    3    3  501    0  0.43207347238E+02 -0.87624235258E+01  0.42248952537E+02  0.61243113179E+02  0.47000000000E+01 0. -1.
        -13    1    4    4    0    0 -0.44957329993E+02 -0.51127700925E+02 -0.13327348483E+02  0.69374502085E+02  0.00000000000E+00 0.  1.
         14    1    4    4    0    0  0.21456365883E+02 -0.39198242127E+02 -0.54586634735E+02  0.70544868803E+02  0.00000000000E+00 0. -1.
         -5    1    5    5    0  502 -0.34502099806E+02 -0.14437658856E+02 -0.17726336477E+02  0.41655178419E+02  0.47000000000E+01 0.  1.
         13    1    6    6    0    0 -0.97722756333E+01 -0.32035511512E+00 -0.11063387973E+02  0.14764774021E+02  0.00000000000E+00 0. -1.
        -14    1    6    6    0    0  0.24567992311E+02  0.11384638055E+03  0.94203200535E+02  0.14979595322E+03  0.00000000000E+00 0.  1.
</event>
<event>
12    1  0.1627564E-001  0.1960549E+03  0.7818608E-02  0.1153263E+00
         21   -1    0    0  501  502  0.00000000000E+00  0.00000000000E+00  0.20548526731E+04  0.20548526731E+04  0.00000000000E+00 0. -1.
         21   -1    0    0  502  503 -0.00000000000E+00 -0.00000000000E+00 -0.36094161153E+02  0.36094161153E+02  0.00000000000E+00 0. -1.
         -6    2    1    2    0  503 -0.82040222387E+02  0.44786528906E+02  0.28327485651E+03  0.34450280900E+03  0.17234009926E+03 0.  0.
        -24    2    3    3    0    0 -0.89020824057E+02  0.36606136449E+02  0.29970260096E+03  0.32431349479E+03  0.78056886580E+02 0.  0.
          6    2    1    2  501    0  0.82040222387E+02 -0.44786528906E+02  0.17354836554E+04  0.17464440253E+04  0.17154236740E+03 0.  0.
         24    2    5    5    0    0 -0.12727475363E+01 -0.70932678237E+01  0.41347780981E+03  0.42127106343E+03  0.80333525656E+02 0.  0.
          5    1    5    5  501    0  0.83312969924E+02 -0.37693261082E+02  0.13220058456E+04  0.13251729618E+04  0.47000000000E+01 0. -1.
        -11    1    6    6    0    0 -0.14531474978E+02  0.33046423661E+02  0.14174999145E+03  0.14627470718E+03  0.00000000000E+00 0.  1.
         12    1    6    6    0    0  0.13258727442E+02 -0.40139691484E+02  0.27172781836E+03  0.27499635626E+03  0.00000000000E+00 0. -1.
         -5    1    3    3    0  503  0.69806016697E+01  0.81803924568E+01 -0.16427744445E+02  0.20189314203E+02  0.47000000000E+01 0.  1.
         11    1    4    4    0    0 -0.20049360839E+02  0.15384422141E+02  0.12519452187E+02  0.28202730324E+02  0.00000000000E+00 0. -1.
        -12    1    4    4    0    0 -0.68971463218E+02  0.21221714308E+02  0.28718314877E+03  0.29611076447E+03  0.00000000000E+00 0.  1.
</event>
<event>
12    1  0.1627564E-001  0.2401004E+03  0.7818608E-02  0.1119884E+00
         21   -1    0    0  501  502  0.00000000000E+00  0.00000000000E+00  0.82154347954E+02  0.82154347954E+02  0.00000000000E+00 0. -1.
         21   -1    0    0  502  503 -0.00000000000E+00 -0.00000000000E+00 -0.70410007091E+03  0.70410007091E+03  0.00000000000E+00 0. -1.
         -6    2    1    2    0  503  0.16028152439E+03 -0.46095700158E+02 -0.27668177392E+03  0.36571265261E+03  0.17139999889E+03 0.  0.
        -24    2    3    3    0    0  0.15423857017E+02 -0.26366453311E+02 -0.27667498395E+02  0.76916554303E+02  0.64942902868E+02 0.  0.
          6    2    1    2  501    0 -0.16028152439E+03  0.46095700158E+02 -0.34526394904E+03  0.42054176626E+03  0.17272290535E+03 0.  0.
         24    2    5    5    0    0 -0.34252821082E+02  0.61303162451E+02 -0.12640464101E+03  0.16748843655E+03  0.84515736002E+02 0.  0.
          5    1    5    5  501    0 -0.12602870331E+03 -0.15207462293E+02 -0.21885930802E+03  0.25305332971E+03  0.47000000000E+01 0. -1.
        -11    1    6    6    0    0 -0.58621570617E+02  0.50049932248E+02 -0.66335584216E+02  0.10169510309E+03  0.00000000000E+00 0.  1.
         12    1    6    6    0    0  0.24368749535E+02  0.11253230203E+02 -0.60069056795E+02  0.65793333463E+02  0.00000000000E+00 0. -1.
         -5    1    3    3    0  503  0.14485766737E+03 -0.19729246847E+02 -0.24901427553E+03  0.28879609830E+03  0.47000000000E+01 0.  1.
         11    1    4    4    0    0  0.30738162351E+02 -0.38870133940E+02 -0.28430208233E+02  0.57131415854E+02  0.00000000000E+00 0. -1.
        -12    1    4    4    0    0 -0.15314305334E+02  0.12503680629E+02  0.76270983823E+00  0.19785138449E+02  0.00000000000E+00 0.  1.
</event>
<event>
12    1  0.1627564E-001  0.1845184E+03  0.7818608E-02  0.1164556E+00
         21   -1    0    0  503  502  0.00000000000E+00  0.00000000000E+00  0.13102708543E+03  0.13102708543E+03  0.00000000000E+00 0.  1.
         21   -1    0    0  501  503 -0.00000000000E+00 -0.00000000000E+00 -0.38529782524E+03  0.38529782524E+03  0.00000000000E+00 0.  1.
          6    2    1    2  501    0  0.59496388110E+01 -0.53606276796E+02 -0.27702654479E+03  0.33040862783E+03  0.17180548220E+03 0.  0.
         24    2    3    3    0    0 -0.42755625216E+02 -0.44311832037E+00 -0.86292827654E+02  0.12644793305E+03  0.81941368223E+02 0.  0.
         -6    2    1    2    0  502 -0.59496388110E+01  0.53606276796E+02  0.22755804985E+02  0.18591628284E+03  0.17645964539E+03 0.  0.
        -24    2    5    5    0    0 -0.18979996885E+02  0.13152191662E+02 -0.53020802533E+02  0.98907619581E+02  0.80238963619E+02 0.  0.
          5    1    3    3  501    0  0.48705264027E+02 -0.53163158475E+02 -0.19073371714E+03  0.20396069478E+03  0.47000000000E+01 0. -1.
        -13    1    4    4    0    0 -0.19505664960E+02 -0.41154885734E+02 -0.42601057213E+02  0.62362213406E+02  0.00000000000E+00 0.  1.
         14    1    4    4    0    0 -0.23249960256E+02  0.40711767413E+02 -0.43691770441E+02  0.64085719643E+02  0.00000000000E+00 0. -1.
         -5    1    5    5    0  502  0.13030358074E+02  0.40454085134E+02  0.75776607519E+02  0.87008663262E+02  0.47000000000E+01 0.  1.
         13    1    6    6    0    0  0.59685282760E+01 -0.26940750662E+02 -0.42267143309E+02  0.50477111442E+02  0.00000000000E+00 0. -1.
        -14    1    6    6    0    0 -0.24948525161E+02  0.40092942324E+02 -0.10753659225E+02  0.48430508139E+02  0.00000000000E+00 0.  1.
</event>
<event>
12    1  0.1627564E-001  0.1755627E+03  0.7818608E-02  0.1172223E+00
         21   -1    0    0  501  502  0.00000000000E+00  0.00000000000E+00  0.12439665259E+03  0.12439665259E+03  0.00000000000E+00 0.  1.
         21   -1    0    0  502  503 -0.00000000000E+00 -0.00000000000E+00 -0.30540941484E+03  0.30540941484E+03  0.00000000000E+00 0.  1.
         -6    2    1    2    0  503 -0.30898804855E+02 -0.13710785479E+02 -0.18407017402E+03  0.25421673392E+03  0.17205114664E+03 0.  0.
        -24    2    3    3    0    0 -0.30060134433E+02 -0.64974312720E+02 -0.76855701404E+02  0.13528109699E+03  0.85257863969E+02 0.  0.
          6    2    1    2  501    0  0.30898804855E+02  0.13710785479E+02  0.30574117711E+01  0.17558933351E+03  0.17227752173E+03 0.  0.
         24    2    5    5    0    0  0.56451845272E+02 -0.49414572788E+02  0.83787005250E+01  0.10711908563E+03  0.75997927894E+02 0.  0.
          5    1    5    5  501    0 -0.25553040417E+02  0.63125358268E+02 -0.53212887538E+01  0.68470247882E+02  0.47000000000E+01 0. -1.
        -11    1    6    6    0    0  0.61016482450E+02 -0.40055834337E+02 -0.20999338659E+02  0.75950333897E+02  0.00000000000E+00 0.  1.
         12    1    6    6    0    0 -0.45646371775E+01 -0.93587384509E+01  0.29378039184E+02  0.31168751728E+02  0.00000000000E+00 0. -1.
         -5    1    3    3    0  503 -0.83867042174E+00  0.51263527241E+02 -0.10721447262E+03  0.11893563693E+03  0.47000000000E+01 0.  1.
         11    1    4    4    0    0  0.41108377341E-01 -0.30634721953E+02  0.13933420674E+02  0.33654540417E+02  0.00000000000E+00 0. -1.
        -12    1    4    4    0    0 -0.30101242810E+02 -0.34339590768E+02 -0.90789122078E+02  0.10162655657E+03  0.00000000000E+00 0.  1.
</event>
<event>
12    1  0.1627564E-001  0.1790260E+03  0.7818608E-02  0.1169042E+00
         21   -1    0    0  501  502  0.00000000000E+00  0.00000000000E+00  0.12327435720E+04  0.12327435720E+04  0.00000000000E+00 0. -1.
         21   -1    0    0  502  503 -0.00000000000E+00 -0.00000000000E+00 -0.32804273644E+02  0.32804273644E+02  0.00000000000E+00 0. -1.
         -6    2    1    2    0  503  0.17727673238E+02 -0.41392884040E+02  0.30651956337E+03  0.35436777549E+03  0.17203091677E+03 0.  0.
        -24    2    3    3    0    0 -0.48966327163E+02 -0.55278253086E+02  0.16589052673E+03  0.19803636754E+03  0.79027524000E+02 0.  0.
          6    2    1    2  501    0 -0.17727673238E+02  0.41392884040E+02  0.89341973494E+03  0.91118007012E+03  0.17327047108E+03 0.  0.
         24    2    5    5    0    0 -0.42552732019E+02 -0.13498928880E+02  0.74988700155E+03  0.75544590487E+03  0.79843872735E+02 0.  0.
          5    1    5    5  501    0  0.24825058781E+02  0.54891812920E+02  0.14353273339E+03  0.15573416525E+03  0.47000000000E+01 0. -1.
        -11    1    6    6    0    0  0.10493481051E+02  0.19267167155E+02  0.90657198183E+02  0.93274136057E+02  0.00000000000E+00 0.  1.
         12    1    6    6    0    0 -0.53046213070E+02 -0.32766096036E+02  0.65922980337E+03  0.66217176882E+03  0.00000000000E+00 0. -1.
         -5    1    3    3    0  503  0.66694000401E+02  0.13885369046E+02  0.14062903664E+03  0.15633140794E+03  0.47000000000E+01 0.  1.
         11    1    4    4    0    0 -0.61998102451E+02 -0.13003812253E+02  0.10756697967E+03  0.12483396556E+03  0.00000000000E+00 0. -1.
        -12    1    4    4    0    0  0.13031775287E+02 -0.42274440833E+02  0.58323547062E+02  0.73202401987E+02  0.00000000000E+00 0.  1.
</event>
<event>
12    1  0.1627564E-001  0.1743420E+03  0.7818608E-02  0.1173535E+00
         21   -1    0    0  503  502  0.00000000000E+00  0.00000000000E+00  0.59172163749E+02  0.59172163749E+02  0.00000000000E+00 0. -1.
         21   -1    0    0  501  503 -0.00000000000E+00 -0.00000000000E+00 -0.15064795792E+04  0.15064795792E+04  0.00000000000E+00 0. -1.
          6    2    1    2  501    0 -0.25684868001E+02 -0.12780954898E+01 -0.13592852328E+04  0.13703493368E+04  0.17187092481E+03 0.  0.
         24    2    3    3    0    0  0.30730657937E+02 -0.11360038484E+02 -0.39246664169E+03  0.40182229265E+03  0.79734974877E+02 0.  0.
         -6    2    1    2    0  502  0.25684868001E+02  0.12780954898E+01 -0.88022182605E+02  0.19530240610E+03  0.17243485502E+03 0.  0.
        -24    2    5    5    0    0 -0.54922457676E+01  0.62256163677E+02 -0.74151372720E+02  0.12526793894E+03  0.79294613763E+02 0.  0.
          5    1    3    3  501    0 -0.56415525938E+02  0.10081942994E+02 -0.96681859112E+03  0.96852704416E+03  0.47000000000E+01 0. -1.
        -13    1    4    4    0    0  0.43707814964E+02  0.23058795996E+02 -0.22645897060E+03  0.23178815010E+03  0.00000000000E+00 0.  1.
         14    1    4    4    0    0 -0.12977157028E+02 -0.34418834480E+02 -0.16600767109E+03  0.17003414255E+03  0.00000000000E+00 0. -1.
         -5    1    5    5    0  502  0.31177113768E+02 -0.60978068187E+02 -0.13870809885E+02  0.70034467154E+02  0.47000000000E+01 0.  1.
         11    1    6    6    0    0 -0.34550339739E+02  0.16298185213E+02 -0.69574623468E+01  0.38829925311E+02  0.00000000000E+00 0. -1.
        -12    1    6    6    0    0  0.29058093972E+02  0.45957978464E+02 -0.67193910373E+02  0.86438013634E+02  0.00000000000E+00 0.  1.
</event>
<event>
12    1  0.1627564E-001  0.1831577E+03  0.7818608E-02  0.1165096E+00
         21   -1    0    0  501  502  0.00000000000E+00  0.00000000000E+00  0.13865073257E+03  0.13865073257E+03  0.00000000000E+00 0.  1.
         21   -1    0    0  502  503 -0.00000000000E+00 -0.00000000000E+00 -0.46768748653E+03  0.46768748653E+03  0.00000000000E+00 0. -1.
         -6    2    1    2    0  503  0.26223447462E+01  0.64182753047E+02 -0.37564871982E+03  0.41734237796E+03  0.17010701709E+03 0.  0.
        -24    2    3    3    0    0  0.63259555256E+02  0.19835718859E+02 -0.18097361354E+03  0.20862242744E+03  0.79853875058E+02 0.  0.
          6    2    1    2  501    0 -0.26223447462E+01 -0.64182753047E+02  0.46611965861E+02  0.18899584113E+03  0.17152390540E+03 0.  0.
         24    2    5    5    0    0  0.62628922365E+02 -0.30627743577E+02  0.51101727492E+01  0.10456743743E+03  0.77767567226E+02 0.  0.
          5    1    5    5  501    0 -0.65251267111E+02 -0.33555009471E+02  0.41501793112E+02  0.84428403702E+02  0.47000000000E+01 0. -1.
        -11    1    6    6    0    0  0.50535669040E+02  0.16515177527E+02  0.14261142535E+02  0.55045300622E+02  0.00000000000E+00 0.  1.
         12    1    6    6    0    0  0.12093253325E+02 -0.47142921104E+02 -0.91509697860E+01  0.49522136810E+02  0.00000000000E+00 0. -1.
         -5    1    3    3    0  503 -0.60637210509E+02  0.44347034188E+02 -0.19467510628E+03  0.20871995052E+03  0.47000000000E+01 0.  1.
         13    1    4    4    0    0 -0.13948643322E+00  0.35613512816E+02 -0.88509788619E+02  0.95406102703E+02  0.00000000000E+00 0. -1.
        -14    1    4    4    0    0  0.63399041689E+02 -0.15777793956E+02 -0.92463824916E+02  0.11321632474E+03  0.00000000000E+00 0.  1.
</event>
<event>
12    1  0.1627564E-001  0.1965214E+03  0.7818608E-02  0.1153625E+00
         21   -1    0    0  501  502  0.00000000000E+00  0.00000000000E+00  0.26895420890E+03  0.26895420890E+03  0.00000000000E+00 0. -1.
         21   -1    0    0  502  503 -0.00000000000E+00 -0.00000000000E+00 -0.31436739078E+03  0.31436739078E+03  0.00000000000E+00 0. -1.
         -6    2    1    2    0  503 -0.78404975075E+02 -0.34713321843E+02 -0.23947053004E+03  0.30713518923E+03  0.17214393651E+03 0.  0.
        -24    2    3    3    0    0 -0.15677117919E+02 -0.14202847975E+02 -0.22410077325E+03  0.23921035559E+03  0.80950260858E+02 0.  0.
          6    2    1    2  501    0  0.78404975075E+02  0.34713321843E+02  0.19405734815E+03  0.27618641045E+03  0.17682851613E+03 0.  0.
         24    2    5    5    0    0 -0.47268327558E+01  0.64721737958E+02  0.30906082238E+02  0.90574373989E+02  0.55111568586E+02 0.  0.
          5    1    5    5  501    0  0.83131807831E+02 -0.30008416114E+02  0.16315126591E+03  0.18561203646E+03  0.47000000000E+01 0. -1.
        -13    1    6    6    0    0 -0.10660443478E+02  0.21894144765E+02  0.39584759731E+02  0.46475281958E+02  0.00000000000E+00 0.  1.
         14    1    6    6    0    0  0.59336107220E+01  0.42827593193E+02 -0.86786774930E+01  0.44099092031E+02  0.00000000000E+00 0. -1.
         -5    1    3    3    0  503 -0.62727857156E+02 -0.20510473868E+02 -0.15369756789E+02  0.67924833643E+02  0.47000000000E+01 0.  1.
         13    1    4    4    0    0 -0.56791460133E+01  0.10762911437E+02 -0.20696344538E+03  0.20732091233E+03  0.00000000000E+00 0. -1.
        -14    1    4    4    0    0 -0.99979719054E+01 -0.24965759412E+02 -0.17137327863E+02  0.31889443262E+02  0.00000000000E+00 0.  1.
</event>
<event>
12    1  0.1627564E-001  0.2179510E+03  0.7818608E-02  0.1135884E+00
         21   -1    0    0  501  502  0.00000000000E+00  0.00000000000E+00  0.48066734108E+03  0.48066734108E+03  0.00000000000E+00 0.  1.
         21   -1    0    0  502  503 -0.00000000000E+00 -0.00000000000E+00 -0.10281860655E+03  0.10281860655E+03  0.00000000000E+00 0.  1.
         -6    2    1    2    0  503 -0.30762884551E+01  0.13054988092E+03  0.25287258355E+03  0.33224566148E+03  0.17143483048E+03 0.  0.
        -24    2    3    3    0    0 -0.65614743311E+02  0.58596090127E+02  0.15897136207E+03  0.19835041981E+03  0.79575113971E+02 0.  0.
          6    2    1    2  501    0  0.30762884551E+01 -0.13054988092E+03  0.12497615098E+03  0.25124028614E+03  0.17449902036E+03 0.  0.
         24    2    5    5    0    0  0.51298903862E+02 -0.23335880688E+02  0.37205734323E+02  0.10445473330E+03  0.79689295247E+02 0.  0.
          5    1    5    5  501    0 -0.48222615407E+02 -0.10721400024E+03  0.87770416655E+02  0.14678555284E+03  0.47000000000E+01 0. -1.
        -13    1    6    6    0    0  0.70021736041E+01 -0.28553051009E+02 -0.17232692481E+02  0.34077453650E+02  0.00000000000E+00 0.  1.
         14    1    6    6    0    0  0.44296730258E+02  0.52171703212E+01  0.54438426804E+02  0.70377279648E+02  0.00000000000E+00 0. -1.
         -5    1    3    3    0  503  0.62538454856E+02  0.71953790797E+02  0.93901221483E+02  0.13389524167E+03  0.47000000000E+01 0.  1.
         13    1    4    4    0    0 -0.49864844365E+02  0.78646877353E+02  0.12437470878E+03  0.15537342825E+03  0.00000000000E+00 0. -1.
        -14    1    4    4    0    0 -0.15749898946E+02 -0.20050787226E+02  0.34596653287E+02  0.42976991563E+02  0.00000000000E+00 0.  1.
</event>
<event>
12    1  0.1627564E-001  0.1760801E+03  0.7818608E-02  0.1171908E+00
         21   -1    0    0  501  502  0.00000000000E+00  0.00000000000E+00  0.13472192534E+03  0.13472192534E+03  0.00000000000E+00 0.  1.
         21   -1    0    0  502  503 -0.00000000000E+00 -0.00000000000E+00 -0.26448098237E+03  0.26448098237E+03  0.00000000000E+00 0.  1.
         -6    2    1    2    0  503 -0.35388859353E+02 -0.16092281439E+02 -0.13835943199E+03  0.22393643802E+03  0.17173486240E+03 0.  0.
        -24    2    3    3    0    0 -0.64832022123E+02 -0.24507459542E+02 -0.29785288481E+02  0.11102873370E+03  0.81464161633E+02 0.  0.
          6    2    1    2  501    0  0.35388859353E+02  0.16092281439E+02  0.86003749570E+01  0.17526646969E+03  0.17068402403E+03 0.  0.
         24    2    5    5    0    0  0.64263576241E+02 -0.27058024316E+02  0.38986945148E+02  0.11492467812E+03  0.82618132615E+02 0.  0.
          5    1    5    5  501    0 -0.28874716888E+02  0.43150305755E+02 -0.30386570191E+02  0.60341791572E+02  0.47000000000E+01 0. -1.
        -11    1    6    6    0    0  0.77252891902E+02 -0.30121630474E+01  0.15414451156E+02  0.78833290797E+02  0.00000000000E+00 0.  1.
         12    1    6    6    0    0 -0.12989315662E+02 -0.24045861269E+02  0.23572493992E+02  0.36091387318E+02  0.00000000000E+00 0. -1.
         -5    1    3    3    0  503  0.29443162770E+02  0.84151781033E+01 -0.10857414351E+03  0.11290770432E+03  0.47000000000E+01 0.  1.
         11    1    4    4    0    0 -0.15664556627E+02 -0.46464816991E+02  0.91790163385E+00  0.49042839393E+02  0.00000000000E+00 0. -1.
        -12    1    4    4    0    0 -0.49167465495E+02  0.21957357449E+02 -0.30703190115E+02  0.61985894303E+02  0.00000000000E+00 0.  1.
</event>
<event>
12    1  0.1627564E-001  0.2222065E+03  0.7818608E-02  0.1135630E+00
         21   -1    0    0  503  502  0.00000000000E+00  0.00000000000E+00  0.35519875739E+03  0.35519875739E+03  0.00000000000E+00 0.  1.
         21   -1    0    0  501  503 -0.00000000000E+00 -0.00000000000E+00 -0.41825453835E+03  0.41825453835E+03  0.00000000000E+00 0.  1.
          6    2    1    2  501    0 -0.47656983697E+02 -0.99287527413E+02 -0.35308317282E+03  0.40808823877E+03  0.17245023195E+03 0.  0.
         24    2    3    3    0    0  0.11220676990E+02 -0.76771293128E+02 -0.10854422273E+03  0.15551162099E+03  0.79889179090E+02 0.  0.
         -6    2    1    2    0  502  0.47656983697E+02  0.99287527413E+02  0.29002739186E+03  0.36536505697E+03  0.19299361552E+03 0.  0.
        -24    2    5    5    0    0 -0.25146959939E+02  0.55981632598E+02  0.49539893601E+02  0.11035105431E+03  0.77180576223E+02 0.  0.
          5    1    3    3  501    0 -0.58877660688E+02 -0.22516234284E+02 -0.24453895010E+03  0.25257661778E+03  0.47000000000E+01 0. -1.
        -11    1    4    4    0    0  0.34915677963E+02 -0.44538964537E+01 -0.31872411040E+02  0.47484653803E+02  0.00000000000E+00 0.  1.
         12    1    4    4    0    0 -0.23695000973E+02 -0.72317396675E+02 -0.76671811685E+02  0.10802696719E+03  0.00000000000E+00 0. -1.
         -5    1    5    5    0  502  0.72803943636E+02  0.43305894814E+02  0.24048749826E+03  0.25501400266E+03  0.47000000000E+01 0.  1.
         13    1    6    6    0    0  0.15609832223E+02  0.55003649061E+02  0.35156471158E+02  0.67119637486E+02  0.00000000000E+00 0. -1.
        -14    1    6    6    0    0 -0.40756792162E+02  0.97798353747E+00  0.14383422443E+02  0.43231416821E+02  0.00000000000E+00 0.  1.
</event>
<event>
12    1  0.1627564E-001  0.1824980E+03  0.7818608E-02  0.1166316E+00
         21   -1    0    0  501  502  0.00000000000E+00  0.00000000000E+00  0.14331215718E+03  0.14331215718E+03  0.00000000000E+00 0.  1.
         21   -1    0    0  502  503 -0.00000000000E+00 -0.00000000000E+00 -0.30051664172E+03  0.30051664172E+03  0.00000000000E+00 0. -1.
         -6    2    1    2    0  503 -0.25543217232E+02  0.54851365363E+01 -0.18852565767E+03  0.26238795599E+03  0.18061830798E+03 0.  0.
        -24    2    3    3    0    0  0.20893225761E+02 -0.25990370470E+02 -0.19159669739E+03  0.20600912960E+03  0.67959111169E+02 0.  0.
          6    2    1    2  501    0  0.25543217232E+02 -0.54851365363E+01  0.31321173136E+02  0.18144084292E+03  0.17679711797E+03 0.  0.
         24    2    5    5    0    0 -0.24982512860E+02  0.53750153242E+02  0.28178082888E+02  0.10337908549E+03  0.79875065190E+02 0.  0.
          5    1    5    5  501    0  0.50525730092E+02 -0.59235289778E+02  0.31430902481E+01  0.78061757428E+02  0.47000000000E+01 0. -1.
        -13    1    6    6    0    0  0.11371371891E+02  0.56364275172E+02  0.33496829090E+02  0.66545301663E+02  0.00000000000E+00 0.  1.
         14    1    6    6    0    0 -0.36353884750E+02 -0.26141219296E+01 -0.53187462013E+01  0.36833783827E+02  0.00000000000E+00 0. -1.
         -5    1    3    3    0  503 -0.46436442993E+02  0.31475507006E+02  0.30710397151E+01  0.56378826381E+02  0.47000000000E+01 0.  1.
         11    1    4    4    0    0 -0.24738090729E+02 -0.71390373876E+01 -0.54037044711E+02  0.59857674435E+02  0.00000000000E+00 0. -1.
        -12    1    4    4    0    0  0.45631316490E+02 -0.18851333083E+02 -0.13755965268E+03  0.14615145517E+03  0.00000000000E+00 0.  1.
</event>
<event>
12    1  0.1627564E-001  0.1970835E+03  0.7818608E-02  0.1152294E+00
         21   -1    0    0  501  502  0.00000000000E+00  0.00000000000E+00  0.72634418996E+03  0.72634418996E+03  0.00000000000E+00 0. -1.
         21   -1    0    0  502  503 -0.00000000000E+00 -0.00000000000E+00 -0.10393702504E+03  0.10393702504E+03  0.00000000000E+00 0. -1.
         -6    2    1    2    0  503  0.19158873943E+02  0.92590276691E+02  0.21820827055E+02  0.19828784110E+03  0.17292165176E+03 0.  0.
        -24    2    3    3    0    0 -0.15023824043E+02  0.12020729535E+03 -0.77217010305E+01  0.14512763487E+03  0.79541791488E+02 0.  0.
          6    2    1    2  501    0 -0.19158873943E+02 -0.92590276691E+02  0.60058633787E+03  0.63199337390E+03  0.17254464242E+03 0.  0.
         24    2    5    5    0    0 -0.61185695768E+02 -0.52564080575E+02  0.52245090281E+03  0.53454807467E+03  0.79246617350E+02 0.  0.
          5    1    5    5  501    0  0.42026821825E+02 -0.40026196116E+02  0.78135435062E+02  0.97445299222E+02  0.47000000000E+01 0. -1.
        -13    1    6    6    0    0 -0.33714344763E+02  0.23431017326E+01  0.34745012923E+03  0.34908987306E+03  0.00000000000E+00 0.  1.
         14    1    6    6    0    0 -0.27471351005E+02 -0.54907182307E+02  0.17500077357E+03  0.18545820162E+03  0.00000000000E+00 0. -1.
         -5    1    3    3    0  503  0.34182697986E+02 -0.27617018656E+02  0.29542528085E+02  0.53160206233E+02  0.47000000000E+01 0.  1.
         11    1    4    4    0    0 -0.13683907152E+02  0.12689718233E+03  0.81080701801E+01  0.12789012862E+03  0.00000000000E+00 0. -1.
        -12    1    4    4    0    0 -0.13399168915E+01 -0.66898869792E+01 -0.15829771211E+02  0.17237506248E+02  0.00000000000E+00 0.  1.
</event>
<event>
12    1  0.1627564E-001  0.1937784E+03  0.7818608E-02  0.1155292E+00
         21   -1    0    0  501  502  0.00000000000E+00  0.00000000000E+00  0.18000729304E+04  0.18000729304E+04  0.00000000000E+00 0. -1.
         21   -1    0    0  502  503 -0.00000000000E+00 -0.00000000000E+00 -0.21339561907E+02  0.21339561907E+02  0.00000000000E+00 0.  1.
         -6    2    1    2    0  503 -0.28358989555E+02  0.83825758730E+02  0.73794751886E+03  0.76274103910E+03  0.17139533838E+03 0.  0.
        -24    2    3    3    0    0 -0.31977175301E+02 -0.11241755982E+01  0.20092677043E+03  0.21901044694E+03  0.81056802798E+02 0.  0.
          6    2    1    2  501    0  0.28358989555E+02 -0.83825758730E+02  0.10407858496E+04  0.10586714532E+04  0.17239220089E+03 0.  0.
         24    2    5    5    0    0  0.68503022312E+01 -0.12334029673E+03  0.85484328267E+03  0.86730596376E+03  0.78758119616E+02 0.  0.
          5    1    5    5  501    0  0.21508687324E+02  0.39514538004E+02  0.18594256697E+03  0.19136548946E+03  0.47000000000E+01 0. -1.
        -11    1    6    6    0    0 -0.25135281360E+02 -0.10699725532E+03  0.67811695771E+03  0.68696637716E+03  0.00000000000E+00 0.  1.
         12    1    6    6    0    0  0.31985583591E+02 -0.16343041410E+02  0.17672632497E+03  0.18033958660E+03  0.00000000000E+00 0. -1.
         -5    1    3    3    0  503  0.36181857465E+01  0.84949934328E+02  0.53702074843E+03  0.54373059216E+03  0.47000000000E+01 0.  1.
         11    1    4    4    0    0  0.95824991542E+01 -0.25095639664E+02  0.13398427825E+03  0.13665065766E+03  0.00000000000E+00 0. -1.
        -12    1    4    4    0    0 -0.41559674456E+02  0.23971464066E+02  0.66942492182E+02  0.82359789278E+02  0.00000000000E+00 0.  1.
</event>
<event>
12    1  0.1627564E-001  0.1743472E+03  0.7818608E-02  0.1173415E+00
         21   -1    0    0  501  502  0.00000000000E+00  0.00000000000E+00  0.19801876862E+03  0.19801876862E+03  0.00000000000E+00 0. -1.
         21   -1    0    0  502  503 -0.00000000000E+00 -0.00000000000E+00 -0.10558513806E+04  0.10558513806E+04  0.00000000000E+00 0.  1.
         -6    2    1    2    0  503  0.27344467408E+02 -0.69033416770E+01 -0.10085364934E+04  0.10234953889E+04  0.17205108745E+03 0.  0.
        -24    2    3    3    0    0  0.72229683744E+01 -0.26621219084E+01 -0.99351495090E+03  0.99759945477E+03  0.89852414133E+02 0.  0.
          6    2    1    2  501    0 -0.27344467408E+02  0.69033416770E+01  0.15070388141E+03  0.23037476026E+03  0.17194619586E+03 0.  0.
         24    2    5    5    0    0 -0.64760391032E+02 -0.25160305733E+02  0.48763618412E+02  0.11705249393E+03  0.80600537366E+02 0.  0.
          5    1    5    5  501    0  0.37415923624E+02  0.32063647410E+02  0.10194026300E+03  0.11332226633E+03  0.47000000000E+01 0. -1.
        -13    1    6    6    0    0 -0.22572423965E+02  0.28700756898E+02  0.78904643316E+01  0.37356488025E+02  0.00000000000E+00 0.  1.
         14    1    6    6    0    0 -0.42187967067E+02 -0.53861062631E+02  0.40873154080E+02  0.79696005906E+02  0.00000000000E+00 0. -1.
         -5    1    3    3    0  503  0.20121499033E+02 -0.42412197686E+01 -0.15021542476E+02  0.25895934175E+02  0.47000000000E+01 0.  1.
         11    1    4    4    0    0 -0.14787792892E+02 -0.97263413946E+01 -0.39269604123E+02  0.43074149365E+02  0.00000000000E+00 0. -1.
        -12    1    4    4    0    0  0.22010761266E+02  0.70642194862E+01 -0.95424534678E+03  0.95452530541E+03  0.00000000000E+00 0.  1.
</event>
<event>
12    1  0.1627564E-001  0.1813454E+03  0.7818608E-02  0.1166550E+00
         21   -1    0    0  503  502  0.00000000000E+00  0.00000000000E+00  0.74948824408E+02  0.74948824408E+02  0.00000000000E+00 0.  1.
         21   -1    0    0  501  503 -0.00000000000E+00 -0.00000000000E+00 -0.51419688706E+03  0.51419688706E+03  0.00000000000E+00 0.  1.
          6    2    1    2  501    0  0.49270122353E+02 -0.29805919845E+02 -0.33266456115E+03  0.37879794464E+03  0.17177378963E+03 0.  0.
         24    2    3    3    0    0  0.45365013672E+02 -0.25130425853E+02 -0.34833316340E+03  0.36134213717E+03  0.80886492060E+02 0.  0.
         -6    2    1    2    0  502 -0.49270122353E+02  0.29805919845E+02 -0.10658350150E+03  0.21034776683E+03  0.17195988603E+03 0.  0.
        -24    2    5    5    0    0 -0.20635038101E+02  0.29140934915E+02 -0.14134503064E+03  0.16506129906E+03  0.77406820600E+02 0.  0.
          5    1    3    3  501    0  0.39051086818E+01 -0.46754939923E+01  0.15668602255E+02  0.17455807472E+02  0.47000000000E+01 0. -1.
        -11    1    4    4    0    0  0.21174463136E+02  0.79559703986E+01 -0.19208620634E+02  0.29675351063E+02  0.00000000000E+00 0.  1.
         12    1    4    4    0    0  0.24190550536E+02 -0.33086396252E+02 -0.32912454277E+03  0.33166678610E+03  0.00000000000E+00 0. -1.
         -5    1    5    5    0  502 -0.28635084253E+02  0.66498493012E+00  0.34761529135E+02  0.45286467769E+02  0.47000000000E+01 0.  1.
         13    1    6    6    0    0 -0.38824101016E+02  0.39845167735E+02 -0.63578488379E+02  0.84481787363E+02  0.00000000000E+00 0. -1.
        -14    1    6    6    0    0  0.18189062915E+02 -0.10704232820E+02 -0.77766542260E+02  0.80579511696E+02  0.00000000000E+00 0.  1.
</event>
<event>
12    1  0.1627564E-001  0.1773869E+03  0.7818608E-02  0.1170541E+00
         21   -1    0    0  503  502  0.00000000000E+00  0.00000000000E+00  0.19777004384E+03  0.19777004384E+03  0.00000000000E+00 0. -1.
         21   -1    0    0  501  503 -0.00000000000E+00 -0.00000000000E+00 -0.23953238026E+03  0.23953238026E+03  0.00000000000E+00 0. -1.
          6    2    1    2  501    0  0.35698680720E+02 -0.21273024898E+02 -0.14807748209E+03  0.23049565427E+03  0.17168100810E+03 0.  0.
         24    2    3    3    0    0 -0.26899416478E+02 -0.32818076418E+02 -0.26556210050E+02  0.93231968080E+02  0.78653434974E+02 0.  0.
         -6    2    1    2    0  502 -0.35698680720E+02  0.21273024898E+02  0.10631514568E+03  0.20680676983E+03  0.17245055075E+03 0.  0.
        -24    2    5    5    0    0 -0.19530711395E+02 -0.53574288129E+02  0.80409683042E+02  0.12583327729E+03  0.78208973343E+02 0.  0.
          5    1    3    3  501    0  0.62598097198E+02  0.11545051520E+02 -0.12152127204E+03  0.13726368619E+03  0.47000000000E+01 0. -1.
        -13    1    4    4    0    0  0.44230775880E+01 -0.18234072932E+02  0.24945461139E+02  0.31214116397E+02  0.00000000000E+00 0.  1.
         14    1    4    4    0    0 -0.31322494066E+02 -0.14584003486E+02 -0.51501671188E+02  0.62017851683E+02  0.00000000000E+00 0. -1.
         -5    1    5    5    0  502 -0.16167969326E+02  0.74847313027E+02  0.25905462635E+02  0.80973492538E+02  0.47000000000E+01 0.  1.
         13    1    6    6    0    0 -0.48630815353E+02 -0.44237675462E+02  0.60619059005E+02  0.89423701818E+02  0.00000000000E+00 0. -1.
        -14    1    6    6    0    0  0.29100103959E+02 -0.93366126669E+01  0.19790624037E+02  0.36409575475E+02  0.00000000000E+00 0.  1.
</event>
<event>
12    1  0.1627564E-001  0.1950011E+03  0.7818608E-02  0.1154136E+00
         21   -1    0    0  501  502  0.00000000000E+00  0.00000000000E+00  0.15619137127E+03  0.15619137127E+03  0.00000000000E+00 0. -1.
         21   -1    0    0  502  503 -0.00000000000E+00 -0.00000000000E+00 -0.28148398655E+03  0.28148398655E+03  0.00000000000E+00 0. -1.
         -6    2    1    2    0  503 -0.65276143333E+02  0.62624017701E+02  0.18378282652E+02  0.19586527456E+03  0.17275040383E+03 0.  0.
        -24    2    3    3    0    0 -0.10308468077E+03  0.77555397145E+02 -0.22637605937E-01  0.15099751930E+03  0.78479037237E+02 0.  0.
          6    2    1    2  501    0  0.65276143333E+02 -0.62624017701E+02 -0.14367089793E+03  0.24181008327E+03  0.17218608241E+03 0.  0.
         24    2    5    5    0    0  0.96958400514E+02 -0.59025701909E+02 -0.15437736127E+03  0.20784787406E+03  0.80519588684E+02 0.  0.
          5    1    5    5  501    0 -0.31682257180E+02 -0.35983157927E+01  0.10706463349E+02  0.33962209204E+02  0.47000000000E+01 0. -1.
        -11    1    6    6    0    0  0.38056614493E+02 -0.45723686534E+02 -0.23967104668E+02  0.64135664985E+02  0.00000000000E+00 0.  1.
         12    1    6    6    0    0  0.58901786021E+02 -0.13302015374E+02 -0.13041025661E+03  0.14371220908E+03  0.00000000000E+00 0. -1.
         -5    1    3    3    0  503  0.37808537439E+02 -0.14931379444E+02  0.18400920258E+02  0.44867755256E+02  0.47000000000E+01 0.  1.
         11    1    4    4    0    0 -0.20929118414E+02  0.26036542643E+02  0.34538111475E+02  0.48050085272E+02  0.00000000000E+00 0. -1.
        -12    1    4    4    0    0 -0.82155562359E+02  0.51518854502E+02 -0.34560749081E+02  0.10294743403E+03  0.00000000000E+00 0.  1.
</event>
<event>
12    1  0.1627564E-001  0.1909693E+03  0.7818608E-02  0.1158071E+00
         21   -1    0    0  503  502  0.00000000000E+00  0.00000000000E+00  0.46444376487E+03  0.46444376487E+03  0.00000000000E+00 0. -1.
         21   -1    0    0  501  503 -0.00000000000E+00 -0.00000000000E+00 -0.14118368211E+03  0.14118368211E+03  0.00000000000E+00 0. -1.
          6    2    1    2  501    0 -0.77904447399E+02 -0.11385857688E+02 -0.41007985554E+02  0.19532263352E+03  0.17398429701E+03 0.  0.
         24    2    3    3    0    0 -0.20346019834E+02 -0.51450822305E+02  0.23325389828E+02  0.10003859939E+03  0.80015622959E+02 0.  0.
         -6    2    1    2    0  502  0.77904447399E+02  0.11385857688E+02  0.36426806832E+03  0.41030481345E+03  0.17163937097E+03 0.  0.
        -24    2    5    5    0    0  0.83337933952E+02 -0.94841900396E+01  0.36958523598E+03  0.38760142295E+03  0.81280104137E+02 0.  0.
          5    1    3    3  501    0 -0.57558427565E+02  0.40064964617E+02 -0.64333375382E+02  0.95284034138E+02  0.47000000000E+01 0. -1.
        -13    1    4    4    0    0 -0.41207159305E+02 -0.11932879236E+00  0.41941496401E+01  0.41420225838E+02  0.00000000000E+00 0.  1.
         14    1    4    4    0    0  0.20861139471E+02 -0.51331493513E+02  0.19131240188E+02  0.58618373548E+02  0.00000000000E+00 0. -1.
         -5    1    5    5    0  502 -0.54334865530E+01  0.20870047728E+02 -0.53171676570E+01  0.22703390499E+02  0.47000000000E+01 0.  1.
         13    1    6    6    0    0  0.44274707788E+02 -0.26486291990E+02  0.82017423130E+02  0.96894948836E+02  0.00000000000E+00 0. -1.
        -14    1    6    6    0    0  0.39063226164E+02  0.17002101950E+02  0.28756781285E+03  0.29070647412E+03  0.00000000000E+00 0.  1.
</event>
<event>
12    1  0.1627564E-001  0.2734512E+03  0.7818608E-02  0.1099500E+00
         21   -1    0    0  501  502  0.00000000000E+00  0.00000000000E+00  0.11872302663E+03  0.11872302663E+03  0.00000000000E+00 0. -1.
         21   -1    0    0  502  503 -0.00000000000E+00 -0.00000000000E+00 -0.66388197070E+03  0.66388197070E+03  0.00000000000E+00 0. -1.
         -6    2    1    2    0  503 -0.17188236687E+03  0.12300679902E+03 -0.36433455497E+03  0.45477424838E+03  0.17148098553E+03 0.  0.
        -24    2    3    3    0    0 -0.10454721397E+03  0.13913251888E+03 -0.21560309564E+03  0.29064869080E+03  0.87772369545E+02 0.  0.
          6    2    1    2  501    0  0.17188236687E+03 -0.12300679902E+03 -0.18082438909E+03  0.32783074895E+03  0.17349731876E+03 0.  0.
         24    2    5    5    0    0  0.18299932715E+02 -0.30734685072E+02 -0.25521852876E+02  0.90675367708E+02  0.79316763240E+02 0.  0.
          5    1    5    5  501    0  0.15358243416E+03 -0.92272113952E+02 -0.15530253622E+03  0.23715538124E+03  0.47000000000E+01 0. -1.
        -11    1    6    6    0    0  0.16266931963E+02  0.25759730573E+02 -0.96733108782E+01  0.31964820320E+02  0.00000000000E+00 0.  1.
         12    1    6    6    0    0  0.20330007517E+01 -0.56494415646E+02 -0.15848541998E+02  0.58710547389E+02  0.00000000000E+00 0. -1.
         -5    1    3    3    0  503 -0.67335152905E+02 -0.16125719852E+02 -0.14873145933E+03  0.16412555758E+03  0.47000000000E+01 0.  1.
         13    1    4    4    0    0 -0.75830033577E+02  0.86690672095E+02 -0.73892783932E+02  0.13684155121E+03  0.00000000000E+00 0. -1.
        -14    1    4    4    0    0 -0.28717180392E+02  0.52441846781E+02 -0.14171031171E+03  0.15380713959E+03  0.00000000000E+00 0.  1.
</event>
<event>
12    1  0.1627564E-001  0.2203703E+03  0.7818608E-02  0.1134226E+00
         21   -1    0    0  503  502  0.00000000000E+00  0.00000000000E+00  0.18356326823E+04  0.18356326823E+04  0.00000000000E+00 0. -1.
         21   -1    0    0  501  503 -0.00000000000E+00 -0.00000000000E+00 -0.27792610888E+02  0.27792610888E+02  0.00000000000E+00 0. -1.
          6    2    1    2  501    0  0.17511044225E+02 -0.13160922391E+03  0.11428618597E+04  0.11639142138E+04  0.17588474137E+03 0.  0.
         24    2    3    3    0    0  0.17137315889E+02 -0.12178144453E+03  0.11436019414E+04  0.11529888927E+04  0.80209591025E+02 0.  0.
         -6    2    1    2    0  502 -0.17511044225E+02  0.13160922391E+03  0.66497821170E+03  0.69951107937E+03  0.17173265164E+03 0.  0.
        -24    2    5    5    0    0 -0.23757673703E+02  0.36148657058E+02  0.50238664277E+03  0.51080536009E+03  0.81600395780E+02 0.  0.
          5    1    3    3  501    0  0.37372833603E+00 -0.98277793845E+01 -0.74008168897E+00  0.10925321112E+02  0.47000000000E+01 0. -1.
        -11    1    4    4    0    0  0.36211755265E+02 -0.11838468281E+03  0.87852129873E+03  0.88720115907E+03  0.00000000000E+00 0.  1.
         12    1    4    4    0    0 -0.19074439376E+02 -0.33967617192E+01  0.26508064264E+03  0.26578773360E+03  0.00000000000E+00 0. -1.
         -5    1    5    5    0  502  0.62466294782E+01  0.95460566856E+02  0.16259156892E+03  0.18870571928E+03  0.47000000000E+01 0.  1.
         13    1    6    6    0    0 -0.11606585238E+02  0.47734401034E+02  0.14638567101E+03  0.15440871265E+03  0.00000000000E+00 0. -1.
        -14    1    6    6    0    0 -0.12151088465E+02 -0.11585743976E+02  0.35600097176E+03  0.35639664744E+03  0.00000000000E+00 0.  1.
</event>
<event>
12    1  0.1627564E-001  0.1801248E+03  0.7818608E-02  0.1167916E+00
         21   -1    0    0  501  502  0.00000000000E+00  0.00000000000E+00  0.18055571814E+04  0.18055571814E+04  0.00000000000E+00 0.  1.
         21   -1    0    0  502  503 -0.00000000000E+00 -0.00000000000E+00 -0.17940339487E+02  0.17940339487E+02  0.00000000000E+00 0.  1.
         -6    2    1    2    0  503  0.36355299234E+02  0.41284930463E+02  0.83576408225E+03  0.85475162544E+03  0.17050685246E+03 0.  0.
        -24    2    3    3    0    0 -0.26280438686E+02 -0.38581580312E+01  0.24451315511E+03  0.25846236430E+03  0.79439057739E+02 0.  0.
          6    2    1    2  501    0 -0.36355299234E+02 -0.41284930463E+02  0.95185275965E+03  0.96874589545E+03  0.17151903864E+03 0.  0.
         24    2    5    5    0    0 -0.69730651715E+02 -0.57626965391E+02  0.47253327543E+03  0.48796503662E+03  0.81479749900E+02 0.  0.
          5    1    5    5  501    0  0.33375352481E+02  0.16342034928E+02  0.47931948422E+03  0.48078085883E+03  0.47000000000E+01 0. -1.
        -11    1    6    6    0    0 -0.55991724948E+02 -0.68317677094E+02  0.45409832282E+03  0.46260962491E+03  0.00000000000E+00 0.  1.
         12    1    6    6    0    0 -0.13738926767E+02  0.10690711703E+02  0.18434952612E+02  0.25355411715E+02  0.00000000000E+00 0. -1.
         -5    1    3    3    0  503  0.62635737921E+02  0.45143088494E+02  0.59125092714E+03  0.59628926114E+03  0.47000000000E+01 0.  1.
         13    1    4    4    0    0 -0.32410805179E+02 -0.37341055980E+02  0.15500231009E+03  0.16269766713E+03  0.00000000000E+00 0. -1.
        -14    1    4    4    0    0  0.61303664926E+01  0.33482897948E+02  0.89510845020E+02  0.95764697172E+02  0.00000000000E+00 0.  1.
</event>
<event>
12    1  0.1627564E-001  0.2123757E+03  0.7818608E-02  0.1140376E+00
         21   -1    0    0  503  502  0.00000000000E+00  0.00000000000E+00  0.56381657748E+02  0.56381657748E+02  0.00000000000E+00 0. -1.
         21   -1    0    0  501  503 -0.00000000000E+00 -0.00000000000E+00 -0.86980845063E+03  0.86980845063E+03  0.00000000000E+00 0. -1.
          6    2    1    2  501    0  0.10206669192E+03  0.57414279764E+02 -0.26087306092E+03  0.33422807382E+03  0.17303075534E+03 0.  0.
         24    2    3    3    0    0  0.53428733063E+01  0.28446028634E+02 -0.44323634427E+02  0.95250248957E+02  0.79185241790E+02 0.  0.
         -6    2    1    2    0  502 -0.10206669192E+03 -0.57414279764E+02 -0.55255373196E+03  0.59196203456E+03  0.17717058033E+03 0.  0.
        -24    2    5    5    0    0 -0.44860245855E+02  0.39377885129E+02 -0.22404169714E+03  0.24471061602E+03  0.78265854872E+02 0.  0.
          5    1    3    3  501    0  0.96723818618E+02  0.28968251129E+02 -0.21654942649E+03  0.23897782486E+03  0.47000000000E+01 0. -1.
        -13    1    4    4    0    0  0.14121310173E+02 -0.19895764424E+02  0.57835121635E+01  0.25073927813E+02  0.00000000000E+00 0.  1.
         14    1    4    4    0    0 -0.87784368668E+01  0.48341793058E+02 -0.50107146591E+02  0.70176321144E+02  0.00000000000E+00 0. -1.
         -5    1    5    5    0  502 -0.57206446070E+02 -0.96792164892E+02 -0.32851203482E+03  0.34725141854E+03  0.47000000000E+01 0.  1.
         11    1    6    6    0    0 -0.29279390306E+02 -0.10002181662E+02 -0.27279284418E+02  0.41249068997E+02  0.00000000000E+00 0. -1.
        -12    1    6    6    0    0 -0.15580855548E+02  0.49380066791E+02 -0.19676241272E+03  0.20346154702E+03  0.00000000000E+00 0.  1.
</event>
<event>
12    1  0.1627564E-001  0.2000435E+03  0.7818608E-02  0.1150268E+00
         21   -1    0    0  503  502  0.00000000000E+00  0.00000000000E+00  0.59976887927E+03  0.59976887927E+03  0.00000000000E+00 0. -1.
         21   -1    0    0  501  503 -0.00000000000E+00 -0.00000000000E+00 -0.65836050904E+02  0.65836050904E+02  0.00000000000E+00 0.  1.
          6    2    1    2  501    0 -0.43959210217E+02 -0.87572511993E+02  0.26566824212E+03  0.33096585587E+03  0.17134008831E+03 0.  0.
         24    2    3    3    0    0 -0.46728968652E+02 -0.15833562079E+02  0.54754402184E+02  0.10811862934E+03  0.79103067279E+02 0.  0.
         -6    2    1    2    0  502  0.43959210217E+02  0.87572511993E+02  0.26826458625E+03  0.33463907431E+03  0.17440202062E+03 0.  0.
        -24    2    5    5    0    0  0.74075268116E+02  0.11884293489E+02  0.10089113085E+03  0.14843583337E+03  0.78903704378E+02 0.  0.
          5    1    3    3  501    0  0.27697584344E+01 -0.71738949913E+02  0.21091383993E+03  0.22284722653E+03  0.47000000000E+01 0. -1.
        -11    1    4    4    0    0  0.14489920684E+02 -0.18358325991E+02  0.37962208078E+02  0.44588285197E+02  0.00000000000E+00 0.  1.
         12    1    4    4    0    0 -0.61218889336E+02  0.25247639116E+01  0.16792194106E+02  0.63530344145E+02  0.00000000000E+00 0. -1.
         -5    1    5    5    0  502 -0.30116057899E+02  0.75688218504E+02  0.16737345540E+03  0.18620324094E+03  0.47000000000E+01 0.  1.
         11    1    6    6    0    0  0.45568417855E+02  0.35957057488E+02  0.94023026714E+02  0.11049760288E+03  0.00000000000E+00 0. -1.
        -12    1    6    6    0    0  0.28506850262E+02 -0.24072763999E+02  0.68681041401E+01  0.37938230492E+02  0.00000000000E+00 0.  1.
</event>
<event>
12    1  0.1627564E-001  0.2181195E+03  0.7818608E-02  0.1135533E+00
         21   -1    0    0  501  502  0.00000000000E+00  0.00000000000E+00  0.24232209963E+03  0.24232209963E+03  0.00000000000E+00 0.  1.
         21   -1    0    0  502  503 -0.00000000000E+00 -0.00000000000E+00 -0.23854542582E+03  0.23854542582E+03  0.00000000000E+00 0.  1.
         -6    2    1    2    0  503 -0.11069907735E+03  0.77584798823E+02 -0.10060393034E+03  0.24020258266E+03  0.17117956416E+03 0.  0.
        -24    2    3    3    0    0 -0.98556260590E+02 -0.81117074191E+01 -0.83136480594E+02  0.15178006867E+03  0.79664160950E+02 0.  0.
          6    2    1    2  501    0  0.11069907735E+03 -0.77584798823E+02  0.10438060414E+03  0.24066494279E+03  0.16956007028E+03 0.  0.
         24    2    5    5    0    0  0.13292986751E+03 -0.38240451668E+02  0.59334991841E+02  0.17668539237E+03  0.92544069508E+02 0.  0.
          5    1    5    5  501    0 -0.22230790163E+02 -0.39344347155E+02  0.45045612300E+02  0.63979550419E+02  0.47000000000E+01 0. -1.
        -13    1    6    6    0    0  0.70946157511E+02 -0.67356878093E+02  0.31666621420E+02  0.10282548908E+03  0.00000000000E+00 0.  1.
         14    1    6    6    0    0  0.61983709998E+02  0.29116426424E+02  0.27668370422E+02  0.73859903294E+02  0.00000000000E+00 0. -1.
         -5    1    3    3    0  503 -0.12142816756E+02  0.85696506242E+02 -0.17467449743E+02  0.88422513996E+02  0.47000000000E+01 0.  1.
         13    1    4    4    0    0 -0.14718575613E+02 -0.14580718555E+02  0.12686929559E+02  0.24293867606E+02  0.00000000000E+00 0. -1.
        -14    1    4    4    0    0 -0.83837684977E+02  0.64690111355E+01 -0.95823410153E+02  0.12748620106E+03  0.00000000000E+00 0.  1.
</event>
<event>
12    1  0.1627564E-001  0.1925957E+03  0.7818608E-02  0.1156752E+00
         21   -1    0    0  501  502  0.00000000000E+00  0.00000000000E+00  0.10605452199E+03  0.10605452199E+03  0.00000000000E+00 0.  1.
         21   -1    0    0  502  503 -0.00000000000E+00 -0.00000000000E+00 -0.35098019104E+03  0.35098019104E+03  0.00000000000E+00 0.  1.
         -6    2    1    2    0  503 -0.78767070535E+02 -0.17914986328E+02 -0.93009332040E+02  0.21387806310E+03  0.17483675785E+03 0.  0.
        -24    2    3    3    0    0  0.15213903264E+02  0.30611963401E+02 -0.41293061142E+02  0.96047884617E+02  0.79696449640E+02 0.  0.
          6    2    1    2  501    0  0.78767070535E+02  0.17914986328E+02 -0.15191633701E+03  0.24315664993E+03  0.17181788271E+03 0.  0.
         24    2    5    5    0    0  0.98511603777E+02  0.63007692896E+01 -0.17084788132E+03  0.21306960952E+03  0.80407861410E+02 0.  0.
          5    1    5    5  501    0 -0.19744533242E+02  0.11614217039E+02  0.18931544314E+02  0.30087040408E+02  0.47000000000E+01 0. -1.
        -13    1    6    6    0    0  0.65083109512E+02 -0.34714058484E+02 -0.88794943498E+02  0.11543577864E+03  0.00000000000E+00 0.  1.
         14    1    6    6    0    0  0.33428494265E+02  0.41014827773E+02 -0.82052937824E+02  0.97633830877E+02  0.00000000000E+00 0. -1.
         -5    1    3    3    0  503 -0.93980973799E+02 -0.48526949730E+02 -0.51716270898E+02  0.11783017849E+03  0.47000000000E+01 0.  1.
         11    1    4    4    0    0  0.40838765111E+02  0.15898440175E+01 -0.40184717195E+02  0.57316174295E+02  0.00000000000E+00 0. -1.
        -12    1    4    4    0    0 -0.25624861847E+02  0.29022119384E+02 -0.11083439472E+01  0.38731710322E+02  0.00000000000E+00 0.  1.
</event>
<event>
12    1  0.1627564E-001  0.1796749E+03  0.7818608E-02  0.1168597E+00
         21   -1    0    0  503  502  0.00000000000E+00  0.00000000000E+00  0.13257930608E+03  0.13257930608E+03  0.00000000000E+00 0. -1.
         21   -1    0    0  501  503 -0.00000000000E+00 -0.00000000000E+00 -0.26585624865E+03  0.26585624865E+03  0.00000000000E+00 0. -1.
          6    2    1    2  501    0 -0.20382354663E+02 -0.38338656219E+02 -0.12807318076E+03  0.22064859513E+03  0.17434956255E+03 0.  0.
         24    2    3    3    0    0 -0.36382897483E+02 -0.74504840380E+02 -0.37689652517E+02  0.12187976187E+03  0.80990616597E+02 0.  0.
         -6    2    1    2    0  502  0.20382354663E+02  0.38338656219E+02 -0.52037618103E+01  0.17778695960E+03  0.17232478326E+03 0.  0.
        -24    2    5    5    0    0  0.76116094729E+02  0.25196741327E+02  0.20104076290E+02  0.11500530322E+03  0.79959428679E+02 0.  0.
          5    1    3    3  501    0  0.16000542820E+02  0.36166184161E+02 -0.90383528243E+02  0.98768833267E+02  0.47000000000E+01 0. -1.
        -13    1    4    4    0    0 -0.16889111019E+02  0.14711804355E+02  0.16208366978E+01  0.22456766686E+02  0.00000000000E+00 0.  1.
         14    1    4    4    0    0 -0.19493786464E+02 -0.89216644736E+02 -0.39310489215E+02  0.99422995182E+02  0.00000000000E+00 0. -1.
         -5    1    5    5    0  502 -0.55733740066E+02  0.13141914893E+02 -0.25307838100E+02  0.62781656382E+02  0.47000000000E+01 0.  1.
         11    1    6    6    0    0  0.77043983893E+02  0.23459468464E+02 -0.13227581076E+02  0.81615507202E+02  0.00000000000E+00 0. -1.
        -12    1    6    6    0    0 -0.92788916406E+00  0.17372728631E+01  0.33331657366E+02  0.33389796017E+02  0.00000000000E+00 0.  1.
</event>
<event>
12    1  0.1627564E-001  0.2781243E+03  0.7818608E-02  0.1097125E+00
         21   -1    0    0  503  502  0.00000000000E+00  0.00000000000E+00  0.10563143141E+03  0.10563143141E+03  0.00000000000E+00 0. -1.
         21   -1    0    0  501  503 -0.00000000000E+00 -0.00000000000E+00 -0.75204677164E+03  0.75204677164E+03  0.00000000000E+00 0.  1.
          6    2    1    2  501    0 -0.98661535236E+02 -0.18977659021E+03 -0.24289169123E+03  0.36925534683E+03  0.17777481477E+03 0.  0.
         24    2    3    3    0    0 -0.11861804595E+03 -0.20443439095E+03 -0.20122679316E+03  0.32056071495E+03  0.80020551470E+02 0.  0.
         -6    2    1    2    0  502  0.98661535236E+02  0.18977659021E+03 -0.40352364899E+03  0.48842285622E+03  0.17313664676E+03 0.  0.
        -24    2    5    5    0    0  0.83790596373E+02  0.38084388938E+02 -0.20028469877E+03  0.23433659205E+03  0.79551197926E+02 0.  0.
          5    1    3    3  501    0  0.19956510710E+02  0.14657800742E+02 -0.41664898077E+02  0.48694631882E+02  0.47000000000E+01 0. -1.
        -11    1    4    4    0    0 -0.39204924705E+01 -0.19976071150E+02 -0.55182847232E+02  0.58818027070E+02  0.00000000000E+00 0.  1.
         12    1    4    4    0    0 -0.11469755348E+03 -0.18445831981E+03 -0.14604394592E+03  0.26174268788E+03  0.00000000000E+00 0. -1.
         -5    1    5    5    0  502  0.14870938864E+02  0.15169220127E+03 -0.20323895023E+03  0.25408626417E+03  0.47000000000E+01 0.  1.
         11    1    6    6    0    0  0.65428817735E+01  0.54536935810E+01  0.68118793711E+01  0.10906593242E+02  0.00000000000E+00 0. -1.
        -12    1    6    6    0    0  0.77247714599E+02  0.32630695357E+02 -0.20709657814E+03  0.22342999881E+03  0.00000000000E+00 0.  1.
</event>
<event>
12    1  0.1627564E-001  0.2328387E+03  0.7818608E-02  0.1126092E+00
         21   -1    0    0  501  502  0.00000000000E+00  0.00000000000E+00  0.24346520928E+03  0.24346520928E+03  0.00000000000E+00 0. -1.
         21   -1    0    0  502  503 -0.00000000000E+00 -0.00000000000E+00 -0.21653046012E+03  0.21653046012E+03  0.00000000000E+00 0. -1.
         -6    2    1    2    0  503  0.14333902259E+03 -0.62110762259E+02 -0.58121102010E+01  0.23291126511E+03  0.17265588494E+03 0.  0.
        -24    2    3    3    0    0  0.93778922407E+02 -0.10770297223E+03 -0.84355065369E+01  0.16535517472E+03  0.82926229391E+02 0.  0.
          6    2    1    2  501    0 -0.14333902259E+03  0.62110762259E+02  0.32746859355E+02  0.22708440429E+03  0.16152754467E+03 0.  0.
         24    2    5    5    0    0 -0.83509495527E+02  0.67117260299E+02 -0.30763296302E+02  0.13956145185E+03  0.83978901935E+02 0.  0.
          5    1    5    5  501    0 -0.59829527065E+02 -0.50064980400E+01  0.63510155657E+02  0.87522952435E+02  0.47000000000E+01 0. -1.
        -11    1    6    6    0    0 -0.16448922320E+02 -0.20043677930E+02 -0.90643208407E+01  0.27467762609E+02  0.00000000000E+00 0.  1.
         12    1    6    6    0    0 -0.67060573207E+02  0.87160938229E+02 -0.21698975461E+02  0.11209368924E+03  0.00000000000E+00 0. -1.
         -5    1    3    3    0  503  0.49560100184E+02  0.45592209975E+02  0.26233963359E+01  0.67556090392E+02  0.47000000000E+01 0.  1.
         11    1    4    4    0    0  0.40721600271E+02 -0.87932374033E+02 -0.34712785911E+02  0.10293361277E+03  0.00000000000E+00 0. -1.
        -12    1    4    4    0    0  0.53057322136E+02 -0.19770598200E+02  0.26277279374E+02  0.62421561954E+02  0.00000000000E+00 0.  1.
</event>
<event>
12    1  0.1627564E-001  0.2163536E+03  0.7818608E-02  0.1136900E+00
         21   -1    0    0  503  502  0.00000000000E+00  0.00000000000E+00  0.84160670246E+02  0.84160670246E+02  0.00000000000E+00 0. -1.
         21   -1    0    0  501  503 -0.00000000000E+00 -0.00000000000E+00 -0.73441325674E+03  0.73441325674E+03  0.00000000000E+00 0. -1.
          6    2    1    2  501    0  0.91221821525E+02  0.93240754174E+02 -0.52957759887E+03  0.57206757728E+03  0.17260828715E+03 0.  0.
         24    2    3    3    0    0 -0.18555644077E+02  0.28596556613E+02 -0.23041735761E+03  0.24687701133E+03  0.81817021819E+02 0.  0.
         -6    2    1    2    0  502 -0.91221821525E+02 -0.93240754174E+02 -0.12067498763E+03  0.24650634971E+03  0.17084398979E+03 0.  0.
        -24    2    5    5    0    0 -0.11814539172E+03 -0.29470819712E+02 -0.81453115818E+02  0.16680736351E+03  0.79769816625E+02 0.  0.
          5    1    3    3  501    0  0.10977746560E+03  0.64644197561E+02 -0.29916024126E+03  0.32519056595E+03  0.47000000000E+01 0. -1.
        -11    1    4    4    0    0  0.43503540758E+01 -0.20465911642E+02 -0.17790494219E+02  0.27464173107E+02  0.00000000000E+00 0.  1.
         12    1    4    4    0    0 -0.22905998153E+02  0.49062468254E+02 -0.21262686339E+03  0.21941283822E+03  0.00000000000E+00 0. -1.
         -5    1    5    5    0  502  0.26923570194E+02 -0.63769934462E+02 -0.39221871808E+02  0.79698986201E+02  0.47000000000E+01 0.  1.
         13    1    6    6    0    0 -0.93211046150E+02 -0.29948555780E+02 -0.19233038267E+02  0.99775372105E+02  0.00000000000E+00 0. -1.
        -14    1    6    6    0    0 -0.24934345568E+02  0.47773606812E+00 -0.62220077551E+02  0.67031991401E+02  0.00000000000E+00 0.  1.
</event>
<event>
12    1  0.1627564E-001  0.1781338E+03  0.7818608E-02  0.1169675E+00
         21   -1    0    0  503  502  0.00000000000E+00  0.00000000000E+00  0.20742507096E+03  0.20742507096E+03  0.00000000000E+00 0.  1.
         21   -1    0    0  501  503 -0.00000000000E+00 -0.00000000000E+00 -0.18225178118E+03  0.18225178118E+03  0.00000000000E+00 0.  1.
          6    2    1    2  501    0 -0.31257626023E+02 -0.32251760443E+02  0.90915365360E+02  0.19979878430E+03  0.17215323207E+03 0.  0.
         24    2    3    3    0    0 -0.18431183258E+02 -0.42572561660E+01  0.12681816667E+03  0.15226657369E+03  0.82124474541E+02 0.  0.
         -6    2    1    2    0  502  0.31257626023E+02  0.32251760443E+02 -0.65742075577E+02  0.18987806784E+03  0.17237878324E+03 0.  0.
        -24    2    5    5    0    0  0.11343183261E+02  0.41641203685E+02  0.27215944828E+02  0.94232732188E+02  0.79224002120E+02 0.  0.
          5    1    3    3  501    0 -0.12826442765E+02 -0.27994504277E+02 -0.35902801309E+02  0.47532210611E+02  0.47000000000E+01 0. -1.
        -11    1    4    4    0    0 -0.22222681889E+02  0.29810326669E+02  0.10559577236E+03  0.11195074947E+03  0.00000000000E+00 0.  1.
         12    1    4    4    0    0  0.37914986318E+01 -0.34067582835E+02  0.21222394310E+02  0.40315824218E+02  0.00000000000E+00 0. -1.
         -5    1    5    5    0  502  0.19914442761E+02 -0.93894432425E+01 -0.92958020406E+02  0.95645335655E+02  0.47000000000E+01 0.  1.
         13    1    6    6    0    0  0.30060122654E+02 -0.29130752710E+01  0.33950887764E+02  0.45439627656E+02  0.00000000000E+00 0. -1.
        -14    1    6    6    0    0 -0.18716939393E+02  0.44554278956E+02 -0.67349429363E+01  0.48793104532E+02  0.00000000000E+00 0.  1.
</event>
<event>
12    1  0.1627564E-001  0.1860261E+03  0.7818608E-02  0.1166181E+00
         21   -1    0    0  503  502  0.00000000000E+00  0.00000000000E+00  0.58635246382E+02  0.58635246382E+02  0.00000000000E+00 0. -1.
         21   -1    0    0  501  503 -0.00000000000E+00 -0.00000000000E+00 -0.16967413976E+04  0.16967413976E+04  0.00000000000E+00 0. -1.
          6    2    1    2  501    0  0.25919471306E+01  0.67242016168E+02 -0.15563049126E+04  0.15673833944E+04  0.17342870951E+03 0.  0.
         24    2    3    3    0    0 -0.38199519775E+02  0.89544612822E+02 -0.13519756346E+04  0.13577792594E+04  0.79050361491E+02 0.  0.
         -6    2    1    2    0  502 -0.25919471306E+01 -0.67242016168E+02 -0.81801238575E+02  0.18799324949E+03  0.15531198374E+03 0.  0.
        -24    2    5    5    0    0  0.46077504771E+02 -0.76173930852E+02 -0.55002953800E+02  0.13152438448E+03  0.79672671597E+02 0.  0.
          5    1    3    3  501    0  0.40791466905E+02 -0.22302596654E+02 -0.20432927797E+03  0.20960413504E+03  0.47000000000E+01 0. -1.
        -13    1    4    4    0    0 -0.36064205080E+02  0.11117919678E+01 -0.46792423771E+03  0.46931328045E+03  0.00000000000E+00 0.  1.
         14    1    4    4    0    0 -0.21353146945E+01  0.88432820854E+02 -0.88405139692E+03  0.88846597896E+03  0.00000000000E+00 0. -1.
         -5    1    5    5    0  502 -0.48669451901E+02  0.89319146848E+01 -0.26798284775E+02  0.56468865007E+02  0.47000000000E+01 0.  1.
         11    1    6    6    0    0  0.50838631119E+02 -0.11099906954E+02 -0.36963898534E+02  0.63828709397E+02  0.00000000000E+00 0. -1.
        -12    1    6    6    0    0 -0.47611263480E+01 -0.65074023898E+02 -0.18039055266E+02  0.67695675086E+02  0.00000000000E+00 0.  1.
</event>
<event>
12    1  0.1627564E-001  0.1826975E+03  0.7818608E-02  0.1166271E+00
         21   -1    0    0  503  502  0.00000000000E+00  0.00000000000E+00  0.93418999016E+02  0.93418999016E+02  0.00000000000E+00 0.  1.
         21   -1    0    0  501  503 -0.00000000000E+00 -0.00000000000E+00 -0.36598021675E+03  0.36598021675E+03  0.00000000000E+00 0. -1.
          6    2    1    2  501    0  0.65957703933E+01  0.48006881527E+02 -0.88061246739E+02  0.20281307674E+03  0.17615389879E+03 0.  0.
         24    2    3    3    0    0 -0.62173753167E+02  0.11121437232E+02 -0.34562621342E+02  0.10808200322E+03  0.80609445331E+02 0.  0.
         -6    2    1    2    0  502 -0.65957703933E+01 -0.48006881527E+02 -0.18449997099E+03  0.25658613902E+03  0.17160431982E+03 0.  0.
        -24    2    5    5    0    0 -0.50780937534E+01 -0.39326154596E+01 -0.19448662019E+03  0.21112552493E+03  0.81900484384E+02 0.  0.
          5    1    3    3  501    0  0.68769523560E+02  0.36885444295E+02 -0.53498625397E+02  0.94731073523E+02  0.47000000000E+01 0. -1.
        -13    1    4    4    0    0 -0.18018096963E+01  0.33157173808E+02  0.34976154600E+01  0.33389788963E+02  0.00000000000E+00 0.  1.
         14    1    4    4    0    0 -0.60371943470E+02 -0.22035736576E+02 -0.38060236802E+02  0.74692214255E+02  0.00000000000E+00 0. -1.
         -5    1    5    5    0  502 -0.15176766399E+01 -0.44074266067E+02  0.99866491967E+01  0.45460614095E+02  0.47000000000E+01 0.  1.
         11    1    6    6    0    0  0.33941073855E+02  0.11495003082E+02 -0.12421314173E+03  0.12927890844E+03  0.00000000000E+00 0. -1.
        -12    1    6    6    0    0 -0.39019167609E+02 -0.15427618542E+02 -0.70273478460E+02  0.81846616482E+02  0.00000000000E+00 0.  1.
</event>
<event>
12    1  0.1627564E-001  0.1861101E+03  0.7818608E-02  0.1163137E+00
         21   -1    0    0  501  502  0.00000000000E+00  0.00000000000E+00  0.52933430957E+02  0.52933430957E+02  0.00000000000E+00 0.  1.
         21   -1    0    0  502  503 -0.00000000000E+00 -0.00000000000E+00 -0.63800306769E+03  0.63800306769E+03  0.00000000000E+00 0.  1.
         -6    2    1    2    0  503  0.55643050890E+02  0.10252900167E+02 -0.29639165661E+03  0.34746608144E+03  0.17228868962E+03 0.  0.
        -24    2    3    3    0    0  0.67637089029E+02  0.62814312719E+02 -0.23703714709E+03  0.26714418629E+03  0.81602656052E+02 0.  0.
          6    2    1    2  501    0 -0.55643050890E+02 -0.10252900167E+02 -0.28867798012E+03  0.34347041720E+03  0.17730110042E+03 0.  0.
         24    2    5    5    0    0 -0.10432397635E+03  0.13344484258E+02 -0.21520081242E+03  0.25210492465E+03  0.78638006503E+02 0.  0.
          5    1    5    5  501    0  0.48680925458E+02 -0.23597384425E+02 -0.73477167698E+02  0.91365492546E+02  0.47000000000E+01 0. -1.
        -13    1    6    6    0    0 -0.50689182290E+02  0.26095460798E+02 -0.43330732183E+02  0.71609486990E+02  0.00000000000E+00 0.  1.
         14    1    6    6    0    0 -0.53634794058E+02 -0.12750976540E+02 -0.17187008024E+03  0.18049543766E+03  0.00000000000E+00 0. -1.
         -5    1    3    3    0  503 -0.11994038139E+02 -0.52561412551E+02 -0.59354509516E+02  0.80321895148E+02  0.47000000000E+01 0.  1.
         11    1    4    4    0    0  0.59832609103E+01  0.49681113149E+02 -0.15978187132E+03  0.16743434181E+03  0.00000000000E+00 0. -1.
        -12    1    4    4    0    0  0.61653828119E+02  0.13133199570E+02 -0.77255275775E+02  0.99709844488E+02  0.00000000000E+00 0.  1.
</event>
<event>
12    1  0.1627564E-001  0.2186521E+03  0.7818608E-02  0.1134968E+00
         21   -1    0    0  501  502  0.00000000000E+00  0.00000000000E+00  0.93438499968E+02  0.93438499968E+02  0.00000000000E+00 0. -1.
         21   -1    0    0  502  503 -0.00000000000E+00 -0.00000000000E+00 -0.67670152025E+03  0.67670152025E+03  0.00000000000E+00 0. -1.
         -6    2    1    2    0  503 -0.13296352454E+03  0.23639596322E+02 -0.48214013269E+03  0.52923634821E+03  0.17144642123E+03 0.  0.
        -24    2    3    3    0    0 -0.12690742519E+03  0.28000283238E+02 -0.49260574069E+03  0.51555019168E+03  0.79006796874E+02 0.  0.
          6    2    1    2  501    0  0.13296352454E+03 -0.23639596322E+02 -0.10112288760E+03  0.24090367201E+03  0.17196107530E+03 0.  0.
         24    2    5    5    0    0  0.13685376122E+03 -0.39079915331E+02 -0.12920822416E+03  0.20827832109E+03  0.80180434665E+02 0.  0.
          5    1    5    5  501    0 -0.38902366884E+01  0.15440319009E+02  0.28085336560E+02  0.32625350914E+02  0.47000000000E+01 0. -1.
        -11    1    6    6    0    0  0.24608662132E+02 -0.44170765475E+02 -0.47235129499E+02  0.69193932056E+02  0.00000000000E+00 0.  1.
         12    1    6    6    0    0  0.11224509909E+03  0.50908501440E+01 -0.81973094659E+02  0.13908438904E+03  0.00000000000E+00 0. -1.
         -5    1    3    3    0  503 -0.60560993465E+01 -0.43606869157E+01  0.10465608006E+02  0.13686156531E+02  0.47000000000E+01 0.  1.
         11    1    4    4    0    0 -0.10010860531E+03  0.31973210249E+02 -0.46554352957E+03  0.47725757926E+03  0.00000000000E+00 0. -1.
        -12    1    4    4    0    0 -0.26798819875E+02 -0.39729270106E+01 -0.27062211119E+02  0.38292612426E+02  0.00000000000E+00 0.  1.
</event>
<event>
12    1  0.1627564E-001  0.2012616E+03  0.7818608E-02  0.1148793E+00
         21   -1    0    0  501  502  0.00000000000E+00  0.00000000000E+00  0.21822450948E+03  0.21822450948E+03  0.00000000000E+00 0. -1.
         21   -1    0    0  502  503 -0.00000000000E+00 -0.00000000000E+00 -0.31734509793E+03  0.31734509793E+03  0.00000000000E+00 0. -1.
         -6    2    1    2    0  503  0.61304316097E+02 -0.83713718749E+02  0.12325760986E+03  0.23600566492E+03  0.17245297796E+03 0.  0.
        -24    2    3    3    0    0 -0.79201756959E+01  0.17137669494E+01  0.90391831412E+02  0.12114864524E+03  0.80253628438E+02 0.  0.
          6    2    1    2  501    0 -0.61304316097E+02  0.83713718749E+02 -0.22237819831E+03  0.29956394249E+03  0.17181468702E+03 0.  0.
         24    2    5    5    0    0  0.52526753715E+00  0.10187011543E+03 -0.13051650915E+03  0.18725538499E+03  0.87476989676E+02 0.  0.
          5    1    5    5  501    0 -0.61829583634E+02 -0.18156396679E+02 -0.91861689161E+02  0.11230855750E+03  0.47000000000E+01 0. -1.
        -13    1    6    6    0    0 -0.35999201711E+01  0.11086545508E+03 -0.82527518637E+02  0.13825664501E+03  0.00000000000E+00 0.  1.
         14    1    6    6    0    0  0.41251877082E+01 -0.89953396564E+01 -0.47988990513E+02  0.48998739980E+02  0.00000000000E+00 0. -1.
         -5    1    3    3    0  503  0.69224491793E+02 -0.85427485699E+02  0.32865778447E+02  0.11485701968E+03  0.47000000000E+01 0.  1.
         13    1    4    4    0    0 -0.13623812698E+02 -0.37341058425E+02  0.56759532504E+02  0.69293632080E+02  0.00000000000E+00 0. -1.
        -14    1    4    4    0    0  0.57036370016E+01  0.39054825375E+02  0.33632298908E+02  0.51855013161E+02  0.00000000000E+00 0.  1.
</event>
<event>
12    1  0.1627564E-001  0.1799169E+03  0.7818608E-02  0.1168205E+00
         21   -1    0    0  501  502  0.00000000000E+00  0.00000000000E+00  0.29832039873E+02  0.29832039873E+02  0.00000000000E+00 0. -1.
         21   -1    0    0  502  503 -0.00000000000E+00 -0.00000000000E+00 -0.16217111111E+04  0.16217111111E+04  0.00000000000E+00 0. -1.
         -6    2    1    2    0  503 -0.53618995587E+02  0.12534769716E+02 -0.12725158130E+04  0.12849875653E+04  0.16989535511E+03 0.  0.
        -24    2    3    3    0    0  0.69548938796E+01  0.17440021349E+02 -0.28665373728E+03  0.29724297292E+03  0.76357677803E+02 0.  0.
          6    2    1    2  501    0  0.53618995587E+02 -0.12534769716E+02 -0.31936325821E+03  0.36655558559E+03  0.17128336022E+03 0.  0.
         24    2    5    5    0    0  0.56483557770E+01 -0.72105154899E+02 -0.19369642427E+03  0.21936843863E+03  0.73301772200E+02 0.  0.
          5    1    5    5  501    0  0.47970639810E+02  0.59570385184E+02 -0.12566683394E+03  0.14718714695E+03  0.47000000000E+01 0. -1.
        -13    1    6    6    0    0 -0.83266120549E+01 -0.20193907088E+02 -0.14561510741E+03  0.14724430671E+03  0.00000000000E+00 0.  1.
         14    1    6    6    0    0  0.13974967832E+02 -0.51911247811E+02 -0.48081316862E+02  0.72124131928E+02  0.00000000000E+00 0. -1.
         -5    1    3    3    0  503 -0.60573889467E+02 -0.49052516333E+01 -0.98586207569E+03  0.98774459242E+03  0.47000000000E+01 0.  1.
         13    1    4    4    0    0 -0.23718982839E+02  0.23493513698E+02 -0.23107048179E+03  0.23346970444E+03  0.00000000000E+00 0. -1.
        -14    1    4    4    0    0  0.30673876719E+02 -0.60534923495E+01 -0.55583255485E+02  0.63773268482E+02  0.00000000000E+00 0.  1.
</event>
<event>
12    1  0.1627564E-001  0.1758970E+03  0.7818608E-02  0.1172711E+00
         21   -1    0    0  503  502  0.00000000000E+00  0.00000000000E+00  0.18841041819E+04  0.18841041819E+04  0.00000000000E+00 0. -1.
         21   -1    0    0  501  503 -0.00000000000E+00 -0.00000000000E+00 -0.16151461287E+02  0.16151461287E+02  0.00000000000E+00 0. -1.
          6    2    1    2  501    0 -0.16187237827E+02 -0.21241262313E+01  0.99777597513E+03  0.10131617154E+04  0.17513773552E+03 0.  0.
         24    2    3    3    0    0 -0.36588589127E+02  0.10884808719E+02  0.25486380120E+03  0.26984076472E+03  0.80007982291E+02 0.  0.
         -6    2    1    2    0  502  0.16187237827E+02  0.21241262313E+01  0.87017674545E+03  0.88709392776E+03  0.17164361268E+03 0.  0.
        -24    2    5    5    0    0  0.52097850172E+02 -0.43854591250E+02  0.68594519234E+03  0.69378854837E+03  0.78640522584E+02 0.  0.
          5    1    3    3  501    0  0.20401351301E+02 -0.13008934950E+02  0.74291217393E+03  0.74332095066E+03  0.47000000000E+01 0. -1.
        -11    1    4    4    0    0 -0.11333357368E+02  0.25639988552E+02  0.22926120917E+03  0.23096873388E+03  0.00000000000E+00 0.  1.
         12    1    4    4    0    0 -0.25255231759E+02 -0.14755179833E+02  0.25602592032E+02  0.38872030843E+02  0.00000000000E+00 0. -1.
         -5    1    5    5    0  502 -0.35910612345E+02  0.45978717481E+02  0.18423155311E+03  0.19330537939E+03  0.47000000000E+01 0.  1.
         11    1    6    6    0    0 -0.17976831968E+02 -0.25704110080E+02  0.23119939610E+03  0.23331744153E+03  0.00000000000E+00 0. -1.
        -12    1    6    6    0    0  0.70074682140E+02 -0.18150481169E+02  0.45474579623E+03  0.46047110684E+03  0.00000000000E+00 0.  1.
</event>
<event>
12    1  0.1627564E-001  0.2010840E+03  0.7818608E-02  0.1149182E+00
         21   -1    0    0  501  502  0.00000000000E+00  0.00000000000E+00  0.25151319875E+03  0.25151319875E+03  0.00000000000E+00 0.  1.
         21   -1    0    0  502  503 -0.00000000000E+00 -0.00000000000E+00 -0.18191851036E+03  0.18191851036E+03  0.00000000000E+00 0.  1.
         -6    2    1    2    0  503  0.36519092867E+02  0.93631734855E+02 -0.41285472749E+02  0.20527852962E+03  0.17416727175E+03 0.  0.
        -24    2    3    3    0    0  0.83755362738E+02  0.38794532466E+02 -0.48630457010E+02  0.13237844217E+03  0.81481004322E+02 0.  0.
          6    2    1    2  501    0 -0.36519092867E+02 -0.93631734855E+02  0.11088016114E+03  0.22815317949E+03  0.17221764503E+03 0.  0.
         24    2    5    5    0    0 -0.14930001021E+02 -0.74210324943E+02 -0.47483208376E+01  0.10884133643E+03  0.78062876626E+02 0.  0.
          5    1    5    5  501    0 -0.21589091846E+02 -0.19421409912E+02  0.11562848197E+03  0.11931184306E+03  0.47000000000E+01 0. -1.
        -11    1    6    6    0    0 -0.34082136961E+01 -0.37444105674E+02  0.36496984720E+02  0.52399492974E+02  0.00000000000E+00 0.  1.
         12    1    6    6    0    0 -0.11521787325E+02 -0.36766219269E+02 -0.41245305557E+02  0.56441843459E+02  0.00000000000E+00 0. -1.
         -5    1    3    3    0  503 -0.47236269871E+02  0.54837202389E+02  0.73449842614E+01  0.72900087455E+02  0.47000000000E+01 0.  1.
         11    1    4    4    0    0  0.89245101383E+02  0.55532818978E+01 -0.36183495947E+02  0.96461248383E+02  0.00000000000E+00 0. -1.
        -12    1    4    4    0    0 -0.54897386446E+01  0.33241250569E+02 -0.12446961063E+02  0.35917193786E+02  0.00000000000E+00 0.  1.
</event>
<event>
12    1  0.1627564E-001  0.2562204E+03  0.7818608E-02  0.1109547E+00
         21   -1    0    0  501  502  0.00000000000E+00  0.00000000000E+00  0.12317687713E+03  0.12317687713E+03  0.00000000000E+00 0. -1.
         21   -1    0    0  502  503 -0.00000000000E+00 -0.00000000000E+00 -0.53769718312E+03  0.53769718312E+03  0.00000000000E+00 0.  1.
         -6    2    1    2    0  503 -0.96581121386E+02  0.16266291217E+03 -0.24316159577E+03  0.35323712006E+03  0.17280557089E+03 0.  0.
        -24    2    3    3    0    0 -0.11121076132E+03  0.17971101196E+03 -0.19270829877E+03  0.29780888494E+03  0.83004591941E+02 0.  0.
          6    2    1    2  501    0  0.96581121386E+02 -0.16266291217E+03 -0.17135871022E+03  0.30763694018E+03  0.17172519731E+03 0.  0.
         24    2    5    5    0    0  0.12017381612E+03 -0.16969723085E+03 -0.12501571609E+03  0.25495050939E+03  0.78306683813E+02 0.  0.
          5    1    5    5  501    0 -0.23592694737E+02  0.70343186780E+01 -0.46342994130E+02  0.52686430788E+02  0.47000000000E+01 0. -1.
        -13    1    6    6    0    0  0.58269135702E+02 -0.59007231019E+02 -0.92080612219E+02  0.12391926660E+03  0.00000000000E+00 0.  1.
         14    1    6    6    0    0  0.61904680420E+02 -0.11068999983E+03 -0.32935103871E+02  0.13103124279E+03  0.00000000000E+00 0. -1.
         -5    1    3    3    0  503  0.14629639931E+02 -0.17048099787E+02 -0.50453297000E+02  0.55428235124E+02  0.47000000000E+01 0.  1.
         13    1    4    4    0    0 -0.38620675140E+02  0.12763929103E+03 -0.14318047691E+03  0.19566296055E+03  0.00000000000E+00 0. -1.
        -14    1    4    4    0    0 -0.72590086176E+02  0.52071720926E+02 -0.49527821860E+02  0.10214592439E+03  0.00000000000E+00 0.  1.
</event>
<event>
12    1  0.1627564E-001  0.2069360E+03  0.7818608E-02  0.1144330E+00
         21   -1    0    0  503  502  0.00000000000E+00  0.00000000000E+00  0.12074424437E+03  0.12074424437E+03  0.00000000000E+00 0.  1.
         21   -1    0    0  501  503 -0.00000000000E+00 -0.00000000000E+00 -0.65063855434E+03  0.65063855434E+03  0.00000000000E+00 0.  1.
          6    2    1    2  501    0  0.71864513719E+02  0.87763596878E+02 -0.52570819947E+03  0.56440445207E+03  0.17122008427E+03 0.  0.
         24    2    3    3    0    0 -0.89669964368E-01  0.68022006658E+01 -0.33694203959E+03  0.34671911645E+03  0.81473490759E+02 0.  0.
         -6    2    1    2    0  502 -0.71864513719E+02 -0.87763596878E+02 -0.41861104941E+01  0.20697834663E+03  0.17307673207E+03 0.  0.
        -24    2    5    5    0    0  0.11507557727E+02 -0.89041146470E+02  0.15543923697E+02  0.12116518517E+03  0.79866381441E+02 0.  0.
          5    1    3    3  501    0  0.71954183683E+02  0.80961396213E+02 -0.18876615988E+03  0.21768533562E+03  0.47000000000E+01 0. -1.
        -13    1    4    4    0    0  0.30958021876E+02  0.28265662717E+02 -0.21577071970E+03  0.21980525537E+03  0.00000000000E+00 0.  1.
         14    1    4    4    0    0 -0.31047691840E+02 -0.21463462051E+02 -0.12117131989E+03  0.12691386109E+03  0.00000000000E+00 0. -1.
         -5    1    5    5    0  502 -0.83372071446E+02  0.12775495915E+01 -0.19730034191E+02  0.85813161458E+02  0.47000000000E+01 0.  1.
         11    1    6    6    0    0  0.38465355029E+02 -0.19317590022E+02  0.17302193908E+02  0.46390933767E+02  0.00000000000E+00 0. -1.
        -12    1    6    6    0    0 -0.26957797302E+02 -0.69723556448E+02 -0.17582702114E+01  0.74774251405E+02  0.00000000000E+00 0.  1.
</event>
<event>
12    1  0.1627564E-001  0.2255944E+03  0.7818608E-02  0.1131831E+00
         21   -1    0    0  503  502  0.00000000000E+00  0.00000000000E+00  0.67488181491E+02  0.67488181491E+02  0.00000000000E+00 0.  1.
         21   -1    0    0  501  503 -0.00000000000E+00 -0.00000000000E+00 -0.10929828626E+04  0.10929828626E+04  0.00000000000E+00 0. -1.
          6    2    1    2  501    0  0.57816343722E+02  0.11462192738E+03 -0.84427630221E+03  0.87110462430E+03  0.17187168515E+03 0.  0.
         24    2    3    3    0    0  0.65766446890E+02  0.14778835828E+02 -0.30287367724E+03  0.32049519885E+03  0.80256268245E+02 0.  0.
         -6    2    1    2    0  502 -0.57816343722E+02 -0.11462192738E+03 -0.18121837887E+03  0.28936641976E+03  0.18550446952E+03 0.  0.
        -24    2    5    5    0    0 -0.10632931303E+03 -0.11470716498E+03 -0.12823560356E+03  0.21737489293E+03  0.79648085642E+02 0.  0.
          5    1    3    3  501    0 -0.79501031678E+01  0.99843091550E+02 -0.54140262497E+03  0.55060942545E+03  0.47000000000E+01 0. -1.
        -11    1    4    4    0    0  0.17925098250E+02 -0.31737721664E+02 -0.81414048314E+02  0.89201117631E+02  0.00000000000E+00 0.  1.
         12    1    4    4    0    0  0.47841348640E+02  0.46516557492E+02 -0.22145962893E+03  0.23129408122E+03  0.00000000000E+00 0. -1.
         -5    1    5    5    0  502  0.48512969312E+02  0.85237604445E-01 -0.52982775310E+02  0.71991526838E+02  0.47000000000E+01 0.  1.
         13    1    6    6    0    0  0.12809508653E+02 -0.14008979313E+02 -0.88785408587E+01  0.20956228217E+02  0.00000000000E+00 0. -1.
        -14    1    6    6    0    0 -0.11913882169E+03 -0.10069818567E+03 -0.11935706270E+03  0.19641866471E+03  0.00000000000E+00 0.  1.
</event>
<event>
12    1  0.1627564E-001  0.1780637E+03  0.7818608E-02  0.1169839E+00
         21   -1    0    0  501  502  0.00000000000E+00  0.00000000000E+00  0.10706108345E+03  0.10706108345E+03  0.00000000000E+00 0.  1.
         21   -1    0    0  502  503 -0.00000000000E+00 -0.00000000000E+00 -0.58699654456E+03  0.58699654456E+03  0.00000000000E+00 0.  1.
         -6    2    1    2    0  503  0.11180956170E+02  0.41115969081E+02 -0.48445744094E+03  0.51593647208E+03  0.17226692788E+03 0.  0.
        -24    2    3    3    0    0  0.41755595883E+02  0.10270746798E+02 -0.13197268768E+03  0.16075507109E+03  0.81094910803E+02 0.  0.
          6    2    1    2  501    0 -0.11180956170E+02 -0.41115969081E+02  0.45219798345E+01  0.17812115593E+03  0.17289060470E+03 0.  0.
         24    2    5    5    0    0 -0.26883580741E+02  0.40546683209E+02 -0.40611393896E+01  0.94388718173E+02  0.80783518321E+02 0.  0.
          5    1    5    5  501    0  0.15702624571E+02 -0.81662652290E+02  0.85831192241E+01  0.83732437759E+02  0.47000000000E+01 0. -1.
        -11    1    6    6    0    0 -0.27030091928E+02  0.12181172284E+02  0.35155763283E+02  0.45988417236E+02  0.00000000000E+00 0.  1.
         12    1    6    6    0    0  0.14651118713E+00  0.28365510925E+02 -0.39216902672E+02  0.48400300937E+02  0.00000000000E+00 0. -1.
         -5    1    3    3    0  503 -0.30574639713E+02  0.30845222283E+02 -0.35248475326E+03  0.35518140099E+03  0.47000000000E+01 0.  1.
         13    1    4    4    0    0  0.18512768628E+02 -0.32021050962E+02 -0.88042950384E+02  0.95496761303E+02  0.00000000000E+00 0. -1.
        -14    1    4    4    0    0  0.23242827255E+02  0.42291797760E+02 -0.43929737300E+02  0.65258309784E+02  0.00000000000E+00 0.  1.
</event>
<event>
12    1  0.1627564E-001  0.2244514E+03  0.7818608E-02  0.1130669E+00
         21   -1    0    0  503  502  0.00000000000E+00  0.00000000000E+00  0.83863389667E+02  0.83863389667E+02  0.00000000000E+00 0. -1.
         21   -1    0    0  501  503 -0.00000000000E+00 -0.00000000000E+00 -0.68785216784E+03  0.68785216784E+03  0.00000000000E+00 0.  1.
          6    2    1    2  501    0  0.81985129211E+02 -0.11881382425E+03 -0.16374287008E+03  0.27755477781E+03  0.17142532176E+03 0.  0.
         24    2    3    3    0    0  0.45899654740E+02 -0.12273451035E+03 -0.49447725502E+02  0.15754226463E+03  0.72138403434E+02 0.  0.
         -6    2    1    2    0  502 -0.81985129211E+02  0.11881382425E+03 -0.44024590810E+03  0.49416077970E+03  0.17187242464E+03 0.  0.
        -24    2    5    5    0    0 -0.71879485591E+02  0.91408750737E+02 -0.44256343092E+03  0.46448548696E+03  0.79763130897E+02 0.  0.
          5    1    3    3  501    0  0.36085474471E+02  0.39206860988E+01 -0.11429514458E+03  0.12001251319E+03  0.47000000000E+01 0. -1.
        -13    1    4    4    0    0  0.30231755657E+02 -0.19791183597E+02 -0.38562309542E+02  0.52846018919E+02  0.00000000000E+00 0.  1.
         14    1    4    4    0    0  0.15667899083E+02 -0.10294332675E+03 -0.10885415959E+02  0.10469624571E+03  0.00000000000E+00 0. -1.
         -5    1    5    5    0  502 -0.10105643621E+02  0.27405073515E+02  0.23175228170E+01  0.29675292742E+02  0.47000000000E+01 0.  1.
         13    1    6    6    0    0 -0.22043083326E+02  0.23935539965E+02 -0.32718161501E+02  0.46144183685E+02  0.00000000000E+00 0. -1.
        -14    1    6    6    0    0 -0.49836402264E+02  0.67473210772E+02 -0.40984526941E+03  0.41834130327E+03  0.00000000000E+00 0.  1.
</event>
<event>
12    1  0.1627564E-001  0.1936863E+03  0.7818608E-02  0.1155649E+00
         21   -1    0    0  503  502  0.00000000000E+00  0.00000000000E+00  0.24309342133E+02  0.24309342133E+02  0.00000000000E+00 0.  1.
         21   -1    0    0  501  503 -0.00000000000E+00 -0.00000000000E+00 -0.15264478809E+04  0.15264478809E+04  0.00000000000E+00 0.  1.
          6    2    1    2  501    0 -0.24780257489E+02  0.80372112048E+02 -0.74690249893E+03  0.77160724294E+03  0.17447251044E+03 0.  0.
         24    2    3    3    0    0 -0.38840782495E+02  0.52220689011E+02 -0.72662842194E+03  0.73388020780E+03  0.79722575824E+02 0.  0.
         -6    2    1    2    0  502  0.24780257489E+02 -0.80372112048E+02 -0.75523603988E+03  0.77914998013E+03  0.17210310296E+03 0.  0.
        -24    2    5    5    0    0  0.34920315082E+02 -0.79867691539E+01 -0.20539592202E+03  0.22445303239E+03  0.83117158737E+02 0.  0.
          5    1    3    3  501    0  0.14060525006E+02  0.28151423036E+02 -0.20274076991E+02  0.37727035138E+02  0.47000000000E+01 0. -1.
        -13    1    4    4    0    0 -0.19937322810E+01  0.59658732837E+02 -0.55399664743E+03  0.55720321673E+03  0.00000000000E+00 0.  1.
         14    1    4    4    0    0 -0.36847050214E+02 -0.74380438261E+01 -0.17263177450E+03  0.17667699107E+03  0.00000000000E+00 0. -1.
         -5    1    5    5    0  502 -0.10140057593E+02 -0.72385342894E+02 -0.54984011785E+03  0.55469694774E+03  0.47000000000E+01 0.  1.
         13    1    6    6    0    0  0.37043035129E+02 -0.32154821513E+02 -0.62191114104E+02  0.79207661697E+02  0.00000000000E+00 0. -1.
        -14    1    6    6    0    0 -0.21227200469E+01  0.24168052359E+02 -0.14320480792E+03  0.14524537069E+03  0.00000000000E+00 0.  1.
</event>
<event>
12    1  0.1627564E-001  0.1867775E+03  0.7818608E-02  0.1161807E+00
         21   -1    0    0  501  502  0.00000000000E+00  0.00000000000E+00  0.75875154253E+03  0.75875154253E+03  0.00000000000E+00 0.  1.
         21   -1    0    0  502  503 -0.00000000000E+00 -0.00000000000E+00 -0.99735720472E+02  0.99735720472E+02  0.00000000000E+00 0.  1.
         -6    2    1    2    0  503 -0.73077703163E+02  0.24800838541E+02  0.12403832130E+02  0.18543978256E+03  0.16816249764E+03 0.  0.
        -24    2    3    3    0    0 -0.52125533850E+02 -0.57572777413E+02  0.21269613533E+02  0.99852995710E+02  0.59046831534E+02 0.  0.
          6    2    1    2  501    0  0.73077703163E+02 -0.24800838541E+02  0.64661198993E+03  0.67304748044E+03  0.17008942681E+03 0.  0.
         24    2    5    5    0    0  0.70058101531E+02  0.68226918656E+00  0.63824647021E+03  0.64565078915E+03  0.67806944398E+02 0.  0.
          5    1    5    5  501    0  0.30196016315E+01 -0.25483107728E+02  0.83655197169E+01  0.27396691289E+02  0.47000000000E+01 0. -1.
        -13    1    6    6    0    0  0.15927016327E+02 -0.22322333336E+02  0.37083214024E+03  0.37184463510E+03  0.00000000000E+00 0.  1.
         14    1    6    6    0    0  0.54131085205E+02  0.23004602523E+02  0.26741432997E+03  0.27380615405E+03  0.00000000000E+00 0. -1.
         -5    1    3    3    0  503 -0.20952169313E+02  0.82373615954E+02 -0.88657814029E+01  0.85586786855E+02  0.47000000000E+01 0.  1.
         11    1    4    4    0    0 -0.11891322427E+02 -0.50275261090E+02  0.27443065294E+02  0.58498950927E+02  0.00000000000E+00 0. -1.
        -12    1    4    4    0    0 -0.40234211423E+02 -0.72975163227E+01 -0.61734517615E+01  0.41354044783E+02  0.00000000000E+00 0.  1.
</event>
<event>
12    1  0.1627564E-001  0.2698207E+03  0.7818608E-02  0.1101589E+00
         21   -1    0    0  503  502  0.00000000000E+00  0.00000000000E+00  0.64753385453E+03  0.64753385453E+03  0.00000000000E+00 0.  1.
         21   -1    0    0  501  503 -0.00000000000E+00 -0.00000000000E+00 -0.20589418321E+03  0.20589418321E+03  0.00000000000E+00 0. -1.
          6    2    1    2  501    0  0.19061536363E+03 -0.80818108584E+02 -0.67276690272E+02  0.27808152841E+03  0.17302427535E+03 0.  0.
         24    2    3    3    0    0  0.22624398313E+02 -0.58514420362E+02 -0.15875138002E+02  0.10093010021E+03  0.77453626979E+02 0.  0.
         -6    2    1    2    0  502 -0.19061536363E+03  0.80818108584E+02  0.50891636159E+03  0.57534650934E+03  0.17076873011E+03 0.  0.
        -24    2    5    5    0    0 -0.66442084218E+02  0.94846572372E+02  0.29912356306E+03  0.33111115270E+03  0.82153920278E+02 0.  0.
          5    1    3    3  501    0  0.16799096532E+03 -0.22303688222E+02 -0.51401552269E+02  0.17715142820E+03  0.47000000000E+01 0. -1.
        -11    1    4    4    0    0  0.41793388392E+02 -0.41855538194E+01 -0.49673247220E+01  0.42295159167E+02  0.00000000000E+00 0.  1.
         12    1    4    4    0    0 -0.19168990079E+02 -0.54328866542E+02 -0.10907813280E+02  0.58634941042E+02  0.00000000000E+00 0. -1.
         -5    1    5    5    0  502 -0.12417327941E+03 -0.14028463789E+02  0.20979279853E+03  0.24423535664E+03  0.47000000000E+01 0.  1.
         13    1    6    6    0    0 -0.85661195132E+02  0.83627640782E+02  0.25407027659E+03  0.28086140373E+03  0.00000000000E+00 0. -1.
        -14    1    6    6    0    0  0.19219110914E+02  0.11218931590E+02  0.45053286468E+02  0.50249748974E+02  0.00000000000E+00 0.  1.
</event>
<event>
12    1  0.1627564E-001  0.1932478E+03  0.7818608E-02  0.1155826E+00
         21   -1    0    0  503  502  0.00000000000E+00  0.00000000000E+00  0.94246072862E+03  0.94246072862E+03  0.00000000000E+00 0.  1.
         21   -1    0    0  501  503 -0.00000000000E+00 -0.00000000000E+00 -0.82481287498E+02  0.82481287498E+02  0.00000000000E+00 0. -1.
          6    2    1    2  501    0  0.68094929109E+02 -0.56441873237E+02  0.60175920713E+02  0.20240018426E+03  0.17181993112E+03 0.  0.
         24    2    3    3    0    0  0.76254959967E+01 -0.27446100247E+02 -0.29360737367E+02  0.90434964960E+02  0.80653539170E+02 0.  0.
         -6    2    1    2    0  502 -0.68094929109E+02  0.56441873237E+02  0.79980352040E+03  0.82254183186E+03  0.17048985154E+03 0.  0.
        -24    2    5    5    0    0 -0.20325777510E+02  0.26019959701E+01  0.66130199659E+03  0.66638362257E+03  0.79541775942E+02 0.  0.
          5    1    3    3  501    0  0.60469433112E+02 -0.28995772990E+02  0.89536658080E+02  0.11196521930E+03  0.47000000000E+01 0. -1.
        -11    1    4    4    0    0 -0.24753456901E+01  0.28011325629E+02 -0.16545130214E+02  0.32626722691E+02  0.00000000000E+00 0.  1.
         12    1    4    4    0    0  0.10100841687E+02 -0.55457425876E+02 -0.12815607153E+02  0.57808242269E+02  0.00000000000E+00 0. -1.
         -5    1    5    5    0  502 -0.47769151599E+02  0.53839877267E+02  0.13850152381E+03  0.15615820928E+03  0.47000000000E+01 0.  1.
         13    1    6    6    0    0 -0.12681535249E+02  0.35763668721E+02  0.18410903797E+03  0.18797872007E+03  0.00000000000E+00 0. -1.
        -14    1    6    6    0    0 -0.76442422603E+01 -0.33161672751E+02  0.47719295863E+03  0.47840490251E+03  0.00000000000E+00 0.  1.
</event>
<event>
12    1  0.1627564E-001  0.3190745E+03  0.7818608E-02  0.1076089E+00
         21   -1    0    0  503  502  0.00000000000E+00  0.00000000000E+00  0.16684754270E+03  0.16684754270E+03  0.00000000000E+00 0. -1.
         21   -1    0    0  501  503 -0.00000000000E+00 -0.00000000000E+00 -0.71239434999E+03  0.71239434999E+03  0.00000000000E+00 0.  1.
          6    2    1    2  501    0 -0.25237373751E+03  0.92053344906E+02 -0.43950894312E+03  0.54311753319E+03  0.17216916703E+03 0.  0.
         24    2    3    3    0    0 -0.23962891229E+02  0.19399245519E+02 -0.12780717200E+03  0.14988704482E+03  0.71978483651E+02 0.  0.
         -6    2    1    2    0  502  0.25237373751E+03 -0.92053344906E+02 -0.10603786417E+03  0.33612435951E+03  0.17195707232E+03 0.  0.
        -24    2    5    5    0    0  0.25515035647E+03 -0.46530783357E+02 -0.10351565464E+03  0.29020633729E+03  0.78977270425E+02 0.  0.
          5    1    3    3  501    0 -0.22841084628E+03  0.72654099387E+02 -0.31170177113E+03  0.39323048837E+03  0.47000000000E+01 0. -1.
        -11    1    4    4    0    0 -0.45512860688E+02  0.12330339715E+02 -0.11392028315E+03  0.12329350623E+03  0.00000000000E+00 0.  1.
         12    1    4    4    0    0  0.21549969459E+02  0.70689058034E+01 -0.13886888844E+02  0.26593538589E+02  0.00000000000E+00 0. -1.
         -5    1    5    5    0  502 -0.27766189611E+01 -0.45522561549E+02 -0.25222095315E+01  0.45918022211E+02  0.47000000000E+01 0.  1.
         11    1    6    6    0    0 -0.29703748785E+01 -0.73465555954E+01  0.26676866330E+01  0.83613131748E+01  0.00000000000E+00 0. -1.
        -12    1    6    6    0    0  0.25812073135E+03 -0.39184227762E+02 -0.10618334127E+03  0.28184502412E+03  0.00000000000E+00 0.  1.
</event>
<event>
12    1  0.1627564E-001  0.1987138E+03  0.7818608E-02  0.1151072E+00
         21   -1    0    0  501  502  0.00000000000E+00  0.00000000000E+00  0.65489002141E+03  0.65489002141E+03  0.00000000000E+00 0.  1.
         21   -1    0    0  502  503 -0.00000000000E+00 -0.00000000000E+00 -0.60771194381E+02  0.60771194381E+02  0.00000000000E+00 0.  1.
         -6    2    1    2    0  503  0.95578988062E+02  0.15796171790E+02  0.33949480676E+03  0.39337499708E+03  0.17350015132E+03 0.  0.
        -24    2    3    3    0    0 -0.79108254023E+01  0.43122165403E+02  0.16834447004E+03  0.19145575783E+03  0.79958391097E+02 0.  0.
          6    2    1    2  501    0 -0.95578988062E+02 -0.15796171790E+02  0.25462402027E+03  0.32228621872E+03  0.17219219806E+03 0.  0.
         24    2    5    5    0    0 -0.12376824841E+03  0.49462165882E+01  0.14171524152E+03  0.20398421791E+03  0.78634007318E+02 0.  0.
          5    1    5    5  501    0  0.28189260345E+02 -0.20742388378E+02  0.11290877876E+03  0.11830200080E+03  0.47000000000E+01 0. -1.
        -13    1    6    6    0    0 -0.37157501931E+02 -0.95531131457E+01  0.99315022426E+02  0.10646790878E+03  0.00000000000E+00 0.  1.
         14    1    6    6    0    0 -0.86610746475E+02  0.14499329734E+02  0.42400219091E+02  0.97516309132E+02  0.00000000000E+00 0. -1.
         -5    1    3    3    0  503  0.10348981346E+03 -0.27325993614E+02  0.17115033672E+03  0.20191923925E+03  0.47000000000E+01 0.  1.
         13    1    4    4    0    0 -0.16887878587E+02 -0.20654598562E+02  0.45232212763E+02  0.52514435695E+02  0.00000000000E+00 0. -1.
        -14    1    4    4    0    0  0.89770531847E+01  0.63776763965E+02  0.12311225727E+03  0.13894132213E+03  0.00000000000E+00 0.  1.
</event>
<event>
12    1  0.1627564E-001  0.1752945E+03  0.7818608E-02  0.1172653E+00
         21   -1    0    0  503  502  0.00000000000E+00  0.00000000000E+00  0.38746566882E+02  0.38746566882E+02  0.00000000000E+00 0.  1.
         21   -1    0    0  501  503 -0.00000000000E+00 -0.00000000000E+00 -0.79628813706E+03  0.79628813706E+03  0.00000000000E+00 0.  1.
          6    2    1    2  501    0  0.91293715320E+01  0.35963410016E+02 -0.41734768693E+03  0.45233371570E+03  0.17044056528E+03 0.  0.
         24    2    3    3    0    0  0.14426625985E+02  0.80529284078E+02 -0.36586001766E+03  0.38387023549E+03  0.82520979410E+02 0.  0.
         -6    2    1    2    0  502 -0.91293715320E+01 -0.35963410016E+02 -0.34019388325E+03  0.38270098824E+03  0.17132266608E+03 0.  0.
        -24    2    5    5    0    0  0.52179047745E+02 -0.96958808014E+01 -0.26582227620E+03  0.28269133221E+03  0.80226203016E+02 0.  0.
          5    1    3    3  501    0 -0.52972544534E+01 -0.44565874063E+02 -0.51487669263E+02  0.68463480206E+02  0.47000000000E+01 0. -1.
        -11    1    4    4    0    0 -0.15305381039E+01  0.86605932206E+02 -0.35002274383E+03  0.36058126857E+03  0.00000000000E+00 0.  1.
         12    1    4    4    0    0  0.15957164089E+02 -0.60766481279E+01 -0.15837273830E+02  0.23288966929E+02  0.00000000000E+00 0. -1.
         -5    1    5    5    0  502 -0.61308419277E+02 -0.26267529214E+02 -0.74371607046E+02  0.10000965603E+03  0.47000000000E+01 0.  1.
         11    1    6    6    0    0 -0.33288429403E+01 -0.63750825017E+01  0.32794899527E+01  0.79042979812E+01  0.00000000000E+00 0. -1.
        -12    1    6    6    0    0  0.55507890685E+02 -0.33207982997E+01 -0.26910176616E+03  0.27478703422E+03  0.00000000000E+00 0.  1.
</event>
<event>
12    1  0.1627564E-001  0.1770830E+03  0.7818608E-02  0.1170832E+00
         21   -1    0    0  503  502  0.00000000000E+00  0.00000000000E+00  0.22429517515E+03  0.22429517515E+03  0.00000000000E+00 0.  1.
         21   -1    0    0  501  503 -0.00000000000E+00 -0.00000000000E+00 -0.23847242341E+03  0.23847242341E+03  0.00000000000E+00 0.  1.
          6    2    1    2  501    0  0.25296382206E+02  0.65753619575E+01 -0.15633229887E+03  0.23568510473E+03  0.17442631276E+03 0.  0.
         24    2    3    3    0    0  0.40865101602E+02  0.67678652915E+02 -0.10174279184E+03  0.15215007335E+03  0.80917813494E+02 0.  0.
         -6    2    1    2    0  502 -0.25296382206E+02 -0.65753619575E+01  0.14215505061E+03  0.22708249382E+03  0.17514353613E+03 0.  0.
        -24    2    5    5    0    0 -0.11429666190E+02  0.42292669265E+02  0.17168318939E+02  0.92085666517E+02  0.79156248395E+02 0.  0.
          5    1    3    3  501    0 -0.15568719395E+02 -0.61103290957E+02 -0.54589507037E+02  0.83535031381E+02  0.47000000000E+01 0. -1.
        -13    1    4    4    0    0  0.16933787184E+02  0.67641144798E+02 -0.10693649744E+03  0.12766163129E+03  0.00000000000E+00 0.  1.
         14    1    4    4    0    0  0.23931314418E+02  0.37508116939E-01  0.51937056078E+01  0.24488442061E+02  0.00000000000E+00 0. -1.
         -5    1    5    5    0  502 -0.13866716016E+02 -0.48868031222E+02  0.12498673167E+03  0.13499682731E+03  0.47000000000E+01 0.  1.
         11    1    6    6    0    0  0.48592112820E+01  0.35399158240E+02  0.46008476597E+02  0.58253688785E+02  0.00000000000E+00 0. -1.
        -12    1    6    6    0    0 -0.16288877472E+02  0.68935110253E+01 -0.28840157657E+02  0.33831977732E+02  0.00000000000E+00 0.  1.
</event>
<event>
12    1  0.1627564E-001  0.2127160E+03  0.7818608E-02  0.1139591E+00
         21   -1    0    0  503  502  0.00000000000E+00  0.00000000000E+00  0.21093090185E+03  0.21093090185E+03  0.00000000000E+00 0. -1.
         21   -1    0    0  501  503 -0.00000000000E+00 -0.00000000000E+00 -0.22395927300E+03  0.22395927300E+03  0.00000000000E+00 0.  1.
          6    2    1    2  501    0 -0.12568513205E+03 -0.12691616521E+02 -0.53034633012E+02  0.21844480197E+03  0.17014002957E+03 0.  0.
         24    2    3    3    0    0 -0.27339154622E+02 -0.47757683087E+02  0.56683425249E+01  0.98571161676E+02  0.81583810514E+02 0.  0.
         -6    2    1    2    0  502  0.12568513205E+03  0.12691616521E+02  0.40006261861E+02  0.21644537288E+03  0.17114400050E+03 0.  0.
        -24    2    5    5    0    0  0.15570825000E+03 -0.85312561387E+01  0.43038901264E+02  0.17925552431E+03  0.77216284076E+02 0.  0.
          5    1    3    3  501    0 -0.98345977429E+02  0.35066066566E+02 -0.58702975537E+02  0.11987364030E+03  0.47000000000E+01 0. -1.
        -13    1    4    4    0    0 -0.47807351720E+02 -0.19306630501E+02  0.26322703271E+02  0.57889321704E+02  0.00000000000E+00 0.  1.
         14    1    4    4    0    0  0.20468197099E+02 -0.28451052586E+02 -0.20654360747E+02  0.40681839973E+02  0.00000000000E+00 0. -1.
         -5    1    5    5    0  502 -0.30023117944E+02  0.21222872660E+02 -0.30326394039E+01  0.37189848572E+02  0.47000000000E+01 0.  1.
         11    1    6    6    0    0  0.12276064406E+03  0.26639887613E+02  0.34942642469E+02  0.13038729848E+03  0.00000000000E+00 0. -1.
        -12    1    6    6    0    0  0.32947605940E+02 -0.35171143752E+02  0.80962587952E+01  0.48868225837E+02  0.00000000000E+00 0.  1.
</event>
<event>
12    1  0.1627564E-001  0.4067444E+03  0.7818608E-02  0.1041565E+00
         21   -1    0    0  501  502  0.00000000000E+00  0.00000000000E+00  0.13722675247E+04  0.13722675247E+04  0.00000000000E+00 0. -1.
         21   -1    0    0  502  503 -0.00000000000E+00 -0.00000000000E+00 -0.16118598362E+03  0.16118598362E+03  0.00000000000E+00 0.  1.
         -6    2    1    2    0  503  0.18882069957E+03 -0.31508037886E+03  0.21840796384E+03  0.46068055591E+03  0.17203381700E+03 0.  0.
        -24    2    3    3    0    0  0.21334717314E+03 -0.25630736274E+03  0.19700686128E+03  0.39333137239E+03  0.68464477181E+02 0.  0.
          6    2    1    2  501    0 -0.18882069957E+03  0.31508037886E+03  0.99267357724E+03  0.10727729524E+04  0.17467705848E+03 0.  0.
         24    2    5    5    0    0 -0.97931814666E+02  0.15680278584E+03  0.41022856110E+03  0.46238219833E+03  0.10645220062E+03 0.  0.
          5    1    5    5  501    0 -0.90888884908E+02  0.15827759302E+03  0.58244501614E+03  0.61039075409E+03  0.47000000000E+01 0. -1.
        -13    1    6    6    0    0 -0.34178471258E+02  0.14052929731E+03  0.31521751898E+03  0.34681224830E+03  0.00000000000E+00 0.  1.
         14    1    6    6    0    0 -0.63753343408E+02  0.16273488532E+02  0.95011042123E+02  0.11556995003E+03  0.00000000000E+00 0. -1.
         -5    1    3    3    0  503 -0.24526473561E+02 -0.58773016127E+02  0.21401102560E+02  0.67349183520E+02  0.47000000000E+01 0.  1.
         13    1    4    4    0    0  0.15756092649E+03 -0.22988596252E+03  0.15999719054E+03  0.32135977082E+03  0.00000000000E+00 0. -1.
        -14    1    4    4    0    0  0.55786246648E+02 -0.26421400219E+02  0.37009670734E+02  0.71971601570E+02  0.00000000000E+00 0.  1.
</event>
<event>
12    1  0.1627564E-001  0.1979160E+03  0.7818608E-02  0.1152979E+00
         21   -1    0    0  503  502  0.00000000000E+00  0.00000000000E+00  0.26382111994E+03  0.26382111994E+03  0.00000000000E+00 0. -1.
         21   -1    0    0  501  503 -0.00000000000E+00 -0.00000000000E+00 -0.16579878369E+03  0.16579878369E+03  0.00000000000E+00 0.  1.
          6    2    1    2  501    0 -0.12144940550E+02 -0.96559492375E+02 -0.30571699542E+02  0.19359622124E+03  0.16454067253E+03 0.  0.
         24    2    3    3    0    0 -0.38785040060E+02 -0.71487131813E+02 -0.74250041622E+02  0.13642799813E+03  0.80528508285E+02 0.  0.
         -6    2    1    2    0  502  0.12144940550E+02  0.96559492375E+02  0.12859403579E+03  0.23602368239E+03  0.17233547941E+03 0.  0.
        -24    2    5    5    0    0  0.42227765624E+02  0.36088356840E+02  0.12943456925E+02  0.10201293287E+03  0.84578671699E+02 0.  0.
          5    1    3    3  501    0  0.26640099510E+02 -0.25072360561E+02  0.43678342081E+02  0.57168223104E+02  0.47000000000E+01 0. -1.
        -13    1    4    4    0    0  0.21813968088E+02 -0.60417520960E+01 -0.27848690844E+02  0.35887345317E+02  0.00000000000E+00 0.  1.
         14    1    4    4    0    0 -0.60599008148E+02 -0.65445379717E+02 -0.46401350778E+02  0.10054065282E+03  0.00000000000E+00 0. -1.
         -5    1    5    5    0  502 -0.30082825074E+02  0.60471135534E+02  0.11565057886E+03  0.13401074952E+03  0.47000000000E+01 0.  1.
         11    1    6    6    0    0  0.39667702625E+02  0.61312304046E+02  0.19964148113E+02  0.75705300137E+02  0.00000000000E+00 0. -1.
        -12    1    6    6    0    0  0.25600629992E+01 -0.25223947206E+02 -0.70206911878E+01  0.26307632732E+02  0.00000000000E+00 0.  1.
</event>
<event>
12    1  0.1627564E-001  0.2366610E+03  0.7818608E-02  0.1122507E+00
         21   -1    0    0  501  502  0.00000000000E+00  0.00000000000E+00  0.15338673424E+03  0.15338673424E+03  0.00000000000E+00 0.  1.
         21   -1    0    0  502  503 -0.00000000000E+00 -0.00000000000E+00 -0.40822814157E+03  0.40822814157E+03  0.00000000000E+00 0. -1.
         -6    2    1    2    0  503  0.10936861409E+03 -0.11971476721E+03 -0.22367770498E+03  0.32563804114E+03  0.17238126028E+03 0.  0.
        -24    2    3    3    0    0 -0.46110473207E+01 -0.26004975886E+02 -0.11568575580E+03  0.14272483961E+03  0.79307409618E+02 0.  0.
          6    2    1    2  501    0 -0.10936861409E+03  0.11971476721E+03 -0.31163702341E+02  0.23597683467E+03  0.16858461057E+03 0.  0.
         24    2    5    5    0    0 -0.49230100340E+02  0.12072440618E+03 -0.66149196547E+02  0.16623635136E+03  0.79125364348E+02 0.  0.
          5    1    5    5  501    0 -0.60138513746E+02 -0.10096389771E+01  0.34985494206E+02  0.69740483303E+02  0.47000000000E+01 0. -1.
        -13    1    6    6    0    0  0.85623575013E+01  0.62458852436E+02 -0.37733301382E+01  0.63155840854E+02  0.00000000000E+00 0.  1.
         14    1    6    6    0    0 -0.57792457841E+02  0.58265553747E+02 -0.62375866409E+02  0.10308051051E+03  0.00000000000E+00 0. -1.
         -5    1    3    3    0  503  0.11397966141E+03 -0.93709791320E+02 -0.10799194919E+03  0.18291320153E+03  0.47000000000E+01 0.  1.
         13    1    4    4    0    0  0.12657142760E+00  0.18375086797E+02  0.37359632257E+00  0.18379320155E+02  0.00000000000E+00 0. -1.
        -14    1    4    4    0    0 -0.47376187483E+01 -0.44380062683E+02 -0.11605935212E+03  0.12434551946E+03  0.00000000000E+00 0.  1.
</event>
<event>
12    1  0.1627564E-001  0.2662153E+03  0.7818608E-02  0.1103520E+00
         21   -1    0    0  501  502  0.00000000000E+00  0.00000000000E+00  0.27397301767E+03  0.27397301767E+03  0.00000000000E+00 0. -1.
         21   -1    0    0  502  503 -0.00000000000E+00 -0.00000000000E+00 -0.28882770755E+03  0.28882770755E+03  0.00000000000E+00 0. -1.
         -6    2    1    2    0  503  0.12669671067E+03  0.15887003402E+03 -0.98893241523E+02  0.28399025546E+03  0.17198502194E+03 0.  0.
        -24    2    3    3    0    0  0.14718753786E+03  0.10899952210E+03 -0.38238843499E+02  0.20270072380E+03  0.77976324341E+02 0.  0.
          6    2    1    2  501    0 -0.12669671067E+03 -0.15887003402E+03  0.84038551648E+02  0.27881046976E+03  0.17140903033E+03 0.  0.
         24    2    5    5    0    0 -0.90412303131E+02 -0.47215087350E+02 -0.72181293032E+01  0.13003796839E+03  0.80337555354E+02 0.  0.
          5    1    5    5  501    0 -0.36284407543E+02 -0.11165494667E+03  0.91256680951E+02  0.14877250137E+03  0.47000000000E+01 0. -1.
        -13    1    6    6    0    0 -0.10429530233E+03 -0.47558798482E+02 -0.12221950531E+02  0.11527673432E+03  0.00000000000E+00 0.  1.
         14    1    6    6    0    0  0.13882999201E+02  0.34371113158E+00  0.50038212283E+01  0.14761234062E+02  0.00000000000E+00 0. -1.
         -5    1    3    3    0  503 -0.20490827183E+02  0.49870511922E+02 -0.60654398024E+02  0.81289531661E+02  0.47000000000E+01 0.  1.
         11    1    4    4    0    0  0.10946954255E+03  0.43904232615E+02 -0.46987327386E+02  0.12696051087E+03  0.00000000000E+00 0. -1.
        -12    1    4    4    0    0  0.37717995311E+02  0.65095289483E+02  0.87484838869E+01  0.75740212922E+02  0.00000000000E+00 0.  1.
</event>
<event>
12    1  0.1627564E-001  0.1832195E+03  0.7818608E-02  0.1164849E+00
         21   -1    0    0  503  502  0.00000000000E+00  0.00000000000E+00  0.18529243599E+03  0.18529243599E+03  0.00000000000E+00 0. -1.
         21   -1    0    0  501  503 -0.00000000000E+00 -0.00000000000E+00 -0.21507415065E+03  0.21507415065E+03  0.00000000000E+00 0. -1.
          6    2    1    2  501    0 -0.61972721287E+02 -0.36536343876E+01 -0.94964655513E+02  0.20589754578E+03  0.17181835273E+03 0.  0.
         24    2    3    3    0    0 -0.18459623415E+02  0.54610060107E+02 -0.42326450031E+02  0.11600361685E+03  0.91336161447E+02 0.  0.
         -6    2    1    2    0  502  0.61972721287E+02  0.36536343876E+01  0.65182940848E+02  0.19446904086E+03  0.17238162561E+03 0.  0.
        -24    2    5    5    0    0  0.11754191320E+02 -0.29953986058E+02  0.93131713231E+02  0.12772627510E+03  0.81271662013E+02 0.  0.
          5    1    3    3  501    0 -0.43513097872E+02 -0.58263694495E+02 -0.52638205481E+02  0.89893928932E+02  0.47000000000E+01 0. -1.
        -11    1    4    4    0    0  0.42240785611E+01  0.38461111726E+02  0.22984714877E+02  0.45004411704E+02  0.00000000000E+00 0.  1.
         12    1    4    4    0    0 -0.22683701976E+02  0.16148948382E+02 -0.65311164909E+02  0.70999205143E+02  0.00000000000E+00 0. -1.
         -5    1    5    5    0  502  0.50218529967E+02  0.33607620446E+02 -0.27948772383E+02  0.66742765764E+02  0.47000000000E+01 0.  1.
         11    1    6    6    0    0  0.18511468143E+02  0.23706098058E+02  0.17666803759E+02  0.34882223166E+02  0.00000000000E+00 0. -1.
        -12    1    6    6    0    0 -0.67572768227E+01 -0.53660084116E+02  0.75464909472E+02  0.92844051931E+02  0.00000000000E+00 0.  1.
</event>
<event>
12    1  0.1627564E-001  0.1993623E+03  0.7818608E-02  0.1150392E+00
         21   -1    0    0  501  502  0.00000000000E+00  0.00000000000E+00  0.28382222027E+03  0.28382222027E+03  0.00000000000E+00 0.  1.
         21   -1    0    0  502  503 -0.00000000000E+00 -0.00000000000E+00 -0.30323828432E+03  0.30323828432E+03  0.00000000000E+00 0. -1.
         -6    2    1    2    0  503  0.21065855490E+02  0.98734813269E+02 -0.22530156517E+03  0.30084235810E+03  0.17190984712E+03 0.  0.
        -24    2    3    3    0    0  0.38676468538E+02 -0.90177180636E+01 -0.86806302223E+02  0.12442305768E+03  0.79803350300E+02 0.  0.
          6    2    1    2  501    0 -0.21065855490E+02 -0.98734813269E+02  0.20588550113E+03  0.28621814649E+03  0.17128821964E+03 0.  0.
         24    2    5    5    0    0 -0.27393874353E+02 -0.13433641001E+03  0.14353710358E+03  0.21398982663E+03  0.79950299511E+02 0.  0.
          5    1    5    5  501    0  0.63280188631E+01  0.35601596738E+02  0.62348397542E+02  0.72228319855E+02  0.47000000000E+01 0. -1.
        -13    1    6    6    0    0 -0.13562103010E+02 -0.13142899762E+03  0.14872040201E+03  0.19893534133E+03  0.00000000000E+00 0.  1.
         14    1    6    6    0    0 -0.13831771343E+02 -0.29074123843E+01 -0.51832984288E+01  0.15054485307E+02  0.00000000000E+00 0. -1.
         -5    1    3    3    0  503 -0.17610613049E+02  0.10775253133E+03 -0.13849526295E+03  0.17641930042E+03  0.47000000000E+01 0.  1.
         13    1    4    4    0    0  0.11070136278E+02 -0.27792199685E+01 -0.94425634542E+02  0.95112945699E+02  0.00000000000E+00 0. -1.
        -14    1    4    4    0    0  0.27606332260E+02 -0.62384980951E+01  0.76193323190E+01  0.29310111981E+02  0.00000000000E+00 0.  1.
</event>
<event>
12    1  0.1627564E-001  0.1944993E+03  0.7818608E-02  0.1155603E+00
         21   -1    0    0  501  502  0.00000000000E+00  0.00000000000E+00  0.44427187590E+03  0.44427187590E+03  0.00000000000E+00 0.  1.
         21   -1    0    0  502  503 -0.00000000000E+00 -0.00000000000E+00 -0.14191141049E+03  0.14191141049E+03  0.00000000000E+00 0. -1.
         -6    2    1    2    0  503 -0.86987359999E+02 -0.29425777515E+02 -0.38960827691E+02  0.19333444572E+03  0.16561275502E+03 0.  0.
        -24    2    3    3    0    0 -0.12234796088E+03 -0.40397723981E+02 -0.40476899352E+02  0.15598281688E+03  0.78046525536E+02 0.  0.
          6    2    1    2  501    0  0.86987359999E+02  0.29425777515E+02  0.34132129310E+03  0.39284884068E+03  0.17145643562E+03 0.  0.
         24    2    5    5    0    0  0.68811310896E+02 -0.18948530125E+02  0.31908149913E+03  0.33639407262E+03  0.79081765954E+02 0.  0.
          5    1    5    5  501    0  0.18176049103E+02  0.48374307640E+02  0.22239793973E+02  0.56454768059E+02  0.47000000000E+01 0. -1.
        -11    1    6    6    0    0  0.47688910467E+02  0.25172793160E+02  0.21059074805E+03  0.21738529127E+03  0.00000000000E+00 0.  1.
         12    1    6    6    0    0  0.21122400428E+02 -0.44121323285E+02  0.10849075107E+03  0.11900878134E+03  0.00000000000E+00 0. -1.
         -5    1    3    3    0  503  0.35360600876E+02  0.10971946465E+02  0.15160716609E+01  0.37351628838E+02  0.47000000000E+01 0.  1.
         11    1    4    4    0    0  0.82557905757E+01 -0.14894839268E+02 -0.89085000261E+01  0.19219148981E+02  0.00000000000E+00 0. -1.
        -12    1    4    4    0    0 -0.13060375145E+03 -0.25502884712E+02 -0.31568399326E+02  0.13676366790E+03  0.00000000000E+00 0.  1.
</event>
<event>
12    1  0.1627564E-001  0.1819752E+03  0.7818608E-02  0.1166185E+00
         21   -1    0    0  501  502  0.00000000000E+00  0.00000000000E+00  0.53292702720E+03  0.53292702720E+03  0.00000000000E+00 0. -1.
         21   -1    0    0  502  503 -0.00000000000E+00 -0.00000000000E+00 -0.12850108929E+03  0.12850108929E+03  0.00000000000E+00 0. -1.
         -6    2    1    2    0  503  0.30215251124E+02 -0.47773286812E+02 -0.35850291899E+02  0.18547293072E+03  0.17297316632E+03 0.  0.
        -24    2    3    3    0    0 -0.27915194737E+02 -0.23152969256E+02  0.29759646663E+02  0.94302415687E+02  0.81804590044E+02 0.  0.
          6    2    1    2  501    0 -0.30215251124E+02  0.47773286812E+02  0.44027622981E+03  0.47595518577E+03  0.17174088619E+03 0.  0.
         24    2    5    5    0    0 -0.54280902183E+02 -0.28599328091E+02  0.21499155402E+03  0.23681671748E+03  0.78079776320E+02 0.  0.
          5    1    5    5  501    0  0.24065651059E+02  0.76372614903E+02  0.22528467579E+03  0.23913846828E+03  0.47000000000E+01 0. -1.
        -11    1    6    6    0    0 -0.70044636310E+01  0.19242118444E+02  0.13833833821E+02  0.24712276123E+02  0.00000000000E+00 0.  1.
         12    1    6    6    0    0 -0.47276438552E+02 -0.47841446535E+02  0.20115772020E+03  0.21210444136E+03  0.00000000000E+00 0. -1.
         -5    1    3    3    0  503  0.58130445861E+02 -0.24620317555E+02 -0.65609938563E+02  0.91170515029E+02  0.47000000000E+01 0.  1.
         11    1    4    4    0    0  0.19624503504E+02 -0.33170818287E+02  0.23940326806E+02  0.45371395959E+02  0.00000000000E+00 0. -1.
        -12    1    4    4    0    0 -0.47539698241E+02  0.10017849031E+02  0.58193198571E+01  0.48931019729E+02  0.00000000000E+00 0.  1.
</event>
<event>
12    1  0.1627564E-001  0.1965120E+03  0.7818608E-02  0.1152743E+00
         21   -1    0    0  501  502  0.00000000000E+00  0.00000000000E+00  0.14646341575E+03  0.14646341575E+03  0.00000000000E+00 0. -1.
         21   -1    0    0  502  503 -0.00000000000E+00 -0.00000000000E+00 -0.26360739281E+03  0.26360739281E+03  0.00000000000E+00 0.  1.
         -6    2    1    2    0  503 -0.93932808984E+02  0.41852174920E+01 -0.54277066153E+02  0.20386997226E+03  0.17255746009E+03 0.  0.
        -24    2    3    3    0    0 -0.10224290346E+03 -0.62138845568E+02 -0.39372052931E+02  0.13522459055E+03  0.49200446148E+02 0.  0.
          6    2    1    2  501    0  0.93932808984E+02 -0.41852174920E+01 -0.62866910902E+02  0.20620083630E+03  0.17241127502E+03 0.  0.
         24    2    5    5    0    0  0.10845970909E+03 -0.52663327825E+02 -0.56702397627E+02  0.15500269930E+03  0.79206946044E+02 0.  0.
          5    1    5    5  501    0 -0.14526900103E+02  0.48478110333E+02 -0.61645132750E+01  0.51198136997E+02  0.47000000000E+01 0. -1.
        -11    1    6    6    0    0  0.39767460547E+01 -0.30378993523E+02 -0.34030514918E+02  0.45790541624E+02  0.00000000000E+00 0.  1.
         12    1    6    6    0    0  0.10448296303E+03 -0.22284334302E+02 -0.22671882709E+02  0.10921215768E+03  0.00000000000E+00 0. -1.
         -5    1    3    3    0  503  0.83100944789E+01  0.66324063060E+02 -0.14905013221E+02  0.68645381710E+02  0.47000000000E+01 0.  1.
         13    1    4    4    0    0 -0.54397089342E+02 -0.43676737870E+02  0.12941701315E+01  0.69773746038E+02  0.00000000000E+00 0. -1.
        -14    1    4    4    0    0 -0.47845814120E+02 -0.18462107698E+02 -0.40666223063E+02  0.65450844515E+02  0.00000000000E+00 0.  1.
</event>
<event>
12    1  0.1627564E-001  0.1866253E+03  0.7818608E-02  0.1162557E+00
         21   -1    0    0  501  502  0.00000000000E+00  0.00000000000E+00  0.16088532376E+03  0.16088532376E+03  0.00000000000E+00 0.  1.
         21   -1    0    0  502  503 -0.00000000000E+00 -0.00000000000E+00 -0.25383387684E+03  0.25383387684E+03  0.00000000000E+00 0.  1.
         -6    2    1    2    0  503  0.46104053130E+02  0.57546561447E+02  0.37777883213E+02  0.19041053327E+03  0.17144040443E+03 0.  0.
        -24    2    3    3    0    0  0.45780662059E+02 -0.24198217714E+02  0.58624161503E+00  0.10047932786E+03  0.86106497368E+02 0.  0.
          6    2    1    2  501    0 -0.46104053130E+02 -0.57546561447E+02 -0.13072643629E+03  0.22430866733E+03  0.16669669056E+03 0.  0.
         24    2    5    5    0    0 -0.78986984064E+01 -0.90730043552E+02 -0.54036682978E+02  0.13230757561E+03  0.79315832067E+02 0.  0.
          5    1    5    5  501    0 -0.38205354724E+02  0.33183482105E+02 -0.76689753315E+02  0.92001091720E+02  0.47000000000E+01 0. -1.
        -13    1    6    6    0    0 -0.43539146285E+02 -0.56118096890E+02 -0.29721677287E+02  0.76995299588E+02  0.00000000000E+00 0.  1.
         14    1    6    6    0    0  0.35640447879E+02 -0.34611946661E+02 -0.24315005692E+02  0.55312276020E+02  0.00000000000E+00 0. -1.
         -5    1    3    3    0  503  0.32339107078E+00  0.81744779161E+02  0.37191641598E+02  0.89931205411E+02  0.47000000000E+01 0.  1.
         11    1    4    4    0    0  0.59774670730E+02 -0.42609546012E+02  0.12502110929E+02  0.74464001034E+02  0.00000000000E+00 0. -1.
        -12    1    4    4    0    0 -0.13994008671E+02  0.18411328298E+02 -0.11915869314E+02  0.26015326827E+02  0.00000000000E+00 0.  1.
</event>
<event>
12    1  0.1627564E-001  0.1746615E+03  0.7818608E-02  0.1174383E+00
         21   -1    0    0  503  502  0.00000000000E+00  0.00000000000E+00  0.30366659682E+03  0.30366659682E+03  0.00000000000E+00 0.  1.
         21   -1    0    0  501  503 -0.00000000000E+00 -0.00000000000E+00 -0.10106557406E+03  0.10106557406E+03  0.00000000000E+00 0.  1.
          6    2    1    2  501    0  0.10647831434E+02  0.25290457372E+02  0.62020450022E+02  0.18052347248E+03  0.16729974401E+03 0.  0.
         24    2    3    3    0    0  0.68856354320E+01  0.61536476920E+02  0.92641008120E+02  0.13269422797E+03  0.72050342018E+02 0.  0.
         -6    2    1    2    0  502 -0.10647831434E+02 -0.25290457372E+02  0.14058057273E+03  0.22420869840E+03  0.17249249102E+03 0.  0.
        -24    2    5    5    0    0  0.46679787858E+02 -0.56370022267E+02  0.94566607222E+02  0.14426015050E+03  0.80694273757E+02 0.  0.
          5    1    3    3  501    0  0.37621960015E+01 -0.36246019548E+02 -0.30620558098E+02  0.47829244506E+02  0.47000000000E+01 0. -1.
        -13    1    4    4    0    0  0.20012635620E+02  0.72832057787E+02  0.62962323947E+02  0.98332438507E+02  0.00000000000E+00 0.  1.
         14    1    4    4    0    0 -0.13127000188E+02 -0.11295580867E+02  0.29678684173E+02  0.34361789466E+02  0.00000000000E+00 0. -1.
         -5    1    5    5    0  502 -0.57327619292E+02  0.31079564895E+02  0.46013965512E+02  0.79948547891E+02  0.47000000000E+01 0.  1.
         11    1    6    6    0    0 -0.17311034527E+02 -0.20676996218E+01  0.41373770496E+02  0.44896950711E+02  0.00000000000E+00 0. -1.
        -12    1    6    6    0    0  0.63990822385E+02 -0.54302322645E+02  0.53192836726E+02  0.99363199793E+02  0.00000000000E+00 0.  1.
</event>
<event>
12    1  0.1627564E-001  0.1745540E+03  0.7818608E-02  0.1173583E+00
         21   -1    0    0  501  502  0.00000000000E+00  0.00000000000E+00  0.96689152333E+03  0.96689152333E+03  0.00000000000E+00 0.  1.
         21   -1    0    0  502  503 -0.00000000000E+00 -0.00000000000E+00 -0.34643031824E+02  0.34643031824E+02  0.00000000000E+00 0.  1.
         -6    2    1    2    0  503 -0.26773290230E+02 -0.19547951632E+02  0.62532208223E+03  0.64922786294E+03  0.17137730310E+03 0.  0.
        -24    2    3    3    0    0 -0.51225353757E+02  0.43356888265E+02  0.32951634440E+03  0.34578421607E+03  0.80509913872E+02 0.  0.
          6    2    1    2  501    0  0.26773290230E+02  0.19547951632E+02  0.30692640928E+03  0.35230669221E+03  0.16975645255E+03 0.  0.
         24    2    5    5    0    0 -0.36342380890E+02 -0.25466600154E+02  0.12897773867E+03  0.15814769246E+03  0.80038235772E+02 0.  0.
          5    1    5    5  501    0  0.63115671121E+02  0.45014551786E+02  0.17794867061E+03  0.19415899975E+03  0.47000000000E+01 0. -1.
        -13    1    6    6    0    0 -0.16041882289E+02 -0.54042543309E+02  0.76060608634E+02  0.94673938655E+02  0.00000000000E+00 0.  1.
         14    1    6    6    0    0 -0.20300498601E+02  0.28575943155E+02  0.52917130040E+02  0.63473753807E+02  0.00000000000E+00 0. -1.
         -5    1    3    3    0  503  0.24452063527E+02 -0.62904839898E+02  0.29580573783E+03  0.30344364687E+03  0.47000000000E+01 0.  1.
         11    1    4    4    0    0 -0.34235719191E+02 -0.12760724877E+02  0.62409943407E+02  0.72318196908E+02  0.00000000000E+00 0. -1.
        -12    1    4    4    0    0 -0.16989634567E+02  0.56117613143E+02  0.26710640099E+03  0.27346601916E+03  0.00000000000E+00 0.  1.
</event>
<event>
12    1  0.1627564E-001  0.1915596E+03  0.7818608E-02  0.1157123E+00
         21   -1    0    0  501  502  0.00000000000E+00  0.00000000000E+00  0.18242785834E+03  0.18242785834E+03  0.00000000000E+00 0. -1.
         21   -1    0    0  502  503 -0.00000000000E+00 -0.00000000000E+00 -0.44720553948E+03  0.44720553948E+03  0.00000000000E+00 0. -1.
         -6    2    1    2    0  503  0.56164581108E+02 -0.62388503271E+02 -0.36600147512E+03  0.41297393446E+03  0.17188253325E+03 0.  0.
        -24    2    3    3    0    0  0.59698461070E+02  0.24432063487E+01 -0.31479661852E+03  0.33015083249E+03  0.79578801514E+02 0.  0.
          6    2    1    2  501    0 -0.56164581108E+02  0.62388503271E+02  0.10122379399E+03  0.21665946337E+03  0.17218676222E+03 0.  0.
         24    2    5    5    0    0 -0.78933389494E+02  0.97483101292E+02  0.69004360733E+02  0.16364784837E+03  0.79281659040E+02 0.  0.
          5    1    5    5  501    0  0.22768808386E+02 -0.35094598021E+02  0.32219433255E+02  0.53011614999E+02  0.47000000000E+01 0. -1.
        -13    1    6    6    0    0 -0.51106456479E+02  0.46698659743E+01  0.27684548520E+02  0.58310477351E+02  0.00000000000E+00 0.  1.
         14    1    6    6    0    0 -0.27826933015E+02  0.92813235318E+02  0.41319812212E+02  0.10533737102E+03  0.00000000000E+00 0. -1.
         -5    1    3    3    0  503 -0.35338799615E+01 -0.64831709620E+02 -0.51204856602E+02  0.82823101967E+02  0.47000000000E+01 0.  1.
         11    1    4    4    0    0 -0.24904968168E+01 -0.11865466686E+02 -0.18617215648E+03  0.18656651286E+03  0.00000000000E+00 0. -1.
        -12    1    4    4    0    0  0.62188957886E+02  0.14308673035E+02 -0.12862446204E+03  0.14358431963E+03  0.00000000000E+00 0.  1.
</event>
<event>
12    1  0.1627564E-001  0.2267822E+03  0.7818608E-02  0.1129300E+00
         21   -1    0    0  501  502  0.00000000000E+00  0.00000000000E+00  0.22271118334E+03  0.22271118334E+03  0.00000000000E+00 0. -1.
         21   -1    0    0  502  503 -0.00000000000E+00 -0.00000000000E+00 -0.22885652750E+03  0.22885652750E+03  0.00000000000E+00 0. -1.
         -6    2    1    2    0  503  0.49924493867E+02 -0.14077106813E+03 -0.62203694484E+01  0.22478547094E+03  0.16787157663E+03 0.  0.
        -24    2    3    3    0    0  0.21804087210E+02 -0.11785529891E+03 -0.63074512931E+02  0.15718093425E+03  0.79763163245E+02 0.  0.
          6    2    1    2  501    0 -0.49924493867E+02  0.14077106813E+03  0.75025285834E-01  0.22678223989E+03  0.17064943596E+03 0.  0.
         24    2    5    5    0    0 -0.53874680455E+02  0.83169600306E+02  0.62175997608E+02  0.14185783920E+03  0.80237947727E+02 0.  0.
          5    1    5    5  501    0  0.39501865875E+01  0.57601467823E+02 -0.62100972322E+02  0.84924400692E+02  0.47000000000E+01 0. -1.
        -11    1    6    6    0    0 -0.11163691812E+02 -0.73280838330E+01  0.36034624094E+02  0.38429454343E+02  0.00000000000E+00 0.  1.
         12    1    6    6    0    0 -0.42710988643E+02  0.90497684139E+02  0.26141373514E+02  0.10342838486E+03  0.00000000000E+00 0. -1.
         -5    1    3    3    0  503  0.28120406657E+02 -0.22915769218E+02  0.56854143483E+02  0.67604536686E+02  0.47000000000E+01 0.  1.
         11    1    4    4    0    0  0.28321384554E+02 -0.80314096365E+01 -0.30622225635E+02  0.42477347689E+02  0.00000000000E+00 0. -1.
        -12    1    4    4    0    0 -0.65172973438E+01 -0.10982388928E+03 -0.32452287296E+02  0.11470358657E+03  0.00000000000E+00 0.  1.
</event>
<event>
12    1  0.1627564E-001  0.2071447E+03  0.7818608E-02  0.1144266E+00
         21   -1    0    0  501  502  0.00000000000E+00  0.00000000000E+00  0.44784845531E+03  0.44784845531E+03  0.00000000000E+00 0. -1.
         21   -1    0    0  502  503 -0.00000000000E+00 -0.00000000000E+00 -0.10872441172E+03  0.10872441172E+03  0.00000000000E+00 0. -1.
         -6    2    1    2    0  503 -0.84610960539E+02 -0.72160287292E+02  0.26969123766E+03  0.34006216978E+03  0.17476496770E+03 0.  0.
        -24    2    3    3    0    0  0.27189237862E+01 -0.84594043593E+02  0.16536282163E+03  0.20335951661E+03  0.82744700492E+02 0.  0.
          6    2    1    2  501    0  0.84610960539E+02  0.72160287292E+02  0.69432805926E+02  0.21651069725E+03  0.17230741650E+03 0.  0.
         24    2    5    5    0    0  0.11255418006E+03  0.93653598451E+02  0.71967363174E+02  0.18085540421E+03  0.78038041467E+02 0.  0.
          5    1    5    5  501    0 -0.27943219523E+02 -0.21493311160E+02 -0.25345572474E+01  0.35655293048E+02  0.47000000000E+01 0. -1.
        -13    1    6    6    0    0  0.11739899170E+03  0.60145977757E+02  0.54082454673E+02  0.14256568239E+03  0.00000000000E+00 0.  1.
         14    1    6    6    0    0 -0.48448116394E+01  0.33507620694E+02  0.17884908501E+02  0.38289721813E+02  0.00000000000E+00 0. -1.
         -5    1    3    3    0  503 -0.87329884325E+02  0.12433756302E+02  0.10432841604E+03  0.13670265317E+03  0.47000000000E+01 0.  1.
         13    1    4    4    0    0  0.25370678675E+02 -0.44830254948E+02  0.14384482477E+03  0.15278991036E+03  0.00000000000E+00 0. -1.
        -14    1    4    4    0    0 -0.22651754888E+02 -0.39763788645E+02  0.21517996858E+02  0.50569606244E+02  0.00000000000E+00 0.  1.
</event>
<event>
12    1  0.1627564E-001  0.1745362E+03  0.7818608E-02  0.1173221E+00
         21   -1    0    0  501  502  0.00000000000E+00  0.00000000000E+00  0.40748267030E+02  0.40748267030E+02  0.00000000000E+00 0. -1.
         21   -1    0    0  502  503 -0.00000000000E+00 -0.00000000000E+00 -0.76217789291E+03  0.76217789291E+03  0.00000000000E+00 0. -1.
         -6    2    1    2    0  503 -0.84702306067E+01 -0.29620456030E+02 -0.30432672569E+03  0.35077827809E+03  0.17170185843E+03 0.  0.
        -24    2    3    3    0    0 -0.52941490430E+02 -0.55070955244E+02 -0.25933825091E+03  0.28243009798E+03  0.81699573702E+02 0.  0.
          6    2    1    2  501    0  0.84702306067E+01  0.29620456030E+02 -0.41710290018E+03  0.45214788185E+03  0.17179569696E+03 0.  0.
         24    2    5    5    0    0  0.52425591714E+02 -0.24422981049E+02 -0.19336462226E+03  0.21776854430E+03  0.81782254028E+02 0.  0.
          5    1    5    5  501    0 -0.43955361107E+02  0.54043437079E+02 -0.22373827792E+03  0.23437933755E+03  0.47000000000E+01 0. -1.
        -11    1    6    6    0    0  0.85984147917E+01 -0.63894079349E+01  0.63868771667E+01  0.12471947347E+02  0.00000000000E+00 0.  1.
         12    1    6    6    0    0  0.43827176922E+02 -0.18033573114E+02 -0.19975149943E+03  0.20529659695E+03  0.00000000000E+00 0. -1.
         -5    1    3    3    0  503  0.44471259823E+02  0.25450499214E+02 -0.44988474786E+02  0.68348180108E+02  0.47000000000E+01 0.  1.
         11    1    4    4    0    0 -0.52999100637E+02  0.31409287640E+01 -0.13768468691E+03  0.14756640238E+03  0.00000000000E+00 0. -1.
        -12    1    4    4    0    0  0.57610207523E-01 -0.58211884008E+02 -0.12165356400E+03  0.13486369560E+03  0.00000000000E+00 0.  1.
</event>
<event>
12    1  0.1627564E-001  0.3403981E+03  0.7818608E-02  0.1066702E+00
         21   -1    0    0  503  502  0.00000000000E+00  0.00000000000E+00  0.77627485972E+02  0.77627485972E+02  0.00000000000E+00 0.  1.
         21   -1    0    0  501  503 -0.00000000000E+00 -0.00000000000E+00 -0.18286740252E+04  0.18286740252E+04  0.00000000000E+00 0.  1.
          6    2    1    2  501    0  0.32910364059E+02 -0.29091495923E+03 -0.46580240380E+03  0.57692525313E+03  0.17365558656E+03 0.  0.
         24    2    3    3    0    0  0.10387437013E+02 -0.11305926749E+03 -0.10706050163E+03  0.17585447172E+03  0.81071248921E+02 0.  0.
         -6    2    1    2    0  502 -0.32910364059E+02  0.29091495923E+03 -0.12852441354E+04  0.13293762580E+04  0.17226184204E+03 0.  0.
        -24    2    5    5    0    0 -0.49546984871E+02  0.74203655826E+02 -0.58339369111E+03  0.59462684337E+03  0.72607146871E+02 0.  0.
          5    1    3    3  501    0  0.22522927046E+02 -0.17785569174E+03 -0.35874190216E+03  0.40107078140E+03  0.47000000000E+01 0. -1.
        -11    1    4    4    0    0  0.22005710642E+02 -0.66528125459E+02 -0.10698981337E+03  0.12789473384E+03  0.00000000000E+00 0.  1.
         12    1    4    4    0    0 -0.11618273630E+02 -0.46531142032E+02 -0.70688257749E-01  0.47959737882E+02  0.00000000000E+00 0. -1.
         -5    1    5    5    0  502  0.16636620813E+02  0.21671130341E+03 -0.70185044431E+03  0.73474941466E+03  0.47000000000E+01 0.  1.
         13    1    6    6    0    0 -0.16195390797E+02 -0.21521853119E+01 -0.23824690995E+02  0.28888379769E+02  0.00000000000E+00 0. -1.
        -14    1    6    6    0    0 -0.33351594074E+02  0.76355841138E+02 -0.55956900012E+03  0.56573846360E+03  0.00000000000E+00 0.  1.
</event>
<event>
12    1  0.1627564E-001  0.1930123E+03  0.7818608E-02  0.1157683E+00
         21   -1    0    0  501  502  0.00000000000E+00  0.00000000000E+00  0.74666938880E+03  0.74666938880E+03  0.00000000000E+00 0. -1.
         21   -1    0    0  502  503 -0.00000000000E+00 -0.00000000000E+00 -0.12911373646E+03  0.12911373646E+03  0.00000000000E+00 0. -1.
         -6    2    1    2    0  503 -0.75295889262E+02 -0.45694561552E+02 -0.36283255250E+02  0.19639300016E+03  0.17174478742E+03 0.  0.
        -24    2    3    3    0    0  0.22588475559E+02 -0.43536875033E+02 -0.18568618822E+00  0.91936650521E+02  0.77759980157E+02 0.  0.
          6    2    1    2  501    0  0.75295889262E+02  0.45694561552E+02  0.65383890758E+03  0.67939012510E+03  0.16219790727E+03 0.  0.
         24    2    5    5    0    0  0.39519300239E+02  0.62158940761E+02  0.23646737345E+03  0.26013825855E+03  0.79558694348E+02 0.  0.
          5    1    5    5  501    0  0.35776589023E+02 -0.16464379209E+02  0.41737153413E+03  0.41925186655E+03  0.47000000000E+01 0. -1.
        -13    1    6    6    0    0  0.58236076283E+02  0.25035141133E+02  0.10934923911E+03  0.12639404641E+03  0.00000000000E+00 0.  1.
         14    1    6    6    0    0 -0.18716776043E+02  0.37123799628E+02  0.12711813434E+03  0.13374421214E+03  0.00000000000E+00 0. -1.
         -5    1    3    3    0  503 -0.97884364821E+02 -0.21576865190E+01 -0.36097569062E+02  0.10445634964E+03  0.47000000000E+01 0.  1.
         11    1    4    4    0    0  0.36104093940E+02 -0.72383989293E+01 -0.26275637578E+02  0.45236148691E+02  0.00000000000E+00 0. -1.
        -12    1    4    4    0    0 -0.13515618382E+02 -0.36298476104E+02  0.26089951389E+02  0.46700501830E+02  0.00000000000E+00 0.  1.
</event>
<event>
12    1  0.1627564E-001  0.1741504E+03  0.7818608E-02  0.1175713E+00
         21   -1    0    0  501  502  0.00000000000E+00  0.00000000000E+00  0.13087793868E+04  0.13087793868E+04  0.00000000000E+00 0.  1.
         21   -1    0    0  502  503 -0.00000000000E+00 -0.00000000000E+00 -0.94814788655E+02  0.94814788655E+02  0.00000000000E+00 0.  1.
         -6    2    1    2    0  503  0.92555570728E+01  0.19674141284E+02 -0.41768342776E+01  0.17420047292E+03  0.17278779369E+03 0.  0.
        -24    2    3    3    0    0  0.11641140776E+02  0.11184502833E+02  0.65682769584E+02  0.10362980463E+03  0.78513062137E+02 0.  0.
          6    2    1    2  501    0 -0.92555570728E+01 -0.19674141284E+02  0.12181414324E+04  0.12293937025E+04  0.16452230631E+03 0.  0.
         24    2    5    5    0    0  0.32516464699E+02  0.36736583708E+02  0.71881946147E+03  0.72514020243E+03  0.81975593469E+02 0.  0.
          5    1    5    5  501    0 -0.41772021771E+02 -0.56410724992E+02  0.49932197091E+03  0.50425350006E+03  0.47000000000E+01 0. -1.
        -13    1    6    6    0    0  0.55763730796E+02  0.79073732386E+01  0.50571820144E+03  0.50884478920E+03  0.00000000000E+00 0.  1.
         14    1    6    6    0    0 -0.23247266097E+02  0.28829210470E+02  0.21310126003E+03  0.21629541323E+03  0.00000000000E+00 0. -1.
         -5    1    3    3    0  503 -0.23855837032E+01  0.84896384507E+01 -0.69859603862E+02  0.70570668286E+02  0.47000000000E+01 0.  1.
         11    1    4    4    0    0 -0.31988893397E+02 -0.34507931971E+01  0.38529975810E+02  0.50197174327E+02  0.00000000000E+00 0. -1.
        -12    1    4    4    0    0  0.43630034173E+02  0.14635296030E+02  0.27152793774E+02  0.53432630307E+02  0.00000000000E+00 0.  1.
</event>
<event>
12    1  0.1627564E-001  0.2106804E+03  0.7818608E-02  0.1143555E+00
         21   -1    0    0  503  502  0.00000000000E+00  0.00000000000E+00  0.93794152904E+02  0.93794152904E+02  0.00000000000E+00 0.  1.
         21   -1    0    0  501  503 -0.00000000000E+00 -0.00000000000E+00 -0.55392810776E+03  0.55392810776E+03  0.00000000000E+00 0. -1.
          6    2    1    2  501    0  0.82379016433E+01  0.99707215627E+02 -0.36750470404E+03  0.41757792267E+03  0.17117891850E+03 0.  0.
         24    2    3    3    0    0  0.25561997365E+02  0.12424292200E+03 -0.35430122494E+03  0.38443358620E+03  0.78550014811E+02 0.  0.
         -6    2    1    2    0  502 -0.82379016433E+01 -0.99707215627E+02 -0.92629250815E+02  0.23014433799E+03  0.18540994130E+03 0.  0.
        -24    2    5    5    0    0 -0.35349600869E+02 -0.73973234517E+02 -0.13271891762E+03  0.17513021795E+03  0.79590504701E+02 0.  0.
          5    1    3    3  501    0 -0.17324095722E+02 -0.24535706375E+02 -0.13203479100E+02  0.33144336473E+02  0.47000000000E+01 0. -1.
        -13    1    4    4    0    0  0.13934137045E+02  0.67835332407E+01 -0.59024519988E+01  0.16583589419E+02  0.00000000000E+00 0.  1.
         14    1    4    4    0    0  0.11627860320E+02  0.11745938876E+03 -0.34839877294E+03  0.36784999678E+03  0.00000000000E+00 0. -1.
         -5    1    5    5    0  502  0.27111699226E+02 -0.25733981110E+02  0.40089666810E+02  0.55014120038E+02  0.47000000000E+01 0.  1.
         13    1    6    6    0    0 -0.44852019880E+01 -0.31984858206E+02 -0.11598446322E+03  0.12039744141E+03  0.00000000000E+00 0. -1.
        -14    1    6    6    0    0 -0.30864398881E+02 -0.41988376311E+02 -0.16734454409E+02  0.54732776541E+02  0.00000000000E+00 0.  1.
</event>
<event>
12    1  0.1627564E-001  0.2066510E+03  0.7818608E-02  0.1144373E+00
         21   -1    0    0  503  502  0.00000000000E+00  0.00000000000E+00  0.43704382427E+03  0.43704382427E+03  0.00000000000E+00 0.  1.
         21   -1    0    0  501  503 -0.00000000000E+00 -0.00000000000E+00 -0.27098308201E+03  0.27098308201E+03  0.00000000000E+00 0. -1.
          6    2    1    2  501    0 -0.11254662023E+03 -0.20540885064E+02 -0.20024708451E+03  0.28775605156E+03  0.17209294195E+03 0.  0.
         24    2    3    3    0    0 -0.52535749179E+02  0.74244024025E+01 -0.52094085315E+01  0.81733851305E+02  0.61952867722E+02 0.  0.
         -6    2    1    2    0  502  0.11254662023E+03  0.20540885064E+02  0.36630782677E+03  0.42027085472E+03  0.17134029792E+03 0.  0.
        -24    2    5    5    0    0  0.14535890962E+03  0.33296717533E+02  0.27140787458E+03  0.31894243560E+03  0.76316176772E+02 0.  0.
          5    1    3    3  501    0 -0.60010871051E+02 -0.27965287467E+02 -0.19503767597E+03  0.20602220025E+03  0.47000000000E+01 0. -1.
        -13    1    4    4    0    0 -0.26671724804E+02  0.33221229585E+02 -0.12675653656E+02  0.44448882942E+02  0.00000000000E+00 0.  1.
         14    1    4    4    0    0 -0.25864024376E+02 -0.25796827183E+02  0.74662451242E+01  0.37284968363E+02  0.00000000000E+00 0. -1.
         -5    1    5    5    0  502 -0.32812289387E+02 -0.12755832468E+02  0.94899952188E+02  0.10132841912E+03  0.47000000000E+01 0.  1.
         11    1    6    6    0    0 -0.90382490244E+01  0.55584926135E+01  0.15601595619E+02  0.18867871407E+02  0.00000000000E+00 0. -1.
        -12    1    6    6    0    0  0.15439715864E+03  0.27738224919E+02  0.25580627896E+03  0.30007456419E+03  0.00000000000E+00 0.  1.
</event>
<event>
12    1  0.1627564E-001  0.1740948E+03  0.7818608E-02  0.1173681E+00
         21   -1    0    0  501  502  0.00000000000E+00  0.00000000000E+00  0.31631257147E+02  0.31631257147E+02  0.00000000000E+00 0. -1.
         21   -1    0    0  502  503 -0.00000000000E+00 -0.00000000000E+00 -0.10949460065E+04  0.10949460065E+04  0.00000000000E+00 0. -1.
         -6    2    1    2    0  503 -0.25230396833E+02  0.18540115006E+02 -0.33220323653E+03  0.37505731055E+03  0.17125620296E+03 0.  0.
        -24    2    3    3    0    0  0.32354460646E+02  0.55880854385E+02 -0.16944921480E+03  0.19836178651E+03  0.80404483340E+02 0.  0.
          6    2    1    2  501    0  0.25230396833E+02 -0.18540115006E+02 -0.73111151287E+03  0.75151995314E+03  0.17110782252E+03 0.  0.
         24    2    5    5    0    0  0.73426273067E+02  0.22083192940E+02 -0.46691065415E+03  0.47986340640E+03  0.79901469711E+02 0.  0.
          5    1    5    5  501    0 -0.48195876234E+02 -0.40623307946E+02 -0.26420085873E+03  0.27165654674E+03  0.47000000000E+01 0. -1.
        -11    1    6    6    0    0  0.54497833016E+02 -0.21129580717E+02 -0.18443775087E+03  0.19347805284E+03  0.00000000000E+00 0.  1.
         12    1    6    6    0    0  0.18928440051E+02  0.43212773657E+02 -0.28247290328E+03  0.28638535356E+03  0.00000000000E+00 0. -1.
         -5    1    3    3    0  503 -0.57584857479E+02 -0.37340739378E+02 -0.16275402173E+03  0.17669552404E+03  0.47000000000E+01 0.  1.
         11    1    4    4    0    0 -0.57329541959E+00  0.23918854660E+02 -0.11879549751E+01  0.23955198035E+02  0.00000000000E+00 0. -1.
        -12    1    4    4    0    0  0.32927756065E+02  0.31961999725E+02 -0.16826125983E+03  0.17440658848E+03  0.00000000000E+00 0.  1.
</event>
<event>
12    1  0.1627564E-001  0.2429286E+03  0.7818608E-02  0.1118860E+00
         21   -1    0    0  503  502  0.00000000000E+00  0.00000000000E+00  0.35044149500E+03  0.35044149500E+03  0.00000000000E+00 0. -1.
         21   -1    0    0  501  503 -0.00000000000E+00 -0.00000000000E+00 -0.16425434290E+03  0.16425434290E+03  0.00000000000E+00 0.  1.
          6    2    1    2  501    0 -0.16941017664E+03  0.26339897855E+02  0.89579864831E+02  0.25326272651E+03  0.16347433525E+03 0.  0.
         24    2    3    3    0    0 -0.51799787440E+02  0.60472700931E+02  0.46293226705E+02  0.12328936411E+03  0.81957543436E+02 0.  0.
         -6    2    1    2    0  502  0.16941017664E+03 -0.26339897855E+02  0.96607287275E+02  0.26143311139E+03  0.17210666928E+03 0.  0.
        -24    2    5    5    0    0  0.99449697550E+02 -0.64275614304E+02  0.11057994969E+03  0.18049540379E+03  0.79555443434E+02 0.  0.
          5    1    3    3  501    0 -0.11761038920E+03 -0.34132803077E+02  0.43286638127E+02  0.12997336240E+03  0.47000000000E+01 0. -1.
        -13    1    4    4    0    0  0.20659730645E+02  0.49968072049E+01  0.67781248320E+00  0.21266216926E+02  0.00000000000E+00 0.  1.
         14    1    4    4    0    0 -0.72459518085E+02  0.55475893726E+02  0.45615414221E+02  0.10202314718E+03  0.00000000000E+00 0. -1.
         -5    1    5    5    0  502  0.69960479089E+02  0.37935716449E+02 -0.13972662413E+02  0.80937707602E+02  0.47000000000E+01 0.  1.
         13    1    6    6    0    0  0.12720447847E+02 -0.52799670073E+02  0.52134228017E+02  0.75283415731E+02  0.00000000000E+00 0. -1.
        -14    1    6    6    0    0  0.86729249703E+02 -0.11475944231E+02  0.58445721671E+02  0.10521198806E+03  0.00000000000E+00 0.  1.
</event>
<event>
12    1  0.1627564E-001  0.1731544E+03  0.7818608E-02  0.1174646E+00
         21   -1    0    0  503  502  0.00000000000E+00  0.00000000000E+00  0.19713150483E+03  0.19713150483E+03  0.00000000000E+00 0. -1.
         21   -1    0    0  501  503 -0.00000000000E+00 -0.00000000000E+00 -0.15634603202E+03  0.15634603202E+03  0.00000000000E+00 0. -1.
          6    2    1    2  501    0  0.18181093861E+02 -0.40185559565E+01  0.50114568429E+02  0.18026069122E+03  0.17215035830E+03 0.  0.
         24    2    3    3    0    0  0.13266033386E+01 -0.31953891016E+02 -0.31506412844E+02  0.92234948505E+02  0.80571835327E+02 0.  0.
         -6    2    1    2    0  502 -0.18181093861E+02  0.40185559565E+01 -0.93290956116E+01  0.17321684563E+03  0.17196029373E+03 0.  0.
        -24    2    5    5    0    0  0.54850407089E+01 -0.99801386277E+01  0.58622116200E+02  0.99762733684E+02  0.79914715076E+02 0.  0.
          5    1    3    3  501    0  0.16854490523E+02  0.27935335059E+02  0.81620981273E+02  0.88025742710E+02  0.47000000000E+01 0. -1.
        -13    1    4    4    0    0  0.20153366929E+02  0.19820226031E+02  0.97144401640E+00  0.28283268234E+02  0.00000000000E+00 0.  1.
         14    1    4    4    0    0 -0.18826763591E+02 -0.51774117047E+02 -0.32477856860E+02  0.63951680271E+02  0.00000000000E+00 0. -1.
         -5    1    5    5    0  502 -0.23666134570E+02  0.13998694584E+02 -0.67951211812E+02  0.73454111949E+02  0.47000000000E+01 0.  1.
         11    1    6    6    0    0  0.19599270795E+02 -0.35753463146E+02  0.84813140786E+01  0.41645818891E+02  0.00000000000E+00 0. -1.
        -12    1    6    6    0    0 -0.14114230086E+02  0.25773324518E+02  0.50140802122E+02  0.58116914793E+02  0.00000000000E+00 0.  1.
</event>
<event>
12    1  0.1627564E-001  0.1914117E+03  0.7818608E-02  0.1157443E+00
         21   -1    0    0  501  502  0.00000000000E+00  0.00000000000E+00  0.98983871349E+03  0.98983871349E+03  0.00000000000E+00 0.  1.
         21   -1    0    0  502  503 -0.00000000000E+00 -0.00000000000E+00 -0.36805565442E+02  0.36805565442E+02  0.00000000000E+00 0. -1.
         -6    2    1    2    0  503  0.77555501839E+02 -0.26473770579E+02  0.48427467687E+03  0.52073064850E+03  0.17298187545E+03 0.  0.
        -24    2    3    3    0    0 -0.24431137701E+02 -0.17960578950E+01  0.15981022605E+03  0.17968881236E+03  0.78413357441E+02 0.  0.
          6    2    1    2  501    0 -0.77555501839E+02  0.26473770579E+02  0.46875847118E+03  0.50591363043E+03  0.17175092653E+03 0.  0.
         24    2    5    5    0    0 -0.10302473766E+03  0.51072958512E+02  0.43553492487E+03  0.45713150205E+03  0.77820278344E+02 0.  0.
          5    1    5    5  501    0  0.25469235825E+02 -0.24599187934E+02  0.33223546308E+02  0.48782128385E+02  0.47000000000E+01 0. -1.
        -11    1    6    6    0    0 -0.81924282869E+02  0.16942846811E+01  0.30886374748E+03  0.31954854597E+03  0.00000000000E+00 0.  1.
         12    1    6    6    0    0 -0.21100454796E+02  0.49378673831E+02  0.12667117739E+03  0.13758295608E+03  0.00000000000E+00 0. -1.
         -5    1    3    3    0  503  0.10198663954E+03 -0.24677712684E+02  0.32446445083E+03  0.34104183614E+03  0.47000000000E+01 0.  1.
         11    1    4    4    0    0  0.14172366374E+02 -0.29650709809E+02  0.83663524499E+02  0.89886627995E+02  0.00000000000E+00 0. -1.
        -12    1    4    4    0    0 -0.38603504075E+02  0.27854651914E+02  0.76146701547E+02  0.89802184365E+02  0.00000000000E+00 0.  1.
</event>
<event>
12    1  0.1627564E-001  0.2061913E+03  0.7818608E-02  0.1144909E+00
         21   -1    0    0  501  502  0.00000000000E+00  0.00000000000E+00  0.74209470855E+02  0.74209470855E+02  0.00000000000E+00 0.  1.
         21   -1    0    0  502  503 -0.00000000000E+00 -0.00000000000E+00 -0.58909725118E+03  0.58909725118E+03  0.00000000000E+00 0.  1.
         -6    2    1    2    0  503  0.23543163236E+02  0.10893036185E+03 -0.31965014356E+03  0.38038280655E+03  0.17347841644E+03 0.  0.
        -24    2    3    3    0    0  0.77255746262E+02  0.40211029585E+02 -0.18525916114E+03  0.22010051071E+03  0.80857286618E+02 0.  0.
          6    2    1    2  501    0 -0.23543163236E+02 -0.10893036185E+03 -0.19523763677E+03  0.28292391549E+03  0.17177922714E+03 0.  0.
         24    2    5    5    0    0 -0.79633869115E+02 -0.55817532433E+02 -0.14127291432E+03  0.18857657210E+03  0.78396027889E+02 0.  0.
          5    1    5    5  501    0  0.56090705878E+02 -0.53112829419E+02 -0.53964722443E+02  0.94347343382E+02  0.47000000000E+01 0. -1.
        -11    1    6    6    0    0 -0.37780784195E+02 -0.34288737224E+01 -0.71191326139E+01  0.38598275591E+02  0.00000000000E+00 0.  1.
         12    1    6    6    0    0 -0.41853084920E+02 -0.52388658710E+02 -0.13415378171E+03  0.14997829651E+03  0.00000000000E+00 0. -1.
         -5    1    3    3    0  503 -0.53712583026E+02  0.68719332267E+02 -0.13439098242E+03  0.16028229584E+03  0.47000000000E+01 0.  1.
         13    1    4    4    0    0  0.53098418471E+01  0.46044081641E+02 -0.64791095280E+02  0.79662650610E+02  0.00000000000E+00 0. -1.
        -14    1    4    4    0    0  0.71945904415E+02 -0.58330520561E+01 -0.12046806586E+03  0.14043786010E+03  0.00000000000E+00 0.  1.
</event>
<event>
12    1  0.1627564E-001  0.2511708E+03  0.7818608E-02  0.1112903E+00
         21   -1    0    0  503  502  0.00000000000E+00  0.00000000000E+00  0.32702508357E+04  0.32702508357E+04  0.00000000000E+00 0. -1.
         21   -1    0    0  501  503 -0.00000000000E+00 -0.00000000000E+00 -0.19463378859E+02  0.19463378859E+02  0.00000000000E+00 0.  1.
          6    2    1    2  501    0  0.70129505054E+02  0.16675033738E+03  0.18482101514E+04  0.18651990539E+04  0.17424960363E+03 0.  0.
         24    2    3    3    0    0  0.71780121820E+02  0.19231624089E+03  0.13964624896E+04  0.14127011203E+04  0.58983455484E+02 0.  0.
         -6    2    1    2    0  502 -0.70129505054E+02 -0.16675033738E+03  0.14025773055E+04  0.14245151607E+04  0.17116227028E+03 0.  0.
        -24    2    5    5    0    0 -0.22885945093E+02 -0.15050875495E+03  0.12926582298E+04  0.13036845513E+04  0.73833993574E+02 0.  0.
          5    1    3    3  501    0 -0.16506167659E+01 -0.25565903517E+02  0.45174766183E+03  0.45249793362E+03  0.47000000000E+01 0. -1.
        -11    1    4    4    0    0  0.77896900105E+02  0.16559222386E+03  0.12823439177E+04  0.12953357228E+04  0.00000000000E+00 0.  1.
         12    1    4    4    0    0 -0.61167782857E+01  0.26724017036E+02  0.11411857193E+03  0.11736539746E+03  0.00000000000E+00 0. -1.
         -5    1    5    5    0  502 -0.47243559960E+02 -0.16241582423E+02  0.10991907570E+03  0.12083060937E+03  0.47000000000E+01 0.  1.
         13    1    6    6    0    0 -0.39979750551E+02 -0.12999321875E+03  0.91130647633E+03  0.92139899673E+03  0.00000000000E+00 0. -1.
        -14    1    6    6    0    0  0.17093805457E+02 -0.20515536207E+02  0.38135175342E+03  0.38228555459E+03  0.00000000000E+00 0.  1.
</event>
<event>
12    1  0.1627564E-001  0.1820846E+03  0.7818608E-02  0.1166281E+00
         21   -1    0    0  501  502  0.00000000000E+00  0.00000000000E+00  0.91706497742E+03  0.91706497742E+03  0.00000000000E+00 0.  1.
         21   -1    0    0  502  503 -0.00000000000E+00 -0.00000000000E+00 -0.38536933929E+02  0.38536933929E+02  0.00000000000E+00 0. -1.
         -6    2    1    2    0  503 -0.12090925367E+02 -0.50113113611E+02  0.31317939791E+03  0.36226526517E+03  0.17463468282E+03 0.  0.
        -24    2    3    3    0    0 -0.65014885035E+00  0.39525657794E+02  0.12407858758E+03  0.15262937327E+03  0.79608601118E+02 0.  0.
          6    2    1    2  501    0  0.12090925367E+02  0.50113113611E+02  0.56534864559E+03  0.59333664618E+03  0.17254497965E+03 0.  0.
         24    2    5    5    0    0  0.51051314899E+02  0.69115639618E+02  0.50794523915E+03  0.52125163374E+03  0.79446153558E+02 0.  0.
          5    1    5    5  501    0 -0.38960389531E+02 -0.19002526007E+02  0.57403406439E+02  0.72085012436E+02  0.47000000000E+01 0. -1.
        -13    1    6    6    0    0 -0.34805537934E+01  0.56718210261E+02  0.18604369989E+03  0.19452847581E+03  0.00000000000E+00 0.  1.
         14    1    6    6    0    0  0.54531868692E+02  0.12397429357E+02  0.32190153925E+03  0.32672315794E+03  0.00000000000E+00 0. -1.
         -5    1    3    3    0  503 -0.11440776517E+02 -0.89638771405E+02  0.18910081032E+03  0.20963589190E+03  0.47000000000E+01 0.  1.
         11    1    4    4    0    0  0.33339701599E+02  0.23460287489E+02  0.27997450810E+02  0.49454808094E+02  0.00000000000E+00 0. -1.
        -12    1    4    4    0    0 -0.33989850449E+02  0.16065370305E+02  0.96081136772E+02  0.10317456518E+03  0.00000000000E+00 0.  1.
</event>
<event>
12    1  0.1627564E-001  0.1944672E+03  0.7818608E-02  0.1156233E+00
         21   -1    0    0  501  502  0.00000000000E+00  0.00000000000E+00  0.15348585447E+04  0.15348585447E+04  0.00000000000E+00 0.  1.
         21   -1    0    0  502  503 -0.00000000000E+00 -0.00000000000E+00 -0.27623999989E+02  0.27623999989E+02  0.00000000000E+00 0.  1.
         -6    2    1    2    0  503 -0.28167731214E+02 -0.65740274582E+02  0.47101519032E+03  0.50958100555E+03  0.18083773644E+03 0.  0.
        -24    2    3    3    0    0 -0.45428449207E+02  0.45693580992E+01  0.12319932610E+03  0.15427924333E+03  0.80866482178E+02 0.  0.
          6    2    1    2  501    0  0.28167731214E+02  0.65740274582E+02  0.10362193544E+04  0.10529015392E+04  0.17244099259E+03 0.  0.
         24    2    5    5    0    0 -0.48359659425E+02  0.50779295188E+02  0.52869244716E+03  0.53939796176E+03  0.80729573165E+02 0.  0.
          5    1    5    5  501    0  0.76527390639E+02  0.14960979394E+02  0.50752690728E+03  0.51350357743E+03  0.47000000000E+01 0. -1.
        -11    1    6    6    0    0  0.38107320674E+01  0.18674115370E+02  0.34959392793E+03  0.35011306561E+03  0.00000000000E+00 0.  1.
         12    1    6    6    0    0 -0.52170391493E+02  0.32105179818E+02  0.17909851923E+03  0.18928489615E+03  0.00000000000E+00 0. -1.
         -5    1    3    3    0  503  0.17260717993E+02 -0.70309632681E+02  0.34781586422E+03  0.35530176222E+03  0.47000000000E+01 0.  1.
         13    1    4    4    0    0 -0.10661324203E+02  0.37649516900E+02  0.82676317441E+02  0.91468701872E+02  0.00000000000E+00 0. -1.
        -14    1    4    4    0    0 -0.34767125004E+02 -0.33080158801E+02  0.40523008659E+02  0.62810541457E+02  0.00000000000E+00 0.  1.
</event>
<event>
12    1  0.1627564E-001  0.1936886E+03  0.7818608E-02  0.1157519E+00
         21   -1    0    0  503  502  0.00000000000E+00  0.00000000000E+00  0.47147789601E+03  0.47147789601E+03  0.00000000000E+00 0. -1.
         21   -1    0    0  501  503 -0.00000000000E+00 -0.00000000000E+00 -0.16281830426E+03  0.16281830426E+03  0.00000000000E+00 0.  1.
          6    2    1    2  501    0 -0.37915571369E+02  0.53518527518E+02 -0.76087411694E+02  0.20809746694E+03  0.18224554367E+03 0.  0.
         24    2    3    3    0    0  0.37544597760E+02  0.15995311672E+02 -0.86278776177E+02  0.12307874687E+03  0.77710384733E+02 0.  0.
         -6    2    1    2    0  502  0.37915571369E+02 -0.53518527518E+02  0.38474700344E+03  0.42619873333E+03  0.17121121544E+03 0.  0.
        -24    2    5    5    0    0 -0.10489529016E+02  0.10117926205E+02  0.29568491467E+03  0.30642061495E+03  0.79067198330E+02 0.  0.
          5    1    3    3  501    0 -0.75460169129E+02  0.37523215846E+02  0.10191364484E+02  0.85018720070E+02  0.47000000000E+01 0. -1.
        -11    1    4    4    0    0  0.24040485456E+02 -0.30708863101E+02 -0.42082681818E+02  0.57375354665E+02  0.00000000000E+00 0.  1.
         12    1    4    4    0    0  0.13504112304E+02  0.46704174772E+02 -0.44196094359E+02  0.65703392203E+02  0.00000000000E+00 0. -1.
         -5    1    5    5    0  502  0.48405100385E+02 -0.63636453723E+02  0.89062088769E+02  0.11977811838E+03  0.47000000000E+01 0.  1.
         13    1    6    6    0    0  0.32273160813E+02 -0.60593277689E+01  0.15687871716E+03  0.16027852089E+03  0.00000000000E+00 0. -1.
        -14    1    6    6    0    0 -0.42762689828E+02  0.16177253974E+02  0.13880619751E+03  0.14614209406E+03  0.00000000000E+00 0.  1.
</event>
<event>
12    1  0.1627564E-001  0.1858095E+03  0.7818608E-02  0.1163163E+00
         21   -1    0    0  503  502  0.00000000000E+00  0.00000000000E+00  0.26087998352E+03  0.26087998352E+03  0.00000000000E+00 0.  1.
         21   -1    0    0  501  503 -0.00000000000E+00 -0.00000000000E+00 -0.16677371981E+03  0.16677371981E+03  0.00000000000E+00 0. -1.
          6    2    1    2  501    0 -0.21130107517E+02  0.62574174833E+02 -0.53361224773E+02  0.19331989499E+03  0.17367542339E+03 0.  0.
         24    2    3    3    0    0  0.44068729492E+02 -0.22529349727E+02 -0.36308246818E+01  0.75046056241E+02  0.56294787958E+02 0.  0.
         -6    2    1    2    0  502  0.21130107517E+02 -0.62574174833E+02  0.14746748847E+03  0.23433380834E+03  0.16971642458E+03 0.  0.
        -24    2    5    5    0    0 -0.38321574070E+02 -0.56730193533E+02  0.43360716083E+02  0.11421318305E+03  0.80483797040E+02 0.  0.
          5    1    3    3  501    0 -0.65198837009E+02  0.85103524560E+02 -0.49730400091E+02  0.11827383875E+03  0.47000000000E+01 0. -1.
        -13    1    4    4    0    0  0.44249920159E+01  0.37999132514E+01  0.20763843786E+02  0.21567501103E+02  0.00000000000E+00 0.  1.
         14    1    4    4    0    0  0.39643737477E+02 -0.26329262978E+02 -0.24394668467E+02  0.53478555138E+02  0.00000000000E+00 0. -1.
         -5    1    5    5    0  502  0.59451681587E+02 -0.58439813006E+01  0.10410677239E+03  0.12012062529E+03  0.47000000000E+01 0.  1.
         13    1    6    6    0    0 -0.33791524946E+02 -0.69586422373E+02  0.56098299255E+02  0.95557085117E+02  0.00000000000E+00 0. -1.
        -14    1    6    6    0    0 -0.45300491246E+01  0.12856228840E+02 -0.12737583172E+02  0.18656097934E+02  0.00000000000E+00 0.  1.
</event>
<event>
12    1  0.1627564E-001  0.1918897E+03  0.7818608E-02  0.1160361E+00
         21   -1    0    0  501  502  0.00000000000E+00  0.00000000000E+00  0.57640700364E+02  0.57640700364E+02  0.00000000000E+00 0. -1.
         21   -1    0    0  502  503 -0.00000000000E+00 -0.00000000000E+00 -0.59348472567E+03  0.59348472567E+03  0.00000000000E+00 0. -1.
         -6    2    1    2    0  503  0.18979091752E+02 -0.22855430935E+02 -0.28669596063E+03  0.33664741244E+03  0.17393771821E+03 0.  0.
        -24    2    3    3    0    0  0.17556282961E+02 -0.52460070599E+02 -0.29051748684E+03  0.30639591434E+03  0.80110948637E+02 0.  0.
          6    2    1    2  501    0 -0.18979091752E+02  0.22855430935E+02 -0.24914806468E+03  0.31447801360E+03  0.18957606984E+03 0.  0.
         24    2    5    5    0    0 -0.74244595418E+02 -0.19955506160E+02 -0.20037877470E+03  0.22911065522E+03  0.80184517284E+02 0.  0.
          5    1    5    5  501    0  0.55265503665E+02  0.42810937095E+02 -0.48769289978E+02  0.85367358371E+02  0.47000000000E+01 0. -1.
        -11    1    6    6    0    0 -0.85342410654E+02 -0.74051447915E+01 -0.19228766283E+03  0.21050583959E+03  0.00000000000E+00 0.  1.
         12    1    6    6    0    0  0.11097815236E+02 -0.12550361369E+02 -0.80911118743E+01  0.18604815636E+02  0.00000000000E+00 0. -1.
         -5    1    3    3    0  503  0.14228087911E+01  0.29604639664E+02  0.38215262060E+01  0.30251498095E+02  0.47000000000E+01 0.  1.
         11    1    4    4    0    0 -0.20380215976E+02 -0.54402027059E+02 -0.15068920578E+03  0.16149975384E+03  0.00000000000E+00 0. -1.
        -12    1    4    4    0    0  0.37936498938E+02  0.19419564604E+01 -0.13982828106E+03  0.14489616051E+03  0.00000000000E+00 0.  1.
</event>
<event>
12    1  0.1627564E-001  0.2256854E+03  0.7818608E-02  0.1130276E+00
         21   -1    0    0  501  502  0.00000000000E+00  0.00000000000E+00  0.68295706944E+03  0.68295706944E+03  0.00000000000E+00 0.  1.
         21   -1    0    0  502  503 -0.00000000000E+00 -0.00000000000E+00 -0.10108077430E+03  0.10108077430E+03  0.00000000000E+00 0.  1.
         -6    2    1    2    0  503  0.99182116738E+02 -0.10110256650E+03  0.84929091594E+02  0.23824445789E+03  0.17172259573E+03 0.  0.
        -24    2    3    3    0    0 -0.12656724854E+02 -0.23868249642E+02  0.43488729462E+02  0.96073927178E+02  0.81296026152E+02 0.  0.
          6    2    1    2  501    0 -0.99182116738E+02  0.10110256650E+03  0.49694720355E+03  0.54579338585E+03  0.17571304926E+03 0.  0.
         24    2    5    5    0    0 -0.11040328549E+03  0.82257684371E+02  0.24093512574E+03  0.28880054899E+03  0.80005063562E+02 0.  0.
          5    1    5    5  501    0  0.11221168752E+02  0.18844882132E+02  0.25601207781E+03  0.25699283686E+03  0.47000000000E+01 0. -1.
        -11    1    6    6    0    0 -0.38726209332E+02  0.43671523554E+02  0.17362359264E+03  0.18317225003E+03  0.00000000000E+00 0.  1.
         12    1    6    6    0    0 -0.71677076158E+02  0.38586160817E+02  0.67311533100E+02  0.10562829896E+03  0.00000000000E+00 0. -1.
         -5    1    3    3    0  503  0.11183884159E+03 -0.77234316861E+02  0.41440362132E+02  0.14217053071E+03  0.47000000000E+01 0.  1.
         13    1    4    4    0    0 -0.40689502369E+02 -0.17870549655E+01  0.12075918738E+01  0.40746624973E+02  0.00000000000E+00 0. -1.
        -14    1    4    4    0    0  0.28032777515E+02 -0.22081194676E+02  0.42281137588E+02  0.55327302205E+02  0.00000000000E+00 0.  1.
</event>
<event>
12    1  0.1627564E-001  0.2126822E+03  0.7818608E-02  0.1141029E+00
         21   -1    0    0  501  502  0.00000000000E+00  0.00000000000E+00  0.98656688076E+03  0.98656688076E+03  0.00000000000E+00 0. -1.
         21   -1    0    0  502  503 -0.00000000000E+00 -0.00000000000E+00 -0.61858073555E+02  0.61858073555E+02  0.00000000000E+00 0. -1.
         -6    2    1    2    0  503 -0.98146621931E+01  0.11051874654E+03  0.18826264909E+03  0.28403619492E+03  0.18144700067E+03 0.  0.
        -24    2    3    3    0    0 -0.18701647302E+02  0.20282825458E+02  0.96838623598E+01  0.83701542333E+02  0.78428479383E+02 0.  0.
          6    2    1    2  501    0  0.98146621931E+01 -0.11051874654E+03  0.73644615812E+03  0.76438875939E+03  0.17212353340E+03 0.  0.
         24    2    5    5    0    0 -0.50250520162E+02 -0.10536604318E+03  0.46353950016E+03  0.48486324993E+03  0.81218132780E+02 0.  0.
          5    1    5    5  501    0  0.60065182355E+02 -0.51527033671E+01  0.27290665796E+03  0.27952550947E+03  0.47000000000E+01 0. -1.
        -13    1    6    6    0    0  0.16609028117E+02 -0.24540865336E+02  0.49045276437E+02  0.57302295130E+02  0.00000000000E+00 0.  1.
         14    1    6    6    0    0 -0.66859548279E+02 -0.80825177842E+02  0.41449422372E+03  0.42756095480E+03  0.00000000000E+00 0. -1.
         -5    1    3    3    0  503  0.88869851094E+01  0.90235921086E+02  0.17857878673E+03  0.20033465259E+03  0.47000000000E+01 0.  1.
         13    1    4    4    0    0  0.15313267142E+02 -0.19888826548E+02 -0.10657388988E+02  0.27269791199E+02  0.00000000000E+00 0. -1.
        -14    1    4    4    0    0 -0.34014914445E+02  0.40171652006E+02  0.20341251347E+02  0.56431751133E+02  0.00000000000E+00 0.  1.
</event>
<event>
12    1  0.1627564E-001  0.2059400E+03  0.7818608E-02  0.1145162E+00
         21   -1    0    0  501  502  0.00000000000E+00  0.00000000000E+00  0.11012524887E+04  0.11012524887E+04  0.00000000000E+00 0. -1.
         21   -1    0    0  502  503 -0.00000000000E+00 -0.00000000000E+00 -0.39967359046E+02  0.39967359046E+02  0.00000000000E+00 0.  1.
         -6    2    1    2    0  503 -0.53152389684E+02  0.97981397593E+02  0.41273298480E+03  0.46125894535E+03  0.17316398910E+03 0.  0.
        -24    2    3    3    0    0 -0.25313341724E+02  0.12085016794E+03  0.22746276957E+03  0.27245975070E+03  0.85143853873E+02 0.  0.
          6    2    1    2  501    0  0.53152389684E+02 -0.97981397593E+02  0.64855214485E+03  0.67996090239E+03  0.17117655618E+03 0.  0.
         24    2    5    5    0    0  0.78249755149E+02 -0.52972715146E+02  0.58506093530E+03  0.59805313146E+03  0.80262801489E+02 0.  0.
          5    1    5    5  501    0 -0.25097365466E+02 -0.45008682447E+02  0.63491209553E+02  0.81907770934E+02  0.47000000000E+01 0. -1.
        -13    1    6    6    0    0 -0.66821050217E+00  0.11008557949E+02  0.13032685954E+02  0.17072953950E+02  0.00000000000E+00 0.  1.
         14    1    6    6    0    0  0.78917965652E+02 -0.63981273094E+02  0.57202824934E+03  0.58098017751E+03  0.00000000000E+00 0. -1.
         -5    1    3    3    0  503 -0.27839047960E+02 -0.22868770348E+02  0.18527021523E+03  0.18879919465E+03  0.47000000000E+01 0.  1.
         11    1    4    4    0    0  0.26282013048E+02  0.33096415839E+02  0.10516057337E+03  0.11333518051E+03  0.00000000000E+00 0. -1.
        -12    1    4    4    0    0 -0.51595354771E+02  0.87753752102E+02  0.12230219620E+03  0.15912457019E+03  0.00000000000E+00 0.  1.
</event>
<event>
12    1  0.1627564E-001  0.2191483E+03  0.7818608E-02  0.1134626E+00
         21   -1    0    0  501  502  0.00000000000E+00  0.00000000000E+00  0.81919154133E+03  0.81919154133E+03  0.00000000000E+00 0. -1.
         21   -1    0    0  502  503 -0.00000000000E+00 -0.00000000000E+00 -0.73458999952E+02  0.73458999952E+02  0.00000000000E+00 0. -1.
         -6    2    1    2    0  503  0.55464721185E+02  0.12416875506E+03  0.17166667877E+03  0.27837996991E+03  0.17184802594E+03 0.  0.
        -24    2    3    3    0    0 -0.14001844911E+01 -0.19845491589E+01  0.51795841996E+02  0.95242368170E+02  0.79889927367E+02 0.  0.
          6    2    1    2  501    0 -0.55464721185E+02 -0.12416875506E+03  0.57406586261E+03  0.61427057137E+03  0.17112131721E+03 0.  0.
         24    2    5    5    0    0 -0.96588477035E+02 -0.10973398486E+03  0.51321186459E+03  0.53927173831E+03  0.77824857502E+02 0.  0.
          5    1    5    5  501    0  0.41123755850E+02 -0.14434770203E+02  0.60853998016E+02  0.74998833061E+02  0.47000000000E+01 0. -1.
        -13    1    6    6    0    0 -0.80580860177E+02 -0.11760708473E+03  0.39964146064E+03  0.42430884797E+03  0.00000000000E+00 0.  1.
         14    1    6    6    0    0 -0.16007616858E+02  0.78730998722E+01  0.11357040395E+03  0.11496289033E+03  0.00000000000E+00 0. -1.
         -5    1    3    3    0  503  0.56864905676E+02  0.12615330422E+03  0.11987083677E+03  0.18313760174E+03  0.47000000000E+01 0.  1.
         11    1    4    4    0    0 -0.19396516566E+02  0.33471840074E+02  0.34673472165E+02  0.51950347494E+02  0.00000000000E+00 0. -1.
        -12    1    4    4    0    0  0.17996332075E+02 -0.35456389233E+02  0.17122369831E+02  0.43292020676E+02  0.00000000000E+00 0.  1.
</event>
<event>
12    1  0.1627564E-001  0.2579391E+03  0.7818608E-02  0.1108780E+00
         21   -1    0    0  503  502  0.00000000000E+00  0.00000000000E+00  0.87958236718E+02  0.87958236718E+02  0.00000000000E+00 0. -1.
         21   -1    0    0  501  503 -0.00000000000E+00 -0.00000000000E+00 -0.78432034105E+03  0.78432034105E+03  0.00000000000E+00 0. -1.
          6    2    1    2  501    0 -0.89915774350E+02 -0.16653065951E+03 -0.43920168236E+03  0.50804781372E+03  0.17145598912E+03 0.  0.
         24    2    3    3    0    0 -0.51773471162E+02 -0.16530634771E+03 -0.24602371380E+03  0.31108042614E+03  0.78972671650E+02 0.  0.
         -6    2    1    2    0  502  0.89915774350E+02  0.16653065951E+03 -0.25716042197E+03  0.36423076405E+03  0.17525769546E+03 0.  0.
        -24    2    5    5    0    0  0.34916450573E+02  0.14005337005E+03 -0.94505475437E+02  0.19043578683E+03  0.80625052163E+02 0.  0.
          5    1    3    3  501    0 -0.38142303188E+02 -0.12243117984E+01 -0.19317796856E+03  0.19696738758E+03  0.47000000000E+01 0. -1.
        -11    1    4    4    0    0  0.82381176257E+01 -0.92899819900E+02 -0.15033452217E+03  0.17691441907E+03  0.00000000000E+00 0.  1.
         12    1    4    4    0    0 -0.60011588788E+02 -0.72406527811E+02 -0.95689191628E+02  0.13416600707E+03  0.00000000000E+00 0. -1.
         -5    1    5    5    0  502  0.54999323777E+02  0.26477289461E+02 -0.16265494654E+03  0.17379497722E+03  0.47000000000E+01 0.  1.
         11    1    6    6    0    0  0.12909342185E+02 -0.75943463895E+01 -0.15441268672E+02  0.21511810499E+02  0.00000000000E+00 0. -1.
        -12    1    6    6    0    0  0.22007108387E+02  0.14764771644E+03 -0.79064206764E+02  0.16892397633E+03  0.00000000000E+00 0.  1.
</event>
<event>
12    1  0.1627564E-001  0.2205266E+03  0.7818608E-02  0.1134170E+00
         21   -1    0    0  501  502  0.00000000000E+00  0.00000000000E+00  0.15140840199E+04  0.15140840199E+04  0.00000000000E+00 0. -1.
         21   -1    0    0  502  503 -0.00000000000E+00 -0.00000000000E+00 -0.33529625919E+02  0.33529625919E+02  0.00000000000E+00 0. -1.
         -6    2    1    2    0  503 -0.11641241053E+03  0.62638434330E+02  0.54861839689E+03  0.58994111751E+03  0.17196788637E+03 0.  0.
        -24    2    3    3    0    0 -0.11494487108E+03  0.57257102911E+02  0.55785910148E+03  0.57816856378E+03  0.81125901010E+02 0.  0.
          6    2    1    2  501    0  0.11641241053E+03 -0.62638434330E+02  0.93193599709E+03  0.95767252830E+03  0.17651216961E+03 0.  0.
         24    2    5    5    0    0  0.57943824735E+01 -0.24858545871E+02  0.58950366738E+03  0.59580838455E+03  0.82592584892E+02 0.  0.
          5    1    5    5  501    0  0.11061802806E+03 -0.37779888459E+02  0.34243232971E+03  0.36186414375E+03  0.47000000000E+01 0. -1.
        -11    1    6    6    0    0 -0.31404545391E+02 -0.19125189458E+01  0.11281280291E+03  0.11711802466E+03  0.00000000000E+00 0.  1.
         12    1    6    6    0    0  0.37198927865E+02 -0.22946026925E+02  0.47669086447E+03  0.47869035989E+03  0.00000000000E+00 0. -1.
         -5    1    3    3    0  503 -0.14675394542E+01  0.53813314190E+01 -0.92407045950E+01  0.11772553729E+02  0.47000000000E+01 0.  1.
         11    1    4    4    0    0 -0.56981660920E+02 -0.15079269231E+02  0.20065560478E+03  0.20913384655E+03  0.00000000000E+00 0. -1.
        -12    1    4    4    0    0 -0.57963210158E+02  0.72336372142E+02  0.35720349670E+03  0.36903471723E+03  0.00000000000E+00 0.  1.
</event>
<event>
12    1  0.1627564E-001  0.2584199E+03  0.7818608E-02  0.1108171E+00
         21   -1    0    0  503  502  0.00000000000E+00  0.00000000000E+00  0.12714928617E+03  0.12714928617E+03  0.00000000000E+00 0.  1.
         21   -1    0    0  501  503 -0.00000000000E+00 -0.00000000000E+00 -0.86288641771E+03  0.86288641771E+03  0.00000000000E+00 0. -1.
          6    2    1    2  501    0 -0.17243731358E+01  0.19207754744E+03 -0.67820784359E+03  0.72577319105E+03  0.17287014793E+03 0.  0.
         24    2    3    3    0    0 -0.54804925397E+01  0.20569513210E+03 -0.67547978010E+03  0.71063782270E+03  0.79954102849E+02 0.  0.
         -6    2    1    2    0  502  0.17243731358E+01 -0.19207754744E+03 -0.57529287955E+02  0.26426251283E+03  0.17212872804E+03 0.  0.
        -24    2    5    5    0    0 -0.31735622596E+02 -0.29318556150E+02 -0.37241322752E+02  0.96799824166E+02  0.78208454542E+02 0.  0.
          5    1    3    3  501    0  0.37561194038E+01 -0.13617584652E+02 -0.27280634907E+01  0.15135368351E+02  0.47000000000E+01 0. -1.
        -13    1    4    4    0    0 -0.14404241728E+02  0.89252424651E+02 -0.17811166187E+03  0.19974293875E+03  0.00000000000E+00 0.  1.
         14    1    4    4    0    0  0.89237491886E+01  0.11644270744E+03 -0.49736811823E+03  0.51089488395E+03  0.00000000000E+00 0. -1.
         -5    1    5    5    0  502  0.33459995732E+02 -0.16275899129E+03 -0.20287965204E+02  0.16746268866E+03  0.47000000000E+01 0.  1.
         13    1    6    6    0    0 -0.52840882991E+02 -0.24301453572E+02 -0.45234252487E+02  0.73680778762E+02  0.00000000000E+00 0. -1.
        -14    1    6    6    0    0  0.21105260395E+02 -0.50171025786E+01  0.79929297355E+01  0.23119045403E+02  0.00000000000E+00 0.  1.
</event>
<event>
12    1  0.1627564E-001  0.1730619E+03  0.7818608E-02  0.1175132E+00
         21   -1    0    0  501  502  0.00000000000E+00  0.00000000000E+00  0.64852388368E+03  0.64852388368E+03  0.00000000000E+00 0. -1.
         21   -1    0    0  502  503 -0.00000000000E+00 -0.00000000000E+00 -0.12793446433E+03  0.12793446433E+03  0.00000000000E+00 0. -1.
         -6    2    1    2    0  503 -0.75581306991E+01  0.26446804588E+02 -0.51379438145E+02  0.17888091097E+03  0.16912118387E+03 0.  0.
        -24    2    3    3    0    0  0.46124034878E+01 -0.47505644618E+02 -0.96079812866E+01  0.92950524880E+02  0.79179708477E+02 0.  0.
          6    2    1    2  501    0  0.75581306991E+01 -0.26446804588E+02  0.57196885749E+03  0.59757743704E+03  0.17086210963E+03 0.  0.
         24    2    5    5    0    0 -0.43455713642E+02 -0.56465491210E+02  0.44307665415E+03  0.45566611281E+03  0.78980593638E+02 0.  0.
          5    1    5    5  501    0  0.51013844341E+02  0.30018686622E+02  0.12889220335E+03  0.14191132423E+03  0.47000000000E+01 0. -1.
        -11    1    6    6    0    0 -0.11799556272E+02  0.19099885263E+02  0.13636323449E+03  0.13819901181E+03  0.00000000000E+00 0.  1.
         12    1    6    6    0    0 -0.31656157370E+02 -0.75565376473E+02  0.30671341966E+03  0.31746710100E+03  0.00000000000E+00 0. -1.
         -5    1    3    3    0  503 -0.12170534187E+02  0.73952449207E+02 -0.41771456858E+02  0.85930386093E+02  0.47000000000E+01 0.  1.
         13    1    4    4    0    0 -0.27412904948E+02 -0.31950646993E+02 -0.30209798446E+02  0.51816436805E+02  0.00000000000E+00 0. -1.
        -14    1    4    4    0    0  0.32025308436E+02 -0.15554997625E+02  0.20601817160E+02  0.41134088076E+02  0.00000000000E+00 0.  1.
</event>
<event>
12    1  0.1627564E-001  0.2225815E+03  0.7818608E-02  0.1132021E+00
         21   -1    0    0  501  502  0.00000000000E+00  0.00000000000E+00  0.37936828440E+03  0.37936828440E+03  0.00000000000E+00 0.  1.
         21   -1    0    0  502  503 -0.00000000000E+00 -0.00000000000E+00 -0.13967389980E+03  0.13967389980E+03  0.00000000000E+00 0.  1.
         -6    2    1    2    0  503 -0.13633953471E+03  0.29285818437E+02  0.18651797330E+03  0.29019674700E+03  0.17314464969E+03 0.  0.
        -24    2    3    3    0    0 -0.77084271441E+02  0.54737554414E+00  0.19517301707E+03  0.22360782819E+03  0.77237747982E+02 0.  0.
          6    2    1    2  501    0  0.13633953471E+03 -0.29285818437E+02  0.53176411297E+02  0.22884543720E+03  0.17348306984E+03 0.  0.
         24    2    5    5    0    0  0.13272837715E+02  0.22078328881E+02  0.44444272664E+02  0.95121737789E+02  0.80057671714E+02 0.  0.
          5    1    5    5  501    0  0.12306669700E+03 -0.51364147318E+02  0.87321386327E+01  0.13372369941E+03  0.47000000000E+01 0. -1.
        -13    1    6    6    0    0  0.21492959278E+02 -0.25976476140E+02  0.27500031984E+02  0.43508348283E+02  0.00000000000E+00 0.  1.
         14    1    6    6    0    0 -0.82201215626E+01  0.48054805021E+02  0.16944240680E+02  0.51613389506E+02  0.00000000000E+00 0. -1.
         -5    1    3    3    0  503 -0.59255263274E+02  0.28738442893E+02 -0.86550437630E+01  0.66588918809E+02  0.47000000000E+01 0.  1.
         13    1    4    4    0    0 -0.22184445960E+02  0.32326804105E+01  0.15218758248E+03  0.15382997148E+03  0.00000000000E+00 0. -1.
        -14    1    4    4    0    0 -0.54899825481E+02 -0.26853048664E+01  0.42985434586E+02  0.69777856707E+02  0.00000000000E+00 0.  1.
</event>
<event>
12    1  0.1627564E-001  0.2108203E+03  0.7818608E-02  0.1145343E+00
         21   -1    0    0  503  502  0.00000000000E+00  0.00000000000E+00  0.17899294733E+03  0.17899294733E+03  0.00000000000E+00 0.  1.
         21   -1    0    0  501  503 -0.00000000000E+00 -0.00000000000E+00 -0.30387001934E+03  0.30387001934E+03  0.00000000000E+00 0.  1.
          6    2    1    2  501    0  0.34972439164E+02 -0.75155111869E+02 -0.18369914884E+03  0.26399035643E+03  0.17051149129E+03 0.  0.
         24    2    3    3    0    0  0.24428865313E+02 -0.11740473617E+03 -0.14801697402E+03  0.20749694705E+03  0.82251546494E+02 0.  0.
         -6    2    1    2    0  502 -0.34972439164E+02  0.75155111869E+02  0.58822076835E+02  0.21887261024E+03  0.19383967718E+03 0.  0.
        -24    2    5    5    0    0 -0.14183931624E+01  0.83012322892E+02 -0.35588151632E+02  0.11825953452E+03  0.76326557477E+02 0.  0.
          5    1    3    3  501    0  0.10543573851E+02  0.42249624304E+02 -0.35682174821E+02  0.56493409380E+02  0.47000000000E+01 0. -1.
        -13    1    4    4    0    0  0.73613944145E+01 -0.74725624956E+02 -0.14266842734E+03  0.16122155350E+03  0.00000000000E+00 0.  1.
         14    1    4    4    0    0  0.17067470898E+02 -0.42679111217E+02 -0.53485466856E+01  0.46275393556E+02  0.00000000000E+00 0. -1.
         -5    1    5    5    0  502 -0.33554046001E+02 -0.78572110223E+01  0.94410228466E+02  0.10061307573E+03  0.47000000000E+01 0.  1.
         13    1    6    6    0    0 -0.15099594042E+02  0.92534657378E+02 -0.20938652113E+02  0.96068140965E+02  0.00000000000E+00 0. -1.
        -14    1    6    6    0    0  0.13681200879E+02 -0.95223344862E+01 -0.14649499518E+02  0.22191393550E+02  0.00000000000E+00 0.  1.
</event>
<event>
12    1  0.1627564E-001  0.2574050E+03  0.7818608E-02  0.1108737E+00
         21   -1    0    0  501  502  0.00000000000E+00  0.00000000000E+00  0.24945587778E+03  0.24945587778E+03  0.00000000000E+00 0. -1.
         21   -1    0    0  502  503 -0.00000000000E+00 -0.00000000000E+00 -0.27712470948E+03  0.27712470948E+03  0.00000000000E+00 0.  1.
         -6    2    1    2    0  503  0.17763093311E+03 -0.71124300105E+02  0.40222513273E+02  0.26052869785E+03  0.17217995634E+03 0.  0.
        -24    2    3    3    0    0  0.87301473944E+02 -0.10528385896E+03  0.44896189683E+02  0.16372880164E+03  0.78007783772E+02 0.  0.
          6    2    1    2  501    0 -0.17763093311E+03  0.71124300105E+02 -0.67891344977E+02  0.26605188942E+03  0.17193882248E+03 0.  0.
         24    2    5    5    0    0 -0.48027604303E+02  0.29059363019E+02 -0.84992051942E+02  0.12864371663E+03  0.78577729547E+02 0.  0.
          5    1    5    5  501    0 -0.12960332881E+03  0.42064937087E+02  0.17100706964E+02  0.13740817279E+03  0.47000000000E+01 0. -1.
        -13    1    6    6    0    0 -0.35074966104E+02  0.19279567180E+02 -0.99265079502E+02  0.10703042075E+03  0.00000000000E+00 0.  1.
         14    1    6    6    0    0 -0.12952638199E+02  0.97797958385E+01  0.14273027560E+02  0.21613295877E+02  0.00000000000E+00 0. -1.
         -5    1    3    3    0  503  0.90329459166E+02  0.34159558853E+02 -0.46736764104E+01  0.96799896205E+02  0.47000000000E+01 0.  1.
         11    1    4    4    0    0  0.62322233796E+02 -0.89154520848E+02 -0.13060107482E+01  0.10878554627E+03  0.00000000000E+00 0. -1.
        -12    1    4    4    0    0  0.24979240147E+02 -0.16129338111E+02  0.46202200431E+02  0.54943255373E+02  0.00000000000E+00 0.  1.
</event>
<event>
12    1  0.1627564E-001  0.3244021E+03  0.7818608E-02  0.1073916E+00
         21   -1    0    0  501  502  0.00000000000E+00  0.00000000000E+00  0.20319215610E+03  0.20319215610E+03  0.00000000000E+00 0. -1.
         21   -1    0    0  502  503 -0.00000000000E+00 -0.00000000000E+00 -0.67568942012E+03  0.67568942012E+03  0.00000000000E+00 0. -1.
         -6    2    1    2    0  503 -0.16110941765E+03  0.21919084596E+03 -0.45184781306E+03  0.55624020105E+03  0.17673665067E+03 0.  0.
        -24    2    3    3    0    0 -0.11395310654E+03  0.67947800337E+02 -0.30054150195E+03  0.33711953496E+03  0.75645042111E+02 0.  0.
          6    2    1    2  501    0  0.16110941765E+03 -0.21919084596E+03 -0.20649450955E+02  0.32264137518E+03  0.17225035775E+03 0.  0.
         24    2    5    5    0    0  0.49357268958E+02 -0.69721587490E+02 -0.60013147043E+02  0.13185040963E+03  0.80533924164E+02 0.  0.
          5    1    5    5  501    0  0.11175214869E+03 -0.14946925847E+03  0.39363696088E+02  0.19079096554E+03  0.47000000000E+01 0.  1.
        -11    1    6    6    0    0  0.37869208352E+02  0.73180641254E+01 -0.27879603752E+02  0.47591000295E+02  0.00000000000E+00 0.  1.
         12    1    6    6    0    0  0.11488060606E+02 -0.77039651615E+02 -0.32133543292E+02  0.84259409338E+02  0.00000000000E+00 0. -1.
         -5    1    3    3    0  503 -0.47156311111E+02  0.15124304562E+03 -0.15130631111E+03  0.21912066609E+03  0.47000000000E+01 0.  1.
         13    1    4    4    0    0 -0.30923518311E+02  0.56150707566E+02 -0.90041861828E+02  0.11052919445E+03  0.00000000000E+00 0. -1.
        -14    1    4    4    0    0 -0.83029588227E+02  0.11797092770E+02 -0.21049964012E+03  0.22659034051E+03  0.00000000000E+00 0.  1.
</event>
<event>
12    1  0.1627564E-001  0.1831347E+03  0.7818608E-02  0.1164942E+00
         21   -1    0    0  503  502  0.00000000000E+00  0.00000000000E+00  0.20318742276E+03  0.20318742276E+03  0.00000000000E+00 0.  1.
         21   -1    0    0  501  503 -0.00000000000E+00 -0.00000000000E+00 -0.20868407012E+03  0.20868407012E+03  0.00000000000E+00 0.  1.
          6    2    1    2  501    0  0.57080084926E+02  0.12899309345E+02 -0.97473135946E+02  0.20745918769E+03  0.17353320734E+03 0.  0.
         24    2    3    3    0    0  0.90957044826E+02 -0.20016263379E+02 -0.33865218335E+02  0.12809206274E+03  0.81159649588E+02 0.  0.
         -6    2    1    2    0  502 -0.57080084926E+02 -0.12899309345E+02  0.91976488585E+02  0.20441230519E+03  0.17291670765E+03 0.  0.
        -24    2    5    5    0    0  0.19536304118E+02  0.37522788846E+02  0.57667007548E+02  0.10637308067E+03  0.78740851344E+02 0.  0.
          5    1    3    3  501    0 -0.33876959900E+02  0.32915572724E+02 -0.63607917611E+02  0.79367124948E+02  0.47000000000E+01 0. -1.
        -11    1    4    4    0    0  0.22997491426E+02 -0.22681865968E+01 -0.50827358855E+02  0.55834126576E+02  0.00000000000E+00 0.  1.
         12    1    4    4    0    0  0.67959553400E+02 -0.17748076782E+02  0.16962140520E+02  0.72257936165E+02  0.00000000000E+00 0. -1.
         -5    1    5    5    0  502 -0.76616389044E+02 -0.50422098191E+02  0.34309481037E+02  0.98039224523E+02  0.47000000000E+01 0.  1.
         11    1    6    6    0    0  0.44201440279E+02  0.17166723977E+02  0.91941652305E+01  0.48301101531E+02  0.00000000000E+00 0. -1.
        -12    1    6    6    0    0 -0.24665136161E+02  0.20356064869E+02  0.48472842318E+02  0.58071979140E+02  0.00000000000E+00 0.  1.
</event>
<event>
12    1  0.1627564E-001  0.2519967E+03  0.7818608E-02  0.1112110E+00
         21   -1    0    0  501  502  0.00000000000E+00  0.00000000000E+00  0.16399421431E+03  0.16399421431E+03  0.00000000000E+00 0. -1.
         21   -1    0    0  502  503 -0.00000000000E+00 -0.00000000000E+00 -0.41895466814E+03  0.41895466814E+03  0.00000000000E+00 0.  1.
         -6    2    1    2    0  503 -0.13099802909E+03  0.12831270074E+03 -0.46608717838E+02  0.25627081935E+03  0.17285175000E+03 0.  0.
        -24    2    3    3    0    0 -0.77966756910E+02  0.13699168198E+03 -0.79110993743E+02  0.19329361329E+03  0.79109642224E+02 0.  0.
          6    2    1    2  501    0  0.13099802909E+03 -0.12831270074E+03 -0.20835173599E+03  0.32667806309E+03  0.17228893818E+03 0.  0.
         24    2    5    5    0    0  0.23123299217E+02 -0.56032275782E+02 -0.15834654506E+03  0.18745153438E+03  0.79938391989E+02 0.  0.
          5    1    5    5  501    0  0.10787472987E+03 -0.72280424955E+02 -0.50005190928E+02  0.13922652871E+03  0.47000000000E+01 0. -1.
        -11    1    6    6    0    0  0.48941305591E+02 -0.20481731994E+02 -0.62277749565E+02  0.81812412440E+02  0.00000000000E+00 0.  1.
         12    1    6    6    0    0 -0.25818006374E+02 -0.35550543788E+02 -0.96068795498E+02  0.10563912194E+03  0.00000000000E+00 0. -1.
         -5    1    3    3    0  503 -0.53031272179E+02 -0.86789812473E+01  0.32502275904E+02  0.62977206062E+02  0.47000000000E+01 0.  1.
         11    1    4    4    0    0 -0.90918996573E+02  0.91232373220E+02 -0.58433391929E+02  0.14143574921E+03  0.00000000000E+00 0. -1.
        -12    1    4    4    0    0  0.12952239663E+02  0.45759308764E+02 -0.20677601814E+02  0.51857864086E+02  0.00000000000E+00 0.  1.
</event>
<event>
12    1  0.1627564E-001  0.2408745E+03  0.7818608E-02  0.1119549E+00
         21   -1    0    0  503  502  0.00000000000E+00  0.00000000000E+00  0.13670366979E+03  0.13670366979E+03  0.00000000000E+00 0.  1.
         21   -1    0    0  501  503 -0.00000000000E+00 -0.00000000000E+00 -0.63781999556E+03  0.63781999556E+03  0.00000000000E+00 0. -1.
          6    2    1    2  501    0 -0.89663971979E+02 -0.14171525150E+03 -0.47572066788E+03  0.53231408851E+03  0.17007437960E+03 0.  0.
         24    2    3    3    0    0 -0.28681406097E+02 -0.11477852696E+03 -0.18399649417E+03  0.23303237507E+03  0.80328355261E+02 0.  0.
         -6    2    1    2    0  502  0.89663971979E+02  0.14171525150E+03 -0.25395657890E+02  0.24220957683E+03  0.17290951185E+03 0.  0.
        -24    2    5    5    0    0  0.17518426650E+01  0.88341978761E+01  0.24571634710E+01  0.80395527530E+02  0.79851682447E+02 0.  0.
          5    1    3    3  501    0 -0.60982565882E+02 -0.26936724547E+02 -0.29172417371E+03  0.29928171344E+03  0.47000000000E+01 0. -1.
        -13    1    4    4    0    0 -0.26440063614E+02 -0.12187128536E+03 -0.18719911343E+03  0.22493375742E+03  0.00000000000E+00 0.  1.
         14    1    4    4    0    0 -0.22413424833E+01  0.70927583981E+01  0.32026192569E+01  0.80986176552E+01  0.00000000000E+00 0. -1.
         -5    1    5    5    0  502  0.87912129314E+02  0.13288105363E+03 -0.27852821361E+02  0.16181404930E+03  0.47000000000E+01 0.  1.
         11    1    6    6    0    0  0.40040840028E+02 -0.33192255270E+01  0.65288336153E+00  0.40183483982E+02  0.00000000000E+00 0. -1.
        -12    1    6    6    0    0 -0.38288997363E+02  0.12153423403E+02  0.18042801094E+01  0.40212043547E+02  0.00000000000E+00 0.  1.
</event>
<event>
12    1  0.1627564E-001  0.2161954E+03  0.7818608E-02  0.1137084E+00
         21   -1    0    0  501  502  0.00000000000E+00  0.00000000000E+00  0.11418524359E+03  0.11418524359E+03  0.00000000000E+00 0. -1.
         21   -1    0    0  502  503 -0.00000000000E+00 -0.00000000000E+00 -0.48895359734E+03  0.48895359734E+03  0.00000000000E+00 0.  1.
         -6    2    1    2    0  503  0.10483954161E+02 -0.12838211112E+03 -0.31217912847E+03  0.37973182919E+03  0.17363344750E+03 0.  0.
        -24    2    3    3    0    0 -0.89573776505E+01 -0.22494341415E+02 -0.22377001376E+02  0.70543297660E+02  0.62365027412E+02 0.  0.
          6    2    1    2  501    0 -0.10483954161E+02  0.12838211112E+03 -0.62589225276E+02  0.22340701174E+03  0.17146837032E+03 0.  0.
         24    2    5    5    0    0  0.15608854948E+02  0.32937321000E+01 -0.41477697079E+02  0.93808694324E+02  0.82614688475E+02 0.  0.
          5    1    5    5  501    0 -0.26092809109E+02  0.12508837902E+03 -0.21111528197E+02  0.12959831741E+03  0.47000000000E+01 0. -1.
        -13    1    6    6    0    0  0.38560631967E+02  0.25631544168E+01 -0.54954668101E+02  0.67182643922E+02  0.00000000000E+00 0.  1.
         14    1    6    6    0    0 -0.22951777019E+02  0.73057768320E+00  0.13476971022E+02  0.26626050402E+02  0.00000000000E+00 0. -1.
         -5    1    3    3    0  503  0.19441331812E+02 -0.10588776971E+03 -0.28980212710E+03  0.30918853153E+03  0.47000000000E+01 0.  1.
         11    1    4    4    0    0  0.26927463339E+02 -0.92691172020E+01 -0.12100778688E+02  0.30942424929E+02  0.00000000000E+00 0. -1.
        -12    1    4    4    0    0 -0.35884840990E+02 -0.13225224213E+02 -0.10276222688E+02  0.39600872731E+02  0.00000000000E+00 0.  1.
</event>
<event>
12    1  0.1627564E-001  0.2795415E+03  0.7818608E-02  0.1095996E+00
         21   -1    0    0  501  502  0.00000000000E+00  0.00000000000E+00  0.23100553376E+03  0.23100553376E+03  0.00000000000E+00 0. -1.
         21   -1    0    0  502  503 -0.00000000000E+00 -0.00000000000E+00 -0.47572700256E+03  0.47572700256E+03  0.00000000000E+00 0.  1.
         -6    2    1    2    0  503  0.12508129080E+03  0.18312035673E+03 -0.31258134487E+03  0.41907230671E+03  0.16951727563E+03 0.  0.
        -24    2    3    3    0    0  0.24481563220E+02  0.15331800678E+03 -0.18616459526E+03  0.25471972890E+03  0.78224840181E+02 0.  0.
          6    2    1    2  501    0 -0.12508129080E+03 -0.18312035673E+03  0.67859876068E+02  0.28766022960E+03  0.17019121764E+03 0.  0.
         24    2    5    5    0    0 -0.32999886375E+02 -0.16315920104E+03  0.36763341070E+02  0.18832988547E+03  0.80041771153E+02 0.  0.
          5    1    5    5  501    0 -0.92081404424E+02 -0.19961155686E+02  0.31096534998E+02  0.99330344135E+02  0.47000000000E+01 0. -1.
        -11    1    6    6    0    0 -0.21742345830E+02 -0.26611248180E+01 -0.42025117686E+01  0.22304086905E+02  0.00000000000E+00 0.  1.
         12    1    6    6    0    0 -0.11257540545E+02 -0.16049807622E+03  0.40965852839E+02  0.16602579856E+03  0.00000000000E+00 0. -1.
         -5    1    3    3    0  503  0.10059972758E+03  0.29802349943E+02 -0.12641674962E+03  0.16435257782E+03  0.47000000000E+01 0.  1.
         13    1    4    4    0    0  0.42621755553E+02  0.49541688010E+02 -0.48567308572E+02  0.81423438635E+02  0.00000000000E+00 0. -1.
        -14    1    4    4    0    0 -0.18140192333E+02  0.10377631877E+03 -0.13759728668E+03  0.17329629026E+03  0.00000000000E+00 0.  1.
</event>
<event>
12    1  0.1627564E-001  0.1994877E+03  0.7818608E-02  0.1150501E+00
         21   -1    0    0  503  502  0.00000000000E+00  0.00000000000E+00  0.15594055350E+03  0.15594055350E+03  0.00000000000E+00 0.  1.
         21   -1    0    0  501  503 -0.00000000000E+00 -0.00000000000E+00 -0.27670292475E+03  0.27670292475E+03  0.00000000000E+00 0.  1.
          6    2    1    2  501    0  0.97058842616E+02 -0.27167611921E+02 -0.12361712907E+03  0.23468393419E+03  0.17215358347E+03 0.  0.
         24    2    3    3    0    0  0.13467169197E+03 -0.29930848664E+02 -0.84129360890E+02  0.17987758648E+03  0.79030857465E+02 0.  0.
         -6    2    1    2    0  502 -0.97058842616E+02  0.27167611921E+02  0.28547578174E+01  0.19795954405E+03  0.17035648908E+03 0.  0.
        -24    2    5    5    0    0 -0.18569579239E+02  0.65049851847E+02  0.33401553770E+02  0.10548887135E+03  0.73728730394E+02 0.  0.
          5    1    3    3  501    0 -0.37612849358E+02  0.27632367429E+01 -0.39487768178E+02  0.54806347715E+02  0.47000000000E+01 0. -1.
        -13    1    4    4    0    0  0.38728989985E+02  0.26862261312E+02 -0.30655298827E+02  0.56225110887E+02  0.00000000000E+00 0.  1.
         14    1    4    4    0    0  0.95942701989E+02 -0.56793109976E+02 -0.53474062062E+02  0.12365247559E+03  0.00000000000E+00 0. -1.
         -5    1    5    5    0  502 -0.78489263377E+02 -0.37882239927E+02 -0.30546795952E+02  0.92470672704E+02  0.47000000000E+01 0.  1.
         13    1    6    6    0    0  0.82401294571E+01 -0.33129354121E+00 -0.16862678714E+02  0.18771239232E+02  0.00000000000E+00 0. -1.
        -14    1    6    6    0    0 -0.26809708696E+02  0.65381145389E+02  0.50264232484E+02  0.86717632116E+02  0.00000000000E+00 0.  1.
</event>
<event>
12    1  0.1627564E-001  0.2391614E+03  0.7818608E-02  0.1120737E+00
         21   -1    0    0  501  502  0.00000000000E+00  0.00000000000E+00  0.65866492507E+03  0.65866492507E+03  0.00000000000E+00 0. -1.
         21   -1    0    0  502  503 -0.00000000000E+00 -0.00000000000E+00 -0.87474776280E+02  0.87474776280E+02  0.00000000000E+00 0. -1.
         -6    2    1    2    0  503  0.98043769823E+01  0.16273816509E+03  0.33518946571E+03  0.41176468439E+03  0.17498097382E+03 0.  0.
        -24    2    3    3    0    0  0.39509355343E+02  0.45604086445E+02  0.23332248014E+03  0.25364526475E+03  0.79093733803E+02 0.  0.
          6    2    1    2  501    0 -0.98043769823E+01 -0.16273816509E+03  0.23600068308E+03  0.33437501696E+03  0.17184438707E+03 0.  0.
         24    2    5    5    0    0  0.33881077591E+02 -0.14139823500E+03  0.23310187404E+03  0.28544338454E+03  0.77460014312E+02 0.  0.
          5    1    5    5  501    0 -0.43685454573E+02 -0.21339930092E+02  0.28988090403E+01  0.48931632422E+02  0.47000000000E+01 0. -1.
        -11    1    6    6    0    0 -0.25191014356E+02 -0.48325354504E+02  0.75425947175E+02  0.93053751131E+02  0.00000000000E+00 0.  1.
         12    1    6    6    0    0  0.59072091947E+02 -0.93072880495E+02  0.15767592686E+03  0.19238963341E+03  0.00000000000E+00 0. -1.
         -5    1    3    3    0  503 -0.29704978361E+02  0.11713407865E+03  0.10186698557E+03  0.15811941964E+03  0.47000000000E+01 0.  1.
         11    1    4    4    0    0 -0.14650080072E+02  0.26228093612E+02  0.14614650706E+03  0.14920234337E+03  0.00000000000E+00 0. -1.
        -12    1    4    4    0    0  0.54159435415E+02  0.19375992832E+02  0.87175973085E+02  0.10444292138E+03  0.00000000000E+00 0.  1.
</event>
<event>
12    1  0.1627564E-001  0.2464357E+03  0.7818608E-02  0.1115752E+00
         21   -1    0    0  503  502  0.00000000000E+00  0.00000000000E+00  0.22010801977E+04  0.22010801977E+04  0.00000000000E+00 0. -1.
         21   -1    0    0  501  503 -0.00000000000E+00 -0.00000000000E+00 -0.28175014478E+02  0.28175014478E+02  0.00000000000E+00 0.  1.
          6    2    1    2  501    0 -0.85684139931E+02 -0.15232304062E+03  0.91255565015E+03  0.94524514551E+03  0.17374259683E+03 0.  0.
         24    2    3    3    0    0 -0.15035345511E+02 -0.72073176086E+02  0.22818085195E+03  0.25255311630E+03  0.79347155176E+02 0.  0.
         -6    2    1    2    0  502  0.85684139931E+02  0.15232304062E+03  0.12603495331E+04  0.12840100667E+04  0.17221157118E+03 0.  0.
        -24    2    5    5    0    0  0.39785441083E+02  0.14835025757E+02  0.32127772454E+03  0.33380609047E+03  0.80026061020E+02 0.  0.
          5    1    3    3  501    0 -0.70648794420E+02 -0.80249864534E+02  0.68437479821E+03  0.69269202921E+03  0.47000000000E+01 0. -1.
        -13    1    4    4    0    0 -0.18697990282E+02 -0.88719028106E+02  0.20046948421E+03  0.22001976022E+03  0.00000000000E+00 0.  1.
         14    1    4    4    0    0  0.36626447716E+01  0.16645852020E+02  0.27711367739E+02  0.32533356085E+02  0.00000000000E+00 0. -1.
         -5    1    5    5    0  502  0.45898698848E+02  0.13748801486E+03  0.93907180857E+03  0.95020397623E+03  0.47000000000E+01 0.  1.
         13    1    6    6    0    0  0.11908181770E+02  0.74060770613E+01  0.29324353765E+03  0.29357865581E+03  0.00000000000E+00 0. -1.
        -14    1    6    6    0    0  0.27877259313E+02  0.74289486958E+01  0.28034186882E+02  0.40227434665E+02  0.00000000000E+00 0.  1.
</event>
<event>
12    1  0.1627564E-001  0.1731331E+03  0.7818608E-02  0.1175141E+00
         21   -1    0    0  501  502  0.00000000000E+00  0.00000000000E+00  0.18927951782E+03  0.18927951782E+03  0.00000000000E+00 0.  1.
         21   -1    0    0  502  503 -0.00000000000E+00 -0.00000000000E+00 -0.16423612303E+03  0.16423612303E+03  0.00000000000E+00 0.  1.
         -6    2    1    2    0  503  0.88681235940E+01  0.19806476171E+02 -0.25749504461E+02  0.17503739781E+03  0.17176761493E+03 0.  0.
        -24    2    3    3    0    0  0.53816631185E+02  0.40730644817E+02  0.16234201483E+02  0.10989976865E+03  0.85200907460E+02 0.  0.
          6    2    1    2  501    0 -0.88681235940E+01 -0.19806476171E+02  0.50792899255E+02  0.17847824303E+03  0.16971630596E+03 0.  0.
         24    2    5    5    0    0 -0.12226684517E+02  0.47213573275E+02  0.40905219643E+02  0.11048689676E+03  0.90307829378E+02 0.  0.
          5    1    5    5  501    0  0.33585609229E+01 -0.67020049446E+02  0.98876796117E+01  0.67991346268E+02  0.47000000000E+01 0. -1.
        -11    1    6    6    0    0  0.19837596652E+02  0.42536058534E+02  0.57384278490E+02  0.74133676116E+02  0.00000000000E+00 0.  1.
         12    1    6    6    0    0 -0.32064281169E+02  0.46775147410E+01 -0.16479058848E+02  0.36353220649E+02  0.00000000000E+00 0. -1.
         -5    1    3    3    0  503 -0.44948507591E+02 -0.20924168646E+02 -0.41983705945E+02  0.65137629164E+02  0.47000000000E+01 0.  1.
         11    1    4    4    0    0 -0.70768923898E+01  0.32628561627E+02  0.32246477937E+02  0.46417031132E+02  0.00000000000E+00 0. -1.
        -12    1    4    4    0    0  0.60893523575E+02  0.81020831902E+01 -0.16012276454E+02  0.63482737517E+02  0.00000000000E+00 0.  1.
</event>
<event>
12    1  0.1627564E-001  0.1893491E+03  0.7818608E-02  0.1159184E+00
         21   -1    0    0  501  502  0.00000000000E+00  0.00000000000E+00  0.33707726552E+03  0.33707726552E+03  0.00000000000E+00 0. -1.
         21   -1    0    0  502  503 -0.00000000000E+00 -0.00000000000E+00 -0.21181055463E+03  0.21181055463E+03  0.00000000000E+00 0.  1.
         -6    2    1    2    0  503 -0.78782424608E+02  0.12133900977E+02 -0.13126181964E+03  0.23039695191E+03  0.17175327704E+03 0.  0.
        -24    2    3    3    0    0 -0.80394718206E+02 -0.15361853142E+02 -0.20524433651E+02  0.11618891962E+03  0.79870616735E+02 0.  0.
          6    2    1    2  501    0  0.78782424608E+02 -0.12133900977E+02  0.25652853053E+03  0.31849086825E+03  0.17110126885E+03 0.  0.
         24    2    5    5    0    0 -0.24980551497E+02  0.56345878669E+01  0.13327685074E+03  0.15633186918E+03  0.77596120046E+02 0.  0.
          5    1    5    5  501    0  0.10376297610E+03 -0.17768488844E+02  0.12325167979E+03  0.16215899906E+03  0.47000000000E+01 0. -1.
        -13    1    6    6    0    0 -0.42267842251E+02  0.31953788162E+01  0.30845953483E+02  0.52423790216E+02  0.00000000000E+00 0.  1.
         14    1    6    6    0    0  0.17287290754E+02  0.24392090507E+01  0.10243089725E+03  0.10390807897E+03  0.00000000000E+00 0. -1.
         -5    1    3    3    0  503  0.16122935986E+01  0.27495754120E+02 -0.11073738599E+03  0.11420803229E+03  0.47000000000E+01 0.  1.
         13    1    4    4    0    0 -0.53786180497E+02  0.28876247285E+02 -0.21013237070E+02  0.64562736945E+02  0.00000000000E+00 0. -1.
        -14    1    4    4    0    0 -0.26608537709E+02 -0.44238100427E+02  0.48880341895E+00  0.51626182672E+02  0.00000000000E+00 0.  1.
</event>
<event>
12    1  0.1627564E-001  0.1929773E+03  0.7818608E-02  0.1156340E+00
         21   -1    0    0  503  502  0.00000000000E+00  0.00000000000E+00  0.47439392154E+02  0.47439392154E+02  0.00000000000E+00 0. -1.
         21   -1    0    0  501  503 -0.00000000000E+00 -0.00000000000E+00 -0.12459506110E+04  0.12459506110E+04  0.00000000000E+00 0. -1.
          6    2    1    2  501    0 -0.75069202953E+02 -0.31684170991E+02 -0.99440362774E+03  0.10124983134E+04  0.17226429640E+03 0.  0.
         24    2    3    3    0    0 -0.10714032767E+03 -0.55419797200E+02 -0.65399371477E+03  0.66972588766E+03  0.79212258505E+02 0.  0.
         -6    2    1    2    0  502  0.75069202953E+02  0.31684170991E+02 -0.20410759108E+03  0.28089168975E+03  0.17493130283E+03 0.  0.
        -24    2    5    5    0    0  0.10788567319E+03 -0.15734029684E+02 -0.12855516958E+03  0.18573043256E+03  0.77990280073E+02 0.  0.
          5    1    3    3  501    0  0.32071124721E+02  0.23735626209E+02 -0.34040991296E+03  0.34277242572E+03  0.47000000000E+01 0. -1.
        -13    1    4    4    0    0 -0.63376135654E+02 -0.70597399592E+02 -0.36945363484E+03  0.38144005518E+03  0.00000000000E+00 0.  1.
         14    1    4    4    0    0 -0.43764192020E+02  0.15177602392E+02 -0.28454007993E+03  0.28828583248E+03  0.00000000000E+00 0. -1.
         -5    1    5    5    0  502 -0.32816470233E+02  0.47418200676E+02 -0.75552421502E+02  0.95161257183E+02  0.47000000000E+01 0.  1.
         13    1    6    6    0    0  0.67330836005E+02  0.28605087107E+02 -0.60386242086E+02  0.94858793577E+02  0.00000000000E+00 0. -1.
        -14    1    6    6    0    0  0.40554837181E+02 -0.44339116792E+02 -0.68168927491E+02  0.90871638986E+02  0.00000000000E+00 0.  1.
</event>
<event>
12    1  0.1627564E-001  0.2148847E+03  0.7818608E-02  0.1137986E+00
         21   -1    0    0  501  502  0.00000000000E+00  0.00000000000E+00  0.58217884930E+03  0.58217884930E+03  0.00000000000E+00 0. -1.
         21   -1    0    0  502  503 -0.00000000000E+00 -0.00000000000E+00 -0.16055652904E+03  0.16055652904E+03  0.00000000000E+00 0. -1.
         -6    2    1    2    0  503  0.59274930140E+02 -0.11412928914E+03 -0.53783789484E+02  0.22151330634E+03  0.17215236533E+03 0.  0.
        -24    2    3    3    0    0  0.42400814041E+02 -0.32965470602E+01  0.12170344406E+02  0.91356976146E+02  0.79932994150E+02 0.  0.
          6    2    1    2  501    0 -0.59274930140E+02  0.11412928914E+03  0.47540610974E+03  0.52122207201E+03  0.17065306087E+03 0.  0.
         24    2    5    5    0    0 -0.37265737564E+02  0.52423506086E+02  0.11331759208E+03  0.15322452739E+03  0.80622080929E+02 0.  0.
          5    1    5    5  501    0 -0.22009192576E+02  0.61705783054E+02  0.36208851766E+03  0.36799754461E+03  0.47000000000E+01 0. -1.
        -11    1    6    6    0    0  0.16266282962E+02  0.46166343716E+02  0.48207429830E+02  0.68701379494E+02  0.00000000000E+00 0.  1.
         12    1    6    6    0    0 -0.53532020526E+02  0.62571623697E+01  0.65110162253E+02  0.84523147901E+02  0.00000000000E+00 0. -1.
         -5    1    3    3    0  503  0.16874116099E+02 -0.11083274208E+03 -0.65954133890E+02  0.13015633019E+03  0.47000000000E+01 0.  1.
         11    1    4    4    0    0  0.21753319649E+02 -0.16689690898E+02 -0.31172168394E+02  0.41514536977E+02  0.00000000000E+00 0. -1.
        -12    1    4    4    0    0  0.20647494392E+02  0.13393143838E+02  0.43342512800E+02  0.49842439169E+02  0.00000000000E+00 0.  1.
</event>
<event>
12    1  0.1627564E-001  0.1796693E+03  0.7818608E-02  0.1168286E+00
         21   -1    0    0  501  502  0.00000000000E+00  0.00000000000E+00  0.56285412080E+03  0.56285412080E+03  0.00000000000E+00 0.  1.
         21   -1    0    0  502  503 -0.00000000000E+00 -0.00000000000E+00 -0.57643218648E+02  0.57643218648E+02  0.00000000000E+00 0.  1.
         -6    2    1    2    0  503 -0.43151674730E+02 -0.18003649328E+02  0.22405221993E+03  0.28719411058E+03  0.17347870611E+03 0.  0.
        -24    2    3    3    0    0 -0.82840246283E+02 -0.53770164751E+01  0.90600643929E+02  0.14731549282E+03  0.81252440170E+02 0.  0.
          6    2    1    2  501    0  0.43151674730E+02  0.18003649328E+02  0.28115868222E+03  0.33330322887E+03  0.17278495121E+03 0.  0.
         24    2    5    5    0    0  0.89734505103E+02  0.38483920577E+02  0.18782308620E+03  0.22689352499E+03  0.81669250161E+02 0.  0.
          5    1    5    5  501    0 -0.46582830372E+02 -0.20480271250E+02  0.93335596019E+02  0.10640970388E+03  0.47000000000E+01 0. -1.
        -13    1    6    6    0    0  0.20857037411E+02  0.13805740489E+00  0.12321669014E+03  0.12496954748E+03  0.00000000000E+00 0.  1.
         14    1    6    6    0    0  0.68877467691E+02  0.38345863173E+02  0.64606396064E+02  0.10192397750E+03  0.00000000000E+00 0. -1.
         -5    1    3    3    0  503  0.39688571553E+02 -0.12626632853E+02  0.13345157600E+03  0.13987861776E+03  0.47000000000E+01 0.  1.
         11    1    4    4    0    0 -0.70460982293E+02 -0.34340625081E+02  0.84452951533E+02  0.11522295596E+03  0.00000000000E+00 0. -1.
        -12    1    4    4    0    0 -0.12379263990E+02  0.28963608606E+02  0.61476923956E+01  0.32092536862E+02  0.00000000000E+00 0.  1.
</event>
<event>
12    1  0.1627564E-001  0.2028259E+03  0.7818608E-02  0.1147846E+00
         21   -1    0    0  501  502  0.00000000000E+00  0.00000000000E+00  0.15029423498E+03  0.15029423498E+03  0.00000000000E+00 0. -1.
         21   -1    0    0  502  503 -0.00000000000E+00 -0.00000000000E+00 -0.27271421869E+03  0.27271421869E+03  0.00000000000E+00 0.  1.
         -6    2    1    2    0  503  0.10361176941E+03 -0.17861786631E+02 -0.79790557901E+02  0.21795612410E+03  0.17344710064E+03 0.  0.
        -24    2    3    3    0    0  0.10356583174E+03 -0.32681802446E+02 -0.19082483088E+01  0.13853711424E+03  0.85993656136E+02 0.  0.
          6    2    1    2  501    0 -0.10361176941E+03  0.17861786631E+02 -0.42629425814E+02  0.20505232957E+03  0.17080617007E+03 0.  0.
         24    2    5    5    0    0 -0.11450735049E+03 -0.29463787526E+02 -0.59759399497E+02  0.15334208247E+03  0.77217616744E+02 0.  0.
          5    1    5    5  501    0  0.10895581085E+02  0.47325574157E+02  0.17129973684E+02  0.51710247098E+02  0.47000000000E+01 0. -1.
        -11    1    6    6    0    0 -0.10314405889E+03  0.66338794349E+01 -0.44798423042E+02  0.11264814223E+03  0.00000000000E+00 0.  1.
         12    1    6    6    0    0 -0.11363291609E+02 -0.36097666961E+02 -0.14960976455E+02  0.40693940246E+02  0.00000000000E+00 0. -1.
         -5    1    3    3    0  503  0.45937668186E-01  0.14820015815E+02 -0.77882309592E+02  0.79419009856E+02  0.47000000000E+01 0.  1.
         11    1    4    4    0    0  0.13767715037E+02  0.76053194988E+01  0.30998345315E+02  0.34760441227E+02  0.00000000000E+00 0. -1.
        -12    1    4    4    0    0  0.89798116705E+02 -0.40287121945E+02 -0.32906593624E+02  0.10377667302E+03  0.00000000000E+00 0.  1.
</event>
<event>
12    1  0.1627564E-001  0.2838694E+03  0.7818608E-02  0.1093860E+00
         21   -1    0    0  503  502  0.00000000000E+00  0.00000000000E+00  0.31498811572E+03  0.31498811572E+03  0.00000000000E+00 0.  1.
         21   -1    0    0  501  503 -0.00000000000E+00 -0.00000000000E+00 -0.54786840816E+03  0.54786840816E+03  0.00000000000E+00 0.  1.
          6    2    1    2  501    0 -0.19250658352E+02 -0.22245676292E+03 -0.43219602197E+03  0.51600124039E+03  0.17206475367E+03 0.  0.
         24    2    3    3    0    0 -0.38871638738E+01 -0.21918423853E+03 -0.43989233666E+03  0.49788854765E+03  0.79566937686E+02 0.  0.
         -6    2    1    2    0  502  0.19250658352E+02  0.22245676292E+03  0.19931572953E+03  0.34685528350E+03  0.17528328052E+03 0.  0.
        -24    2    5    5    0    0  0.66070618398E+01  0.22106150222E+03  0.11419685833E+03  0.26066294323E+03  0.77410635520E+02 0.  0.
          5    1    3    3  501    0 -0.15363494478E+02 -0.32725243981E+01  0.76963146832E+01  0.18112692738E+02  0.47000000000E+01 0. -1.
        -13    1    4    4    0    0  0.74312097361E+00 -0.31000947184E+02 -0.14319727238E+03  0.14651644881E+03  0.00000000000E+00 0.  1.
         14    1    4    4    0    0 -0.46302848474E+01 -0.18818329134E+03 -0.29669506428E+03  0.35137209884E+03  0.00000000000E+00 0. -1.
         -5    1    5    5    0  502  0.12643596512E+02  0.13952607025E+01  0.85118871203E+02  0.86192340263E+02  0.47000000000E+01 0.  1.
         13    1    6    6    0    0 -0.66845484982E+01  0.64781965207E+02 -0.24913503181E+01  0.65173560829E+02  0.00000000000E+00 0. -1.
        -14    1    6    6    0    0  0.13291610338E+02  0.15627953701E+03  0.11668820865E+03  0.19548938240E+03  0.00000000000E+00 0.  1.
</event>
<event>
12    1  0.1627564E-001  0.1842012E+03  0.7818608E-02  0.1164042E+00
         21   -1    0    0  501  502  0.00000000000E+00  0.00000000000E+00  0.66518607473E+03  0.66518607473E+03  0.00000000000E+00 0.  1.
         21   -1    0    0  502  503 -0.00000000000E+00 -0.00000000000E+00 -0.11887536652E+03  0.11887536652E+03  0.00000000000E+00 0.  1.
         -6    2    1    2    0  503  0.63588493870E+02  0.14055460200E+02 -0.23353016934E+02  0.18567567335E+03  0.17230507758E+03 0.  0.
        -24    2    3    3    0    0 -0.23788254103E+02  0.43276592272E+02 -0.10825047466E+02  0.92575669775E+02  0.77552101904E+02 0.  0.
          6    2    1    2  501    0 -0.63588493870E+02 -0.14055460200E+02  0.56966372515E+03  0.59838576791E+03  0.17119496187E+03 0.  0.
         24    2    5    5    0    0 -0.26655000698E+02 -0.75009290903E+02  0.36395500588E+03  0.38062989640E+03  0.77967871209E+02 0.  0.
          5    1    5    5  501    0 -0.36933493173E+02  0.60953830703E+02  0.20570871926E+03  0.21775587151E+03  0.47000000000E+01 0. -1.
        -13    1    6    6    0    0 -0.52618902601E+01 -0.21635226138E+02  0.26684563428E+03  0.26777296920E+03  0.00000000000E+00 0.  1.
         14    1    6    6    0    0 -0.21393110438E+02 -0.53374064765E+02  0.97109371601E+02  0.11285692720E+03  0.00000000000E+00 0. -1.
         -5    1    3    3    0  503  0.87376747973E+02 -0.29221132073E+02 -0.12527969469E+02  0.93100003571E+02  0.47000000000E+01 0.  1.
         11    1    4    4    0    0 -0.13707390882E+02 -0.21060196117E+02 -0.11057526421E+02  0.27453475478E+02  0.00000000000E+00 0. -1.
        -12    1    4    4    0    0 -0.10080863220E+02  0.64336788389E+02  0.23247895536E+00  0.65122194297E+02  0.00000000000E+00 0.  1.
</event>
<event>
12    1  0.1627564E-001  0.1827838E+03  0.7818608E-02  0.1165892E+00
         21   -1    0    0  501  502  0.00000000000E+00  0.00000000000E+00  0.26697354673E+03  0.26697354673E+03  0.00000000000E+00 0. -1.
         21   -1    0    0  502  503 -0.00000000000E+00 -0.00000000000E+00 -0.30869400644E+03  0.30869400644E+03  0.00000000000E+00 0. -1.
         -6    2    1    2    0  503 -0.54030243694E+02 -0.31723151438E+02 -0.24403332040E+03  0.30301315644E+03  0.16834216923E+03 0.  0.
        -24    2    3    3    0    0 -0.31495386244E+02  0.23006291066E+02 -0.55337170814E+02  0.10519642675E+03  0.80516066375E+02 0.  0.
          6    2    1    2  501    0  0.54030243694E+02  0.31723151438E+02  0.20231286069E+03  0.27265439673E+03  0.17170993240E+03 0.  0.
         24    2    5    5    0    0  0.87004233783E+02 -0.19839909174E+02  0.12123963133E+03  0.17096372970E+03  0.81032030549E+02 0.  0.
          5    1    5    5  501    0 -0.32973990088E+02  0.51563060612E+02  0.81073229364E+02  0.10169066703E+03  0.47000000000E+01 0. -1.
        -13    1    6    6    0    0  0.24558852225E+02 -0.44490881977E+02  0.70035264149E+02  0.86530422546E+02  0.00000000000E+00 0.  1.
         14    1    6    6    0    0  0.62445381558E+02  0.24650972803E+02  0.51204367181E+02  0.84433307151E+02  0.00000000000E+00 0. -1.
         -5    1    3    3    0  503 -0.22534857450E+02 -0.54729442504E+02 -0.18869614959E+03  0.19781672969E+03  0.47000000000E+01 0.  1.
         13    1    4    4    0    0 -0.19410626873E+02  0.35955427642E+02 -0.70760302778E+02  0.81710376708E+02  0.00000000000E+00 0. -1.
        -14    1    4    4    0    0 -0.12084759371E+02 -0.12949136576E+02  0.15423131964E+02  0.23486050045E+02  0.00000000000E+00 0.  1.
</event>
<event>
12    1  0.1627564E-001  0.1771676E+03  0.7818608E-02  0.1170849E+00
         21   -1    0    0  501  502  0.00000000000E+00  0.00000000000E+00  0.14821104600E+04  0.14821104600E+04  0.00000000000E+00 0.  1.
         21   -1    0    0  502  503 -0.00000000000E+00 -0.00000000000E+00 -0.21975839919E+02  0.21975839919E+02  0.00000000000E+00 0.  1.
         -6    2    1    2    0  503 -0.34092265088E+02  0.24530111659E+02  0.57307913113E+03  0.59951136767E+03  0.17096836115E+03 0.  0.
        -24    2    3    3    0    0 -0.77233280615E+02  0.50328448900E+02  0.43063843474E+03  0.44838842629E+03  0.84289898252E+02 0.  0.
          6    2    1    2  501    0  0.34092265088E+02 -0.24530111659E+02  0.88705548897E+03  0.90457493227E+03  0.17211728169E+03 0.  0.
         24    2    5    5    0    0  0.41672266865E+01 -0.21872190131E+02  0.20336882154E+03  0.22021236630E+03  0.81479139780E+02 0.  0.
          5    1    5    5  501    0  0.29925038401E+02 -0.26579215279E+01  0.68368666743E+03  0.68436256596E+03  0.47000000000E+01 0. -1.
        -13    1    6    6    0    0 -0.95416222321E+01 -0.33688097286E+02  0.19837014226E+03  0.20143645101E+03  0.00000000000E+00 0.  1.
         14    1    6    6    0    0  0.13708848919E+02  0.11815907155E+02  0.49986792735E+01  0.18775915292E+02  0.00000000000E+00 0. -1.
         -5    1    3    3    0  503  0.43141015527E+02 -0.25798337241E+02  0.14244069639E+03  0.15112294139E+03  0.47000000000E+01 0.  1.
         11    1    4    4    0    0 -0.59917595947E+02 -0.45354153478E+00  0.13192575991E+03  0.14489558355E+03  0.00000000000E+00 0. -1.
        -12    1    4    4    0    0 -0.17315684668E+02  0.50781990435E+02  0.29871267483E+03  0.30349284273E+03  0.00000000000E+00 0.  1.
</event>
<event>
12    1  0.1627564E-001  0.1776484E+03  0.7818608E-02  0.1170231E+00
         21   -1    0    0  501  502  0.00000000000E+00  0.00000000000E+00  0.13487026835E+04  0.13487026835E+04  0.00000000000E+00 0.  1.
         21   -1    0    0  502  503 -0.00000000000E+00 -0.00000000000E+00 -0.23948588274E+02  0.23948588274E+02  0.00000000000E+00 0.  1.
         -6    2    1    2    0  503 -0.23431471739E+02  0.36273930089E+02  0.55098971242E+03  0.57875564283E+03  0.17176611729E+03 0.  0.
        -24    2    3    3    0    0 -0.44063392261E+02  0.80294659345E+02  0.45579746123E+03  0.47176426264E+03  0.80133507263E+02 0.  0.
          6    2    1    2  501    0  0.23431471739E+02 -0.36273930089E+02  0.77376438284E+03  0.79389562898E+03  0.17231981221E+03 0.  0.
         24    2    5    5    0    0 -0.31644204440E+02  0.29913185107E+02  0.39461827969E+03  0.40506671819E+03  0.80369802823E+02 0.  0.
          5    1    5    5  501    0  0.55075676179E+02 -0.66187115197E+02  0.37914610315E+03  0.38882891078E+03  0.47000000000E+01 0. -1.
        -11    1    6    6    0    0  0.18838864667E+02  0.22978507912E+01  0.22806672604E+03  0.22885500752E+03  0.00000000000E+00 0.  1.
         12    1    6    6    0    0 -0.50483069107E+02  0.27615334316E+02  0.16655155365E+03  0.17621171068E+03  0.00000000000E+00 0. -1.
         -5    1    3    3    0  503  0.20631920522E+02 -0.44020729256E+02  0.95192251194E+02  0.10699138019E+03  0.47000000000E+01 0.  1.
         11    1    4    4    0    0  0.10154940780E+02  0.30962584088E+02  0.51991619345E+02  0.61359049193E+02  0.00000000000E+00 0. -1.
        -12    1    4    4    0    0 -0.54218333041E+02  0.49332075256E+02  0.40380584188E+03  0.41040521345E+03  0.00000000000E+00 0.  1.
</event>
<event>
12    1  0.1627564E-001  0.1875952E+03  0.7818608E-02  0.1161653E+00
         21   -1    0    0  501  502  0.00000000000E+00  0.00000000000E+00  0.66262731327E+03  0.66262731327E+03  0.00000000000E+00 0. -1.
         21   -1    0    0  502  503 -0.00000000000E+00 -0.00000000000E+00 -0.81162171866E+02  0.81162171866E+02  0.00000000000E+00 0. -1.
         -6    2    1    2    0  503 -0.45940444658E+02  0.60427770844E+02  0.65234697340E+02  0.19453012426E+03  0.16680636547E+03 0.  0.
        -24    2    3    3    0    0  0.18418942399E+00 -0.26611598321E+02  0.35616521608E+02  0.91560905615E+02  0.80041562545E+02 0.  0.
          6    2    1    2  501    0  0.45940444658E+02 -0.60427770844E+02  0.51623044407E+03  0.54925936088E+03  0.17155154966E+03 0.  0.
         24    2    5    5    0    0 -0.40369667192E+02 -0.43882237104E+02  0.26756984300E+03  0.28548412585E+03  0.79700718103E+02 0.  0.
          5    1    5    5  501    0  0.86310111850E+02 -0.16545533740E+02  0.24866060107E+03  0.26377523503E+03  0.47000000000E+01 0. -1.
        -13    1    6    6    0    0 -0.29020869319E+02 -0.49761643410E+00  0.23548271401E+02  0.37376189802E+02  0.00000000000E+00 0.  1.
         14    1    6    6    0    0 -0.11348797874E+02 -0.43384620670E+02  0.24402157160E+03  0.24810793605E+03  0.00000000000E+00 0. -1.
         -5    1    3    3    0  503 -0.46124634082E+02  0.87039369165E+02  0.29618175732E+02  0.10296921864E+03  0.47000000000E+01 0.  1.
         13    1    4    4    0    0 -0.29050130199E+02  0.10788121628E+02  0.31056531812E+02  0.43872563192E+02  0.00000000000E+00 0. -1.
        -14    1    4    4    0    0  0.29234319623E+02 -0.37399719949E+02  0.45599897958E+01  0.47688342423E+02  0.00000000000E+00 0.  1.
</event>
<event>
12    1  0.1627564E-001  0.1764071E+03  0.7818608E-02  0.1171348E+00
         21   -1    0    0  501  502  0.00000000000E+00  0.00000000000E+00  0.41492246479E+03  0.41492246479E+03  0.00000000000E+00 0. -1.
         21   -1    0    0  502  503 -0.00000000000E+00 -0.00000000000E+00 -0.79729296843E+02  0.79729296843E+02  0.00000000000E+00 0. -1.
         -6    2    1    2    0  503 -0.11020404975E+02  0.34731416475E+02  0.10716323166E+03  0.20640597891E+03  0.17260286583E+03 0.  0.
        -24    2    3    3    0    0  0.15636482056E+02  0.81446735811E+02  0.48425933188E+02  0.12662458434E+03  0.82526626062E+02 0.  0.
          6    2    1    2  501    0  0.11020404975E+02 -0.34731416475E+02  0.22802993628E+03  0.28824578272E+03  0.17251161932E+03 0.  0.
         24    2    5    5    0    0  0.64294129013E+02 -0.76904996530E+00  0.18629412812E+03  0.21238077304E+03  0.79156579768E+02 0.  0.
          5    1    5    5  501    0 -0.53273724038E+02 -0.33962366509E+02  0.41735808161E+02  0.75865009686E+02  0.47000000000E+01 0. -1.
        -11    1    6    6    0    0  0.14938082558E+02  0.10850161860E+02 -0.85681778929E+00  0.18482598833E+02  0.00000000000E+00 0.  1.
         12    1    6    6    0    0  0.49356046455E+02 -0.11619211825E+02  0.18715094591E+03  0.19389817421E+03  0.00000000000E+00 0. -1.
         -5    1    3    3    0  503 -0.26656887031E+02 -0.46715319336E+02  0.58737298476E+02  0.79781394567E+02  0.47000000000E+01 0.  1.
         13    1    4    4    0    0 -0.33127091293E+02  0.33736008413E+02  0.10006263688E+02  0.48328539747E+02  0.00000000000E+00 0. -1.
        -14    1    4    4    0    0  0.48763573349E+02  0.47710727398E+02  0.38419669500E+02  0.78296044594E+02  0.00000000000E+00 0.  1.
</event>
<event>
12    1  0.1627564E-001  0.2058124E+03  0.7818608E-02  0.1145532E+00
         21   -1    0    0  503  502  0.00000000000E+00  0.00000000000E+00  0.72772834858E+02  0.72772834858E+02  0.00000000000E+00 0.  1.
         21   -1    0    0  501  503 -0.00000000000E+00 -0.00000000000E+00 -0.15718416580E+04  0.15718416580E+04  0.00000000000E+00 0.  1.
          6    2    1    2  501    0  0.10792235299E+03  0.13787716402E+02 -0.14067836064E+04  0.14217590769E+04  0.17470381245E+03 0.  0.
         24    2    3    3    0    0  0.94323838914E+02  0.68625194284E+02 -0.11584608238E+04  0.11670467629E+04  0.79751254033E+02 0.  0.
         -6    2    1    2    0  502 -0.10792235299E+03 -0.13787716402E+02 -0.92285216684E+02  0.22285541591E+03  0.17120350400E+03 0.  0.
        -24    2    5    5    0    0 -0.37946598821E+02  0.54835512077E+02 -0.37234585820E+02  0.11034579136E+03  0.79642335110E+02 0.  0.
          5    1    3    3  501    0  0.13598514079E+02 -0.54837477882E+02 -0.24832278257E+03  0.25471231402E+03  0.47000000000E+01 0. -1.
        -13    1    4    4    0    0  0.65532812933E+02  0.49638938429E+02 -0.10504845476E+04  0.10536965211E+04  0.00000000000E+00 0.  1.
         14    1    4    4    0    0  0.28791025981E+02  0.18986255855E+02 -0.10797627622E+03  0.11335024179E+03  0.00000000000E+00 0. -1.
         -5    1    5    5    0  502 -0.69975754172E+02 -0.68623228479E+02 -0.55050630863E+02  0.11250962455E+03  0.47000000000E+01 0.  1.
         11    1    6    6    0    0  0.41819678712E+01  0.43172202433E+02 -0.48638737045E+02  0.65169430407E+02  0.00000000000E+00 0. -1.
        -12    1    6    6    0    0 -0.42128566692E+02  0.11663309644E+02  0.11404151225E+02  0.45176360949E+02  0.00000000000E+00 0.  1.
</event>
<event>
12    1  0.1627564E-001  0.2113126E+03  0.7818608E-02  0.1140623E+00
         21   -1    0    0  501  502  0.00000000000E+00  0.00000000000E+00  0.31133989477E+03  0.31133989477E+03  0.00000000000E+00 0.  1.
         21   -1    0    0  502  503 -0.00000000000E+00 -0.00000000000E+00 -0.26301630187E+03  0.26301630187E+03  0.00000000000E+00 0.  1.
         -6    2    1    2    0  503 -0.35351608353E+02  0.11820962059E+03 -0.16975848790E+03  0.27069057750E+03  0.17097424929E+03 0.  0.
        -24    2    3    3    0    0 -0.10378063611E+02 -0.29324197444E+01 -0.28757478354E+02  0.83067427102E+02  0.77180966528E+02 0.  0.
          6    2    1    2  501    0  0.35351608353E+02 -0.11820962059E+03  0.21808208080E+03  0.30366561915E+03  0.17155105267E+03 0.  0.
         24    2    5    5    0    0 -0.23151536987E+02 -0.97260904459E+02  0.76733729424E+02  0.14918936480E+03  0.79835606944E+02 0.  0.
          5    1    5    5  501    0  0.58503145340E+02 -0.20948716133E+02  0.14134835137E+03  0.15447625435E+03  0.47000000000E+01 0. -1.
        -11    1    6    6    0    0  0.28932655378E+02 -0.49137415782E+02  0.33402059859E+02  0.66085412761E+02  0.00000000000E+00 0.  1.
         12    1    6    6    0    0 -0.52084192365E+02 -0.48123488677E+02  0.43331669566E+02  0.83103952037E+02  0.00000000000E+00 0. -1.
         -5    1    3    3    0  503 -0.24973544742E+02  0.12114204034E+03 -0.14100100954E+03  0.18762315040E+03  0.47000000000E+01 0.  1.
         13    1    4    4    0    0  0.23116613808E+02 -0.41434691190E+01 -0.41111439752E+02  0.47346558996E+02  0.00000000000E+00 0. -1.
        -14    1    4    4    0    0 -0.33494677420E+02  0.12110493746E+01  0.12353961398E+02  0.35720868106E+02  0.00000000000E+00 0.  1.
</event>
<event>
12    1  0.1627564E-001  0.1885172E+03  0.7818608E-02  0.1160420E+00
         21   -1    0    0  501  502  0.00000000000E+00  0.00000000000E+00  0.74533985250E+02  0.74533985250E+02  0.00000000000E+00 0. -1.
         21   -1    0    0  502  503 -0.00000000000E+00 -0.00000000000E+00 -0.78465586049E+03  0.78465586049E+03  0.00000000000E+00 0. -1.
         -6    2    1    2    0  503  0.36053307855E+01  0.75068325938E+02 -0.62555096336E+03  0.65257194616E+03  0.16996436446E+03 0.  0.
        -24    2    3    3    0    0 -0.54533576141E+02  0.41603102191E+02 -0.49416549347E+03  0.50497694151E+03  0.78086154232E+02 0.  0.
          6    2    1    2  501    0 -0.36053307855E+01 -0.75068325938E+02 -0.84570911885E+02  0.20661789958E+03  0.17288859223E+03 0.  0.
         24    2    5    5    0    0  0.62715282398E+02 -0.19182073644E+02 -0.31993872490E+02  0.10508892835E+03  0.75623517435E+02 0.  0.
          5    1    5    5  501    0 -0.66320613183E+02 -0.55886252294E+02 -0.52577039395E+02  0.10152897123E+03  0.47000000000E+01 0. -1.
        -11    1    6    6    0    0  0.33066902058E+02  0.18285638306E+02  0.12500711318E+02  0.39800155319E+02  0.00000000000E+00 0.  1.
         12    1    6    6    0    0  0.29648380340E+02 -0.37467711950E+02 -0.44494583809E+02  0.65288773031E+02  0.00000000000E+00 0. -1.
         -5    1    3    3    0  503  0.58138906927E+02  0.33465223747E+02 -0.13138546989E+03  0.14759500465E+03  0.47000000000E+01 0.  1.
         11    1    4    4    0    0 -0.29969636563E+02  0.22010629761E+01 -0.49597663864E+02  0.57990965285E+02  0.00000000000E+00 0. -1.
        -12    1    4    4    0    0 -0.24563939578E+02  0.39402039215E+02 -0.44456782961E+03  0.44698597623E+03  0.00000000000E+00 0.  1.
</event>
<event>
12    1  0.1627564E-001  0.1925842E+03  0.7818608E-02  0.1156566E+00
         21   -1    0    0  503  502  0.00000000000E+00  0.00000000000E+00  0.29880306459E+02  0.29880306459E+02  0.00000000000E+00 0. -1.
         21   -1    0    0  501  503 -0.00000000000E+00 -0.00000000000E+00 -0.19694554237E+04  0.19694554237E+04  0.00000000000E+00 0.  1.
          6    2    1    2  501    0  0.58917700790E+02  0.58291706754E+02 -0.15796947097E+04  0.15911659428E+04  0.17176863220E+03 0.  0.
         24    2    3    3    0    0 -0.72268857591E+01 -0.17714864631E+02 -0.93367307636E+03  0.93731722481E+03  0.80325102552E+02 0.  0.
         -6    2    1    2    0  502 -0.58917700790E+02 -0.58291706754E+02 -0.35988040754E+03  0.40816978740E+03  0.17383742137E+03 0.  0.
        -24    2    5    5    0    0 -0.85806659238E+02 -0.59357406106E+02 -0.35702544258E+03  0.38070357858E+03  0.81129302176E+02 0.  0.
          5    1    3    3  501    0  0.66144586549E+02  0.76006571385E+02 -0.64602163339E+03  0.65384871800E+03  0.47000000000E+01 0. -1.
        -13    1    4    4    0    0  0.78039995948E+01  0.17914158997E+02 -0.71394534516E+03  0.71421269617E+03  0.00000000000E+00 0.  1.
         14    1    4    4    0    0 -0.15030885354E+02 -0.35629023628E+02 -0.21972773120E+03  0.22310452864E+03  0.00000000000E+00 0. -1.
         -5    1    5    5    0  502  0.26888958448E+02  0.10656993517E+01 -0.28549649643E+01  0.27466208812E+02  0.47000000000E+01 0.  1.
         11    1    6    6    0    0 -0.38687214815E+02 -0.41002445096E+02 -0.73110072156E+02  0.92320007283E+02  0.00000000000E+00 0. -1.
        -12    1    6    6    0    0 -0.47119444423E+02 -0.18354961010E+02 -0.28391537042E+03  0.28838357130E+03  0.00000000000E+00 0.  1.
</event>
<event>
12    1  0.1627564E-001  0.2410074E+03  0.7818608E-02  0.1119588E+00
         21   -1    0    0  501  502  0.00000000000E+00  0.00000000000E+00  0.14105354490E+03  0.14105354490E+03  0.00000000000E+00 0.  1.
         21   -1    0    0  502  503 -0.00000000000E+00 -0.00000000000E+00 -0.44229375226E+03  0.44229375226E+03  0.00000000000E+00 0.  1.
         -6    2    1    2    0  503  0.45911474392E+02 -0.15908134576E+03 -0.23215403171E+03  0.33263334006E+03  0.17127377625E+03 0.  0.
        -24    2    3    3    0    0  0.20357402140E+02 -0.66545292642E+01 -0.93876588612E+02  0.12519735894E+03  0.80017861841E+02 0.  0.
          6    2    1    2  501    0 -0.45911474392E+02  0.15908134576E+03 -0.69086175648E+02  0.25071395711E+03  0.17512809761E+03 0.  0.
         24    2    5    5    0    0 -0.36036979648E+02  0.44940661819E+02  0.25202359802E+02  0.10226187968E+03  0.80647418484E+02 0.  0.
          5    1    5    5  501    0 -0.98744947444E+01  0.11414068394E+03 -0.94288535450E+02  0.14845207743E+03  0.47000000000E+01 0. -1.
        -11    1    6    6    0    0  0.17071308765E+02  0.12363066802E+02  0.33324259673E+02  0.39430715013E+02  0.00000000000E+00 0.  1.
         12    1    6    6    0    0 -0.53108288413E+02  0.32577595017E+02 -0.81218998714E+01  0.62831164662E+02  0.00000000000E+00 0. -1.
         -5    1    3    3    0  503  0.25554072253E+02 -0.15242681649E+03 -0.13827744309E+03  0.20743598112E+03  0.47000000000E+01 0.  1.
         13    1    4    4    0    0  0.17425526474E+02  0.44563122796E+01 -0.10656884719E+03  0.10807602363E+03  0.00000000000E+00 0. -1.
        -14    1    4    4    0    0  0.29318756660E+01 -0.11110841544E+02  0.12692258581E+02  0.17121335305E+02  0.00000000000E+00 0.  1.
</event>
<event>
12    1  0.1627564E-001  0.1796627E+03  0.7818608E-02  0.1168982E+00
         21   -1    0    0  501  502  0.00000000000E+00  0.00000000000E+00  0.64559098009E+02  0.64559098009E+02  0.00000000000E+00 0.  1.
         21   -1    0    0  502  503 -0.00000000000E+00 -0.00000000000E+00 -0.65439714857E+03  0.65439714857E+03  0.00000000000E+00 0.  1.
         -6    2    1    2    0  503  0.14758873818E+02  0.48194504106E+02 -0.47705237430E+03  0.50976235489E+03  0.17244754582E+03 0.  0.
        -24    2    3    3    0    0  0.59623410939E+02  0.54082502584E+02 -0.20665591930E+03  0.23556565890E+03  0.79401778651E+02 0.  0.
          6    2    1    2  501    0 -0.14758873818E+02 -0.48194504106E+02 -0.11278567626E+03  0.20919389169E+03  0.16882221704E+03 0.  0.
         24    2    5    5    0    0 -0.27974401465E+01  0.12256755796E+02 -0.44002151632E+00  0.80971168040E+02  0.79988015983E+02 0.  0.
          5    1    5    5  501    0 -0.11961433672E+02 -0.60451259903E+02 -0.11234565474E+03  0.12822272365E+03  0.47000000000E+01 0. -1.
        -11    1    6    6    0    0 -0.13297996208E+02 -0.32238464020E+02 -0.40685013633E+01  0.35109941169E+02  0.00000000000E+00 0.  1.
         12    1    6    6    0    0  0.10500556062E+02  0.44495219817E+02  0.36284798470E+01  0.45861226871E+02  0.00000000000E+00 0. -1.
         -5    1    3    3    0  503 -0.44864537120E+02 -0.58879984772E+01 -0.27039645501E+03  0.27419669600E+03  0.47000000000E+01 0.  1.
         13    1    4    4    0    0  0.32173159694E+02  0.62607101005E+02 -0.84032673121E+02  0.10961866380E+03  0.00000000000E+00 0. -1.
        -14    1    4    4    0    0  0.27450251244E+02 -0.85245984209E+01 -0.12262324618E+03  0.12594699510E+03  0.00000000000E+00 0.  1.
</event>
<event>
12    1  0.1627564E-001  0.2332769E+03  0.7818608E-02  0.1124887E+00
         21   -1    0    0  503  502  0.00000000000E+00  0.00000000000E+00  0.23262590053E+04  0.23262590053E+04  0.00000000000E+00 0.  1.
         21   -1    0    0  501  503 -0.00000000000E+00 -0.00000000000E+00 -0.23443291395E+02  0.23443291395E+02  0.00000000000E+00 0. -1.
          6    2    1    2  501    0  0.66119135099E+02 -0.14217515314E+03  0.12887743721E+04  0.13091745786E+04  0.16856209747E+03 0.  0.
         24    2    3    3    0    0  0.53156959535E+02 -0.14869739623E+02  0.47261975139E+03  0.48303588485E+03  0.83111161341E+02 0.  0.
         -6    2    1    2    0  502 -0.66119135099E+02  0.14217515314E+03  0.10140413418E+04  0.10405277181E+04  0.17272109070E+03 0.  0.
        -24    2    5    5    0    0 -0.74084627276E+02  0.81230578578E+02  0.42100625998E+03  0.44429757089E+03  0.89817156851E+02 0.  0.
          5    1    3    3  501    0  0.12962175564E+02 -0.12730541352E+03  0.81615462073E+03  0.82613869371E+03  0.47000000000E+01 0. -1.
        -11    1    4    4    0    0  0.10940522972E+02 -0.18978766931E+02  0.38567396411E+03  0.38629560602E+03  0.00000000000E+00 0.  1.
         12    1    4    4    0    0  0.42216436563E+02  0.41090273086E+01  0.86945787284E+02  0.96740278829E+02  0.00000000000E+00 0. -1.
         -5    1    5    5    0  502  0.79654921767E+01  0.60944574566E+02  0.59303508180E+03  0.59623014725E+03  0.47000000000E+01 0.  1.
         11    1    6    6    0    0 -0.45224470113E+02  0.98021341148E+02  0.30286036977E+03  0.32152424418E+03  0.00000000000E+00 0. -1.
        -12    1    6    6    0    0 -0.28860157163E+02 -0.16790762569E+02  0.11814589021E+03  0.12277332671E+03  0.00000000000E+00 0.  1.
</event>
<event>
12    1  0.1627564E-001  0.2302520E+03  0.7818608E-02  0.1126466E+00
         21   -1    0    0  501  502  0.00000000000E+00  0.00000000000E+00  0.86885619761E+03  0.86885619761E+03  0.00000000000E+00 0.  1.
         21   -1    0    0  502  503 -0.00000000000E+00 -0.00000000000E+00 -0.63281440814E+02  0.63281440814E+02  0.00000000000E+00 0. -1.
         -6    2    1    2    0  503 -0.51309524659E+02  0.14429309745E+03  0.49105350657E+03  0.54235552382E+03  0.17193836864E+03 0.  0.
        -24    2    3    3    0    0 -0.92625918593E+02  0.10647804796E+03  0.27523786020E+03  0.31934093777E+03  0.79407930031E+02 0.  0.
          6    2    1    2  501    0  0.51309524659E+02 -0.14429309745E+03  0.31452125023E+03  0.38978211461E+03  0.17191077550E+03 0.  0.
         24    2    5    5    0    0  0.46992758058E+02 -0.71171949995E+02  0.28866231587E+03  0.31196109454E+03  0.81975765482E+02 0.  0.
          5    1    5    5  501    0  0.43167666014E+01 -0.73121147452E+02  0.25858934358E+02  0.77821020069E+02  0.47000000000E+01 0. -1.
        -11    1    6    6    0    0  0.32372096347E+02  0.11356975091E+02  0.91717109994E+02  0.97923244282E+02  0.00000000000E+00 0.  1.
         12    1    6    6    0    0  0.14620661711E+02 -0.82528925087E+02  0.19694520588E+03  0.21403785026E+03  0.00000000000E+00 0. -1.
         -5    1    3    3    0  503  0.41316393934E+02  0.37815049490E+02  0.21581564636E+03  0.22301458605E+03  0.47000000000E+01 0.  1.
         11    1    4    4    0    0  0.12808004673E+02  0.12899642969E+02  0.15839229160E+02  0.24110722777E+02  0.00000000000E+00 0. -1.
        -12    1    4    4    0    0 -0.10543392327E+03  0.93578404988E+02  0.25939863104E+03  0.29523021499E+03  0.00000000000E+00 0.  1.
</event>
<event>
12    1  0.1627564E-001  0.1924542E+03  0.7818608E-02  0.1158505E+00
         21   -1    0    0  501  502  0.00000000000E+00  0.00000000000E+00  0.12731082316E+03  0.12731082316E+03  0.00000000000E+00 0.  1.
         21   -1    0    0  502  503 -0.00000000000E+00 -0.00000000000E+00 -0.28141508815E+03  0.28141508815E+03  0.00000000000E+00 0.  1.
         -6    2    1    2    0  503  0.15422358556E+02 -0.63214188239E+02 -0.47467410811E+02  0.18870307804E+03  0.17065114660E+03 0.  0.
        -24    2    3    3    0    0 -0.46286982298E+02 -0.22502388045E+01 -0.39388679763E+02  0.10145629143E+03  0.81205681276E+02 0.  0.
          6    2    1    2  501    0 -0.15422358556E+02  0.63214188239E+02 -0.10663685419E+03  0.22002283327E+03  0.18112080431E+03 0.  0.
         24    2    5    5    0    0  0.10475884335E+02 -0.29660994516E+02 -0.13633355548E+02  0.85977097365E+02  0.78845888539E+02 0.  0.
          5    1    5    5  501    0 -0.25898242891E+02  0.92875182755E+02 -0.93003498637E+02  0.13404573591E+03  0.47000000000E+01 0. -1.
        -13    1    6    6    0    0 -0.26401966338E+02 -0.51561802279E+00 -0.26327118059E+02  0.37288695790E+02  0.00000000000E+00 0.  1.
         14    1    6    6    0    0  0.36877850673E+02 -0.29145376493E+02  0.12693762511E+02  0.48688401574E+02  0.00000000000E+00 0. -1.
         -5    1    3    3    0  503  0.61709340853E+02 -0.60963949434E+02 -0.80787310475E+01  0.87246786614E+02  0.47000000000E+01 0.  1.
         11    1    4    4    0    0 -0.55976907329E+02  0.61108649167E+01  0.37742676793E+01  0.56435821254E+02  0.00000000000E+00 0. -1.
        -12    1    4    4    0    0  0.96899250314E+01 -0.83611037212E+01 -0.43162947442E+02  0.45020470172E+02  0.00000000000E+00 0.  1.
</event>
<event>
12    1  0.1627564E-001  0.1932315E+03  0.7818608E-02  0.1155697E+00
         21   -1    0    0  503  502  0.00000000000E+00  0.00000000000E+00  0.10845219361E+03  0.10845219361E+03  0.00000000000E+00 0.  1.
         21   -1    0    0  501  503 -0.00000000000E+00 -0.00000000000E+00 -0.13008546433E+04  0.13008546433E+04  0.00000000000E+00 0.  1.
          6    2    1    2  501    0 -0.74407230692E+02  0.45323141615E+02 -0.12005381941E+04  0.12159041758E+04  0.17187316865E+03 0.  0.
         24    2    3    3    0    0 -0.83946048027E+02  0.62201908441E+02 -0.56390509901E+03  0.57895859762E+03  0.79297419103E+02 0.  0.
         -6    2    1    2    0  502  0.74407230692E+02 -0.45323141615E+02  0.81357444379E+01  0.19340266108E+03  0.17247543544E+03 0.  0.
        -24    2    5    5    0    0  0.76521652210E+02 -0.21305029032E+02  0.66057914183E+02  0.13048677868E+03  0.79709998523E+02 0.  0.
          5    1    3    3  501    0  0.95388173351E+01 -0.16878766826E+02 -0.63663309507E+03  0.63694557816E+03  0.47000000000E+01 0. -1.
        -11    1    4    4    0    0 -0.32248452183E+02  0.56186112338E+02 -0.43730625138E+03  0.44207872532E+03  0.00000000000E+00 0.  1.
         12    1    4    4    0    0 -0.51697595844E+02  0.60157961026E+01 -0.12659884763E+03  0.13687987230E+03  0.00000000000E+00 0. -1.
         -5    1    5    5    0  502 -0.21144215187E+01 -0.24018112583E+02 -0.57922169745E+02  0.62915882402E+02  0.47000000000E+01 0.  1.
         11    1    6    6    0    0  0.54739888670E+01 -0.25523612092E+02 -0.84600563260E+01  0.27440697538E+02  0.00000000000E+00 0. -1.
        -12    1    6    6    0    0  0.71047663343E+02  0.42185830601E+01  0.74517970509E+02  0.10304608114E+03  0.00000000000E+00 0.  1.
</event>
<event>
12    1  0.1627564E-001  0.2415020E+03  0.7818608E-02  0.1118854E+00
         21   -1    0    0  503  502  0.00000000000E+00  0.00000000000E+00  0.47880120621E+03  0.47880120621E+03  0.00000000000E+00 0.  1.
         21   -1    0    0  501  503 -0.00000000000E+00 -0.00000000000E+00 -0.12945415765E+03  0.12945415765E+03  0.00000000000E+00 0. -1.
          6    2    1    2  501    0  0.30222081466E+02  0.16688599306E+03  0.24929772317E+03  0.34684938059E+03  0.17143753717E+03 0.  0.
         24    2    3    3    0    0  0.17735574306E+02  0.14589828723E+03  0.26816793979E+03  0.31563124912E+03  0.78154850638E+02 0.  0.
         -6    2    1    2    0  502 -0.30222081466E+02 -0.16688599306E+03  0.10004932539E+03  0.26140598328E+03  0.17192705341E+03 0.  0.
        -24    2    5    5    0    0  0.40708653369E+02 -0.13600997417E+03  0.86852699314E+02  0.18278830952E+03  0.75579542127E+02 0.  0.
          5    1    3    3  501    0  0.12486507160E+02  0.20987705827E+02 -0.18870216623E+02  0.31218131467E+02  0.47000000000E+01 0. -1.
        -11    1    4    4    0    0  0.33405450898E+02  0.26122930229E+02  0.99584907280E+02  0.10823809584E+03  0.00000000000E+00 0.  1.
         12    1    4    4    0    0 -0.15669876592E+02  0.11977535700E+03  0.16858303251E+03  0.20739315328E+03  0.00000000000E+00 0. -1.
         -5    1    5    5    0  502 -0.70930734835E+02 -0.30876018889E+02  0.13196626078E+02  0.78617673754E+02  0.47000000000E+01 0.  1.
         11    1    6    6    0    0 -0.10960469323E+02 -0.72534919667E+02  0.17275597461E+02  0.75365063037E+02  0.00000000000E+00 0. -1.
        -12    1    6    6    0    0  0.51669122692E+02 -0.63475054502E+02  0.69577101852E+02  0.10742324649E+03  0.00000000000E+00 0.  1.
</event>
<event>
12    1  0.1627564E-001  0.1880348E+03  0.7818608E-02  0.1160307E+00
         21   -1    0    0  501  502  0.00000000000E+00  0.00000000000E+00  0.17286383332E+03  0.17286383332E+03  0.00000000000E+00 0.  1.
         21   -1    0    0  502  503 -0.00000000000E+00 -0.00000000000E+00 -0.47562605515E+03  0.47562605515E+03  0.00000000000E+00 0.  1.
         -6    2    1    2    0  503 -0.67119512710E+02 -0.33546042116E+02 -0.39625740572E+03  0.43849360362E+03  0.17212304580E+03 0.  0.
        -24    2    3    3    0    0  0.24843432013E+02 -0.32847605420E+02 -0.24952539564E+03  0.26525953134E+03  0.80022088205E+02 0.  0.
          6    2    1    2  501    0  0.67119512710E+02  0.33546042116E+02  0.93495183891E+02  0.20999628485E+03  0.17241439705E+03 0.  0.
         24    2    5    5    0    0  0.10698017998E+03  0.38068989063E+02  0.96707933602E+02  0.16947787416E+03  0.80475577484E+02 0.  0.
          5    1    5    5  501    0 -0.39860667266E+02 -0.45229469470E+01 -0.32127497110E+01  0.40518410688E+02  0.47000000000E+01 0. -1.
        -13    1    6    6    0    0  0.55866188552E+02  0.57253819464E+02  0.78102149667E+02  0.11179882222E+03  0.00000000000E+00 0.  1.
         14    1    6    6    0    0  0.51113991424E+02 -0.19184830401E+02  0.18605783935E+02  0.57679051940E+02  0.00000000000E+00 0. -1.
         -5    1    3    3    0  503 -0.91962944723E+02 -0.69843669626E+00 -0.14673201009E+03  0.17323407228E+03  0.47000000000E+01 0.  1.
         11    1    4    4    0    0 -0.88823936082E+01 -0.19169917573E+02 -0.10710563954E+02  0.23687524906E+02  0.00000000000E+00 0. -1.
        -12    1    4    4    0    0  0.33725825621E+02 -0.13677687847E+02 -0.23881483168E+03  0.24157200643E+03  0.00000000000E+00 0.  1.
</event>
<event>
12    1  0.1627564E-001  0.1743436E+03  0.7818608E-02  0.1173635E+00
         21   -1    0    0  501  502  0.00000000000E+00  0.00000000000E+00  0.22124781960E+03  0.22124781960E+03  0.00000000000E+00 0. -1.
         21   -1    0    0  502  503 -0.00000000000E+00 -0.00000000000E+00 -0.43148957969E+03  0.43148957969E+03  0.00000000000E+00 0. -1.
         -6    2    1    2    0  503 -0.29460397828E+02  0.34353007768E+01 -0.37500695830E+03  0.41355278941E+03  0.17180213770E+03 0.  0.
        -24    2    3    3    0    0  0.91851555390E+01 -0.48655696168E+02 -0.29923992812E+03  0.31370448636E+03  0.80088865216E+02 0.  0.
          6    2    1    2  501    0  0.29460397828E+02 -0.34353007768E+01  0.16476519821E+03  0.23918460988E+03  0.17082737114E+03 0.  0.
         24    2    5    5    0    0  0.54994995997E+02  0.22623463136E+02  0.17565316486E+03  0.20082170204E+03  0.77065238716E+02 0.  0.
          5    1    5    5  501    0 -0.25534598168E+02 -0.26058763913E+02 -0.10887966644E+02  0.38362907840E+02  0.47000000000E+01 0. -1.
        -13    1    6    6    0    0  0.41099463906E+02 -0.14261324947E+02  0.38419011728E+02  0.58039398556E+02  0.00000000000E+00 0.  1.
         14    1    6    6    0    0  0.13895532090E+02  0.36884788083E+02  0.13723415313E+03  0.14278230349E+03  0.00000000000E+00 0. -1.
         -5    1    3    3    0  503 -0.38645553367E+02  0.52090996945E+02 -0.75767030183E+02  0.99848303043E+02  0.47000000000E+01 0.  1.
         11    1    4    4    0    0  0.34713665595E+02  0.50680669266E+00 -0.16255170940E+03  0.16621778985E+03  0.00000000000E+00 0. -1.
        -12    1    4    4    0    0 -0.25528510056E+02 -0.49162502861E+02 -0.13668821872E+03  0.14748669652E+03  0.00000000000E+00 0.  1.
</event>
<event>
12    1  0.1627564E-001  0.2701842E+03  0.7818608E-02  0.1101336E+00
         21   -1    0    0  501  502  0.00000000000E+00  0.00000000000E+00  0.97364674870E+03  0.97364674870E+03  0.00000000000E+00 0. -1.
         21   -1    0    0  502  503 -0.00000000000E+00 -0.00000000000E+00 -0.76006797215E+02  0.76006797215E+02  0.00000000000E+00 0. -1.
         -6    2    1    2    0  503  0.87881776555E+02 -0.18778024487E+03  0.37993440485E+03  0.46620771462E+03  0.17324795575E+03 0.  0.
        -24    2    3    3    0    0  0.78947122751E+02 -0.37805431102E+02  0.19254550203E+03  0.22598081416E+03  0.79571723665E+02 0.  0.
          6    2    1    2  501    0 -0.87881776555E+02  0.18778024487E+03  0.51770554664E+03  0.58344583129E+03  0.17147996389E+03 0.  0.
         24    2    5    5    0    0 -0.57151243454E+02  0.44430379373E+02  0.31322011090E+03  0.33179143925E+03  0.82087746041E+02 0.  0.
          5    1    5    5  501    0 -0.30730533101E+02  0.14334986550E+03  0.20448543574E+03  0.25165439204E+03  0.47000000000E+01 0. -1.
        -11    1    6    6    0    0 -0.62136037461E+02  0.51756534482E+02  0.16954545935E+03  0.18784378829E+03  0.00000000000E+00 0.  1.
         12    1    6    6    0    0  0.49847940071E+01 -0.73261551085E+01  0.14367465155E+03  0.14394765096E+03  0.00000000000E+00 0. -1.
         -5    1    3    3    0  503  0.89346538036E+01 -0.14997481377E+03  0.18738890282E+03  0.24022690046E+03  0.47000000000E+01 0.  1.
         11    1    4    4    0    0  0.31140457119E+02 -0.58225557575E+02  0.11538116906E+03  0.13293892506E+03  0.00000000000E+00 0. -1.
        -12    1    4    4    0    0  0.47806665632E+02  0.20420126473E+02  0.77164332971E+02  0.93041889098E+02  0.00000000000E+00 0.  1.
</event>
<event>
12    1  0.1627564E-001  0.2324531E+03  0.7818608E-02  0.1127424E+00
         21   -1    0    0  503  502  0.00000000000E+00  0.00000000000E+00  0.12699871053E+03  0.12699871053E+03  0.00000000000E+00 0.  1.
         21   -1    0    0  501  503 -0.00000000000E+00 -0.00000000000E+00 -0.42406647853E+03  0.42406647853E+03  0.00000000000E+00 0. -1.
          6    2    1    2  501    0 -0.12338645766E+03 -0.49916222857E+02 -0.87747407031E+02  0.24846333467E+03  0.19057432670E+03 0.  0.
         24    2    3    3    0    0 -0.89453149696E+02 -0.84594408303E+02 -0.10483063630E+02  0.15710735678E+03  0.97029619312E+02 0.  0.
         -6    2    1    2    0  502  0.12338645766E+03  0.49916222857E+02 -0.20932036097E+03  0.30260185439E+03  0.17331191975E+03 0.  0.
        -24    2    5    5    0    0  0.79165063210E+02 -0.37584735779E+02 -0.13591355384E+03  0.18003514267E+03  0.79122935248E+02 0.  0.
          5    1    3    3  501    0 -0.33933307962E+02  0.34678185445E+02 -0.77264343402E+02  0.91355977891E+02  0.47000000000E+01 0. -1.
        -11    1    4    4    0    0  0.25591539110E+01  0.52618780221E+01 -0.26832231893E+02  0.27462798426E+02  0.00000000000E+00 0.  1.
         12    1    4    4    0    0 -0.92012303607E+02 -0.89856286325E+02  0.16349168263E+02  0.12964455835E+03  0.00000000000E+00 0. -1.
         -5    1    5    5    0  502  0.44221394449E+02  0.87500958637E+02 -0.73406807131E+02  0.12256671172E+03  0.47000000000E+01 0.  1.
         11    1    6    6    0    0  0.31109828105E+02  0.24265392031E+02 -0.39688389720E+02  0.55962477909E+02  0.00000000000E+00 0. -1.
        -12    1    6    6    0    0  0.48055235105E+02 -0.61850127810E+02 -0.96225164118E+02  0.12407266476E+03  0.00000000000E+00 0.  1.
</event>
<event>
12    1  0.1627564E-001  0.1777322E+03  0.7818608E-02  0.1170424E+00
         21   -1    0    0  501  502  0.00000000000E+00  0.00000000000E+00  0.18357464027E+04  0.18357464027E+04  0.00000000000E+00 0. -1.
         21   -1    0    0  502  503 -0.00000000000E+00 -0.00000000000E+00 -0.71229318735E+02  0.71229318735E+02  0.00000000000E+00 0. -1.
         -6    2    1    2    0  503  0.38277789687E+02 -0.14188454059E+02  0.51654246543E+02  0.18508617977E+03  0.17298043631E+03 0.  0.
        -24    2    3    3    0    0 -0.69574613043E+01 -0.26930678942E+02 -0.30653634432E+02  0.90190081339E+02  0.80130753971E+02 0.  0.
          6    2    1    2  501    0 -0.38277789687E+02  0.14188454059E+02  0.17128628374E+04  0.17218895416E+04  0.17128336888E+03 0.  0.
         24    2    5    5    0    0 -0.52785226760E+02 -0.45428135261E+02  0.89800579592E+03  0.90471227109E+03  0.85087533289E+02 0.  0.
          5    1    5    5  501    0  0.14507437073E+02  0.59616589320E+02  0.81485704146E+03  0.81717727053E+03  0.47000000000E+01 0. -1.
        -11    1    6    6    0    0 -0.42597009861E+02  0.22228437493E+01  0.17721142425E+03  0.18227269452E+03  0.00000000000E+00 0.  1.
         12    1    6    6    0    0 -0.10188216900E+02 -0.47650979010E+02  0.72079437167E+03  0.72243957657E+03  0.00000000000E+00 0. -1.
         -5    1    3    3    0  503  0.45235250992E+02  0.12742224882E+02  0.82307880974E+02  0.94896098432E+02  0.47000000000E+01 0.  1.
         13    1    4    4    0    0  0.16271497233E+02 -0.13382365188E+02 -0.51838775344E+02  0.55956303929E+02  0.00000000000E+00 0. -1.
        -14    1    4    4    0    0 -0.23228958537E+02 -0.13548313753E+02  0.21185140912E+02  0.34233777410E+02  0.00000000000E+00 0.  1.
</event>
<event>
12    1  0.1627564E-001  0.2002366E+03  0.7818608E-02  0.1150011E+00
         21   -1    0    0  503  502  0.00000000000E+00  0.00000000000E+00  0.48148548144E+03  0.48148548144E+03  0.00000000000E+00 0.  1.
         21   -1    0    0  501  503 -0.00000000000E+00 -0.00000000000E+00 -0.82666594670E+02  0.82666594670E+02  0.00000000000E+00 0.  1.
          6    2    1    2  501    0  0.67607485498E+02  0.74067552616E+02  0.18306325753E+03  0.27130584750E+03  0.17331454695E+03 0.  0.
         24    2    3    3    0    0  0.47002797715E+02  0.94476693690E+02  0.19831518636E+03  0.23820301483E+03  0.79225339920E+02 0.  0.
         -6    2    1    2    0  502 -0.67607485498E+02 -0.74067552616E+02  0.21575562924E+03  0.29284622861E+03  0.17073853583E+03 0.  0.
        -24    2    5    5    0    0 -0.44281584083E+02 -0.10622973580E+03  0.10474831764E+03  0.17484954674E+03  0.79715359177E+02 0.  0.
          5    1    3    3  501    0  0.20604687783E+02 -0.20409141075E+02 -0.15251928834E+02  0.33102832676E+02  0.47000000000E+01 0. -1.
        -13    1    4    4    0    0  0.55287954801E+02  0.22811159273E+02  0.89260167522E+02  0.10744526253E+03  0.00000000000E+00 0.  1.
         14    1    4    4    0    0 -0.82851570863E+01  0.71665534417E+02  0.10905501884E+03  0.13075775230E+03  0.00000000000E+00 0. -1.
         -5    1    5    5    0  502 -0.23325901415E+02  0.32162183186E+02  0.11100731160E+03  0.11799668187E+03  0.47000000000E+01 0.  1.
         13    1    6    6    0    0 -0.13441416341E+01  0.11503729044E+02  0.99559592593E-01  0.11582418174E+02  0.00000000000E+00 0. -1.
        -14    1    6    6    0    0 -0.42937442449E+02 -0.11773346485E+03  0.10464875805E+03  0.16326712857E+03  0.00000000000E+00 0.  1.
</event>
<event>
12    1  0.1627564E-001  0.2759735E+03  0.7818608E-02  0.1098157E+00
         21   -1    0    0  503  502  0.00000000000E+00  0.00000000000E+00  0.27558568837E+02  0.27558568837E+02  0.00000000000E+00 0. -1.
         21   -1    0    0  501  503 -0.00000000000E+00 -0.00000000000E+00 -0.28820623643E+04  0.28820623643E+04  0.00000000000E+00 0. -1.
          6    2    1    2  501    0  0.20154037037E+03  0.77184429230E+02 -0.17479210868E+04  0.17695732579E+04  0.17200416417E+03 0.  0.
         24    2    3    3    0    0  0.93228785389E+02  0.58974373749E+02 -0.55004887015E+03  0.56666721713E+03  0.79927418550E+02 0.  0.
         -6    2    1    2    0  502 -0.20154037037E+03 -0.77184429230E+02 -0.11065827087E+04  0.11400476753E+04  0.16913738095E+03 0.  0.
        -24    2    5    5    0    0 -0.96283160616E+02 -0.95991861452E+02 -0.50226304718E+03  0.52632367945E+03  0.79142671840E+02 0.  0.
          5    1    3    3  501    0  0.10831158498E+03  0.18210055481E+02 -0.11978722166E+04  0.12029060408E+04  0.47000000000E+01 0. -1.
        -13    1    4    4    0    0  0.82098842123E+02  0.10419229567E+02 -0.27648260265E+03  0.28860251175E+03  0.00000000000E+00 0.  1.
         14    1    4    4    0    0  0.11129943266E+02  0.48555144183E+02 -0.27356626750E+03  0.27806470538E+03  0.00000000000E+00 0. -1.
         -5    1    5    5    0  502 -0.10525720976E+03  0.18807432222E+02 -0.60431966157E+03  0.61372399584E+03  0.47000000000E+01 0.  1.
         13    1    6    6    0    0 -0.43748964319E+02 -0.29092686542E+02 -0.33052631762E+03  0.33467596707E+03  0.00000000000E+00 0. -1.
        -14    1    6    6    0    0 -0.52534196297E+02 -0.66899174910E+02 -0.17173672955E+03  0.19164771238E+03  0.00000000000E+00 0.  1.
</event>
<event>
12    1  0.1627564E-001  0.1731711E+03  0.7818608E-02  0.1175008E+00
         21   -1    0    0  503  502  0.00000000000E+00  0.00000000000E+00  0.63840060417E+02  0.63840060417E+02  0.00000000000E+00 0. -1.
         21   -1    0    0  501  503 -0.00000000000E+00 -0.00000000000E+00 -0.50837113852E+03  0.50837113852E+03  0.00000000000E+00 0. -1.
          6    2    1    2  501    0 -0.64850194673E+01  0.15269784531E+02 -0.13989559074E+03  0.22261855285E+03  0.17237465581E+03 0.  0.
         24    2    3    3    0    0 -0.17064817683E+02  0.44211560711E+02 -0.16033253106E+03  0.18534500903E+03  0.80002385930E+02 0.  0.
         -6    2    1    2    0  502  0.64850194673E+01 -0.15269784531E+02 -0.30463548736E+03  0.34959264610E+03  0.17069568315E+03 0.  0.
        -24    2    5    5    0    0  0.60946112931E+01  0.15888747774E+02 -0.55743821068E+02  0.98713874364E+02  0.79670940825E+02 0.  0.
          5    1    3    3  501    0  0.10579798216E+02 -0.28941776180E+02  0.20436940318E+02  0.37273543812E+02  0.47000000000E+01 0. -1.
        -13    1    4    4    0    0  0.85228014627E+01  0.13342821645E+02  0.38861318173E+01  0.16302486152E+02  0.00000000000E+00 0.  1.
         14    1    4    4    0    0 -0.25587619146E+02  0.30868739066E+02 -0.16421866288E+03  0.16904252288E+03  0.00000000000E+00 0. -1.
         -5    1    5    5    0  502  0.39040817416E+00 -0.31158532305E+02 -0.24889166630E+03  0.25087877173E+03  0.47000000000E+01 0.  1.
         11    1    6    6    0    0  0.23552716677E+02  0.40579520211E+02 -0.48781095975E+02  0.67683256777E+02  0.00000000000E+00 0. -1.
        -12    1    6    6    0    0 -0.17458105384E+02 -0.24690772437E+02 -0.69627250938E+01  0.31030617587E+02  0.00000000000E+00 0.  1.
</event>
<event>
12    1  0.1627564E-001  0.2521150E+03  0.7818608E-02  0.1111995E+00
         21   -1    0    0  503  502  0.00000000000E+00  0.00000000000E+00  0.31001967020E+03  0.31001967020E+03  0.00000000000E+00 0.  1.
         21   -1    0    0  501  503 -0.00000000000E+00 -0.00000000000E+00 -0.17212838664E+04  0.17212838664E+04  0.00000000000E+00 0.  1.
          6    2    1    2  501    0  0.11086759537E+03 -0.14686326950E+03 -0.16588894485E+04  0.16779195190E+04  0.17216058313E+03 0.  0.
         24    2    3    3    0    0  0.72082583384E+02 -0.75286754314E+02 -0.14066455315E+04  0.14128222570E+04  0.80938769151E+02 0.  0.
         -6    2    1    2    0  502 -0.11086759537E+03  0.14686326950E+03  0.24762525231E+03  0.35338401756E+03  0.17234138983E+03 0.  0.
        -24    2    5    5    0    0 -0.22046307923E+02  0.68832609195E+02  0.41030619029E+02  0.11530538023E+03  0.79924034118E+02 0.  0.
          5    1    3    3  501    0  0.38785011983E+02 -0.71576515190E+02 -0.25224391700E+03  0.26509726205E+03  0.47000000000E+01 0. -1.
        -13    1    4    4    0    0 -0.47812433182E+01 -0.40640269953E+02 -0.27347833845E+03  0.27652286240E+03  0.00000000000E+00 0.  1.
         14    1    4    4    0    0  0.76863826702E+02 -0.34646484361E+02 -0.11331671931E+04  0.11362993946E+04  0.00000000000E+00 0. -1.
         -5    1    5    5    0  502 -0.88821287444E+02  0.78030660309E+02  0.20659463328E+03  0.23807863733E+03  0.47000000000E+01 0.  1.
         11    1    6    6    0    0 -0.36307875178E+02  0.72210755123E+01  0.36365847195E+02  0.51892972296E+02  0.00000000000E+00 0. -1.
        -12    1    6    6    0    0  0.14261567255E+02  0.61611533683E+02  0.46647718338E+01  0.63412407931E+02  0.00000000000E+00 0.  1.
</event>
<event>
12    1  0.1627564E-001  0.1971306E+03  0.7818608E-02  0.1152491E+00
         21   -1    0    0  501  502  0.00000000000E+00  0.00000000000E+00  0.61592190051E+03  0.61592190051E+03  0.00000000000E+00 0. -1.
         21   -1    0    0  502  503 -0.00000000000E+00 -0.00000000000E+00 -0.63934968711E+02  0.63934968711E+02  0.00000000000E+00 0. -1.
         -6    2    1    2    0  503  0.21622146102E+02  0.93311790113E+02  0.22657031012E+03  0.29938815248E+03  0.17065917216E+03 0.  0.
        -24    2    3    3    0    0  0.47412371889E+02  0.10037050804E+03  0.98297281130E+02  0.16827361777E+03  0.79570616866E+02 0.  0.
          6    2    1    2  501    0 -0.21622146102E+02 -0.93311790113E+02  0.32541662168E+03  0.38046871674E+03  0.17229584841E+03 0.  0.
         24    2    5    5    0    0  0.42352649170E+02 -0.19029630153E+02  0.20476802543E+03  0.22494126741E+03  0.80701647011E+02 0.  0.
          5    1    5    5  501    0 -0.63974795272E+02 -0.74282159960E+02  0.12064859624E+03  0.15552744933E+03  0.47000000000E+01 0. -1.
        -13    1    6    6    0    0  0.40532052562E+02 -0.15104870018E+02  0.21207948619E+03  0.21644563485E+03  0.00000000000E+00 0.  1.
         14    1    6    6    0    0  0.18205966076E+01 -0.39247601351E+01 -0.73114607608E+01  0.84956325593E+01  0.00000000000E+00 0. -1.
         -5    1    3    3    0  503 -0.25790225788E+02 -0.70587179271E+01  0.12827302899E+03  0.13111453471E+03  0.47000000000E+01 0.  1.
         13    1    4    4    0    0  0.58583148466E+02  0.30948970987E+02  0.48603234613E+02  0.82171153723E+02  0.00000000000E+00 0. -1.
        -14    1    4    4    0    0 -0.11170776577E+02  0.69421537053E+02  0.49694046518E+02  0.86102464050E+02  0.00000000000E+00 0.  1.
</event>
<event>
12    1  0.1627564E-001  0.2207943E+03  0.7818608E-02  0.1133725E+00
         21   -1    0    0  501  502  0.00000000000E+00  0.00000000000E+00  0.97460276084E+03  0.97460276084E+03  0.00000000000E+00 0.  1.
         21   -1    0    0  502  503 -0.00000000000E+00 -0.00000000000E+00 -0.49966774952E+02  0.49966774952E+02  0.00000000000E+00 0.  1.
         -6    2    1    2    0  503 -0.13273821532E+03 -0.39870090310E+02  0.51441138314E+03  0.55979388136E+03  0.17187513083E+03 0.  0.
        -24    2    3    3    0    0 -0.15998088606E+02  0.23144809108E+02  0.13315499900E+03  0.15608897034E+03  0.76432269859E+02 0.  0.
          6    2    1    2  501    0  0.13273821532E+03  0.39870090310E+02  0.41022460275E+03  0.46477565444E+03  0.16888791059E+03 0.  0.
         24    2    5    5    0    0  0.70670251124E+01 -0.17427910934E+02  0.13048458185E+03  0.15276142673E+03  0.77176113360E+02 0.  0.
          5    1    5    5  501    0  0.12567119021E+03  0.57298001244E+02  0.27974002090E+03  0.31201422770E+03  0.47000000000E+01 0. -1.
        -11    1    6    6    0    0  0.23875606505E+02 -0.32751781687E+02  0.12188087344E+03  0.12844326024E+03  0.00000000000E+00 0.  1.
         12    1    6    6    0    0 -0.16808581392E+02  0.15323870753E+02  0.86037084082E+01  0.24318166494E+02  0.00000000000E+00 0. -1.
         -5    1    3    3    0  503 -0.11674012671E+03 -0.63014899418E+02  0.38125638414E+03  0.40370491102E+03  0.47000000000E+01 0.  1.
         13    1    4    4    0    0  0.77600959773E+01  0.45926903567E+02  0.94222228189E+02  0.10510626930E+03  0.00000000000E+00 0. -1.
        -14    1    4    4    0    0 -0.23758184583E+02 -0.22782094459E+02  0.38932770813E+02  0.50982701045E+02  0.00000000000E+00 0.  1.
</event>
<event>
12    1  0.1627564E-001  0.2222173E+03  0.7818608E-02  0.1132752E+00
         21   -1    0    0  501  502  0.00000000000E+00  0.00000000000E+00  0.29786180994E+03  0.29786180994E+03  0.00000000000E+00 0.  1.
         21   -1    0    0  502  503 -0.00000000000E+00 -0.00000000000E+00 -0.23208984421E+03  0.23208984421E+03  0.00000000000E+00 0.  1.
         -6    2    1    2    0  503 -0.60836929812E+02  0.12343655743E+03 -0.11077532480E+03  0.24829764789E+03  0.17447874835E+03 0.  0.
        -24    2    3    3    0    0 -0.82360425839E+02  0.20032847619E+02 -0.55526993767E+02  0.12900784881E+03  0.79844995393E+02 0.  0.
          6    2    1    2  501    0  0.60836929812E+02 -0.12343655743E+03  0.17654729052E+03  0.28165400626E+03  0.17094536470E+03 0.  0.
         24    2    5    5    0    0  0.28569143308E+01 -0.12996461987E+03  0.15970864180E+03  0.22074482891E+03  0.79513928647E+02 0.  0.
          5    1    5    5  501    0  0.57980015481E+02  0.65280624369E+01  0.16838648722E+02  0.60909177348E+02  0.47000000000E+01 0. -1.
        -11    1    6    6    0    0 -0.20707863683E+02 -0.32985207210E+02  0.92660504407E+02  0.10051272850E+03  0.00000000000E+00 0.  1.
         12    1    6    6    0    0  0.23564778013E+02 -0.96979412656E+02  0.67048137391E+02  0.12023210041E+03  0.00000000000E+00 0. -1.
         -5    1    3    3    0  503  0.21523496027E+02  0.10340370981E+03 -0.55248331031E+02  0.11928979908E+03  0.47000000000E+01 0.  1.
         11    1    4    4    0    0 -0.39809220527E+02 -0.29975102048E+02 -0.15862670757E+02  0.52296320189E+02  0.00000000000E+00 0. -1.
        -12    1    4    4    0    0 -0.42551205312E+02  0.50007949666E+02 -0.39664323010E+02  0.76711528620E+02  0.00000000000E+00 0.  1.
</event>
<event>
12    1  0.1627564E-001  0.1799883E+03  0.7818608E-02  0.1168389E+00
         21   -1    0    0  503  502  0.00000000000E+00  0.00000000000E+00  0.17712398118E+03  0.17712398118E+03  0.00000000000E+00 0.  1.
         21   -1    0    0  501  503 -0.00000000000E+00 -0.00000000000E+00 -0.18361142847E+03  0.18361142847E+03  0.00000000000E+00 0.  1.
          6    2    1    2  501    0 -0.32869679048E+02  0.18781350162E+02 -0.26658075736E+02  0.17962045828E+03  0.17355028412E+03 0.  0.
         24    2    3    3    0    0 -0.17520133503E+02  0.30700870692E+02  0.47654428166E+02  0.10266513518E+03  0.83783571886E+02 0.  0.
         -6    2    1    2    0  502  0.32869679048E+02 -0.18781350162E+02  0.20170628442E+02  0.18111495137E+03  0.17596197442E+03 0.  0.
        -24    2    5    5    0    0 -0.18088781699E+01  0.77729387001E+00 -0.54525621715E+02  0.96340175200E+02  0.79400942741E+02 0.  0.
          5    1    3    3  501    0 -0.15349545545E+02 -0.11919520531E+02 -0.74312503903E+02  0.76955323106E+02  0.47000000000E+01 0. -1.
        -13    1    4    4    0    0  0.48485815821E+01 -0.24040548938E+01 -0.21842012684E+02  0.22502483004E+02  0.00000000000E+00 0.  1.
         14    1    4    4    0    0 -0.22368715085E+02  0.33104925586E+02  0.69496440850E+02  0.80162652173E+02  0.00000000000E+00 0. -1.
         -5    1    5    5    0  502  0.34678557218E+02 -0.19558644032E+02  0.74696250156E+02  0.84774776169E+02  0.47000000000E+01 0.  1.
         11    1    6    6    0    0  0.23386334938E+01 -0.29365057045E+02  0.46287546608E+01  0.29819476045E+02  0.00000000000E+00 0. -1.
        -12    1    6    6    0    0 -0.41475116637E+01  0.30142350915E+02 -0.59154376375E+02  0.66520699155E+02  0.00000000000E+00 0.  1.
</event>
<event>
12    1  0.1627564E-001  0.3063713E+03  0.7818608E-02  0.1082197E+00
         21   -1    0    0  503  502  0.00000000000E+00  0.00000000000E+00  0.60599796433E+03  0.60599796433E+03  0.00000000000E+00 0. -1.
         21   -1    0    0  501  503 -0.00000000000E+00 -0.00000000000E+00 -0.36954433801E+03  0.36954433801E+03  0.00000000000E+00 0.  1.
          6    2    1    2  501    0  0.10385038199E+02  0.25263074412E+03 -0.25394459963E+03  0.39730894781E+03  0.17157038916E+03 0.  0.
         24    2    3    3    0    0  0.30467984343E+02  0.14557019015E+03 -0.67261031337E+02  0.18111891193E+03  0.78492264545E+02 0.  0.
         -6    2    1    2    0  502 -0.10385038199E+02 -0.25263074412E+03  0.49039822596E+03  0.57823335453E+03  0.17301228387E+03 0.  0.
        -24    2    5    5    0    0  0.22556813325E+02 -0.25720959728E+03  0.45729321489E+03  0.53107231938E+03  0.79089425749E+02 0.  0.
          5    1    3    3  501    0 -0.20082946144E+02  0.10706055397E+03 -0.18668356830E+03  0.21619003588E+03  0.47000000000E+01 0. -1.
        -11    1    4    4    0    0  0.29689924195E+02  0.10319293513E+03 -0.83196443834E+02  0.13583785086E+03  0.00000000000E+00 0.  1.
         12    1    4    4    0    0  0.77806014881E+00  0.42377255017E+02  0.15935412497E+02  0.45281061072E+02  0.00000000000E+00 0. -1.
         -5    1    5    5    0  502 -0.32941851524E+02  0.45788531673E+01  0.33105011076E+02  0.47161035151E+02  0.47000000000E+01 0.  1.
         11    1    6    6    0    0  0.30640045898E+02 -0.63938307002E+02  0.17542863101E+03  0.18921449229E+03  0.00000000000E+00 0. -1.
        -12    1    6    6    0    0 -0.80832325737E+01 -0.19327129028E+03  0.28186458387E+03  0.34185782708E+03  0.00000000000E+00 0.  1.
</event>
<event>
12    1  0.1627564E-001  0.1867063E+03  0.7818608E-02  0.1161484E+00
         21   -1    0    0  501  502  0.00000000000E+00  0.00000000000E+00  0.14138373207E+03  0.14138373207E+03  0.00000000000E+00 0.  1.
         21   -1    0    0  502  503 -0.00000000000E+00 -0.00000000000E+00 -0.24883212047E+03  0.24883212047E+03  0.00000000000E+00 0.  1.
         -6    2    1    2    0  503 -0.64181404135E+02  0.34919608152E+02 -0.34662278918E+02  0.18989663118E+03  0.17181567241E+03 0.  0.
        -24    2    3    3    0    0 -0.96924973001E+02  0.37156134399E+02  0.14895552130E+02  0.13027103291E+03  0.77289299561E+02 0.  0.
          6    2    1    2  501    0  0.64181404135E+02 -0.34919608152E+02 -0.72786109476E+02  0.20031922136E+03  0.17173043132E+03 0.  0.
         24    2    5    5    0    0  0.58299778867E+02 -0.81133362231E+02 -0.19750492496E+02  0.12957198643E+03  0.80108245706E+02 0.  0.
          5    1    5    5  501    0  0.58816252688E+01  0.46213754078E+02 -0.53035616979E+02  0.70747234930E+02  0.47000000000E+01 0. -1.
        -13    1    6    6    0    0  0.10963132233E+02  0.12101472622E+02  0.12034261935E+02  0.20284461252E+02  0.00000000000E+00 0.  1.
         14    1    6    6    0    0  0.47336646634E+02 -0.93234834853E+02 -0.31784754431E+02  0.10928752517E+03  0.00000000000E+00 0. -1.
         -5    1    3    3    0  503  0.32743568866E+02 -0.22365262464E+01 -0.49557831048E+02  0.59625598277E+02  0.47000000000E+01 0.  1.
         13    1    4    4    0    0  0.84778866216E+01  0.31274642928E+01  0.17264085973E+02  0.19486001615E+02  0.00000000000E+00 0. -1.
        -14    1    4    4    0    0 -0.10540285962E+03  0.34028670106E+02 -0.23685338423E+01  0.11078503129E+03  0.00000000000E+00 0.  1.
</event>
<event>
12    1  0.1627564E-001  0.3029657E+03  0.7818608E-02  0.1083851E+00
         21   -1    0    0  501  502  0.00000000000E+00  0.00000000000E+00  0.41006840798E+03  0.41006840798E+03  0.00000000000E+00 0. -1.
         21   -1    0    0  502  503 -0.00000000000E+00 -0.00000000000E+00 -0.22748911767E+03  0.22748911767E+03  0.00000000000E+00 0.  1.
         -6    2    1    2    0  503 -0.20021116477E+03 -0.14839361008E+03  0.48119917720E+02  0.30609478987E+03  0.17109447652E+03 0.  0.
        -24    2    3    3    0    0 -0.55711722723E+02  0.22348068601E+01  0.19364979611E+02  0.95339137027E+02  0.74871611465E+02 0.  0.
          6    2    1    2  501    0  0.20021116477E+03  0.14839361008E+03  0.13445937258E+03  0.33146273577E+03  0.17228769056E+03 0.  0.
         24    2    5    5    0    0  0.70626326659E+02  0.73197722681E+01  0.76582782521E+02  0.13129818432E+03  0.79577845804E+02 0.  0.
          5    1    5    5  501    0  0.12958483811E+03  0.14107383781E+03  0.57876590064E+02  0.20016455146E+03  0.47000000000E+01 0. -1.
        -13    1    6    6    0    0  0.67004347205E+02  0.36909316329E+02  0.50274525803E+02  0.91539107058E+02  0.00000000000E+00 0.  1.
         14    1    6    6    0    0  0.36219794539E+01 -0.29589544061E+02  0.26308256718E+02  0.39759077259E+02  0.00000000000E+00 0. -1.
         -5    1    3    3    0  503 -0.14449944205E+03 -0.15062841694E+03  0.28754938110E+02  0.21075565285E+03  0.47000000000E+01 0.  1.
         13    1    4    4    0    0 -0.16720092562E+02 -0.16089420530E+01  0.45325838638E+02  0.48338202677E+02  0.00000000000E+00 0. -1.
        -14    1    4    4    0    0 -0.38991630162E+02  0.38437489131E+01 -0.25960859027E+02  0.47000934350E+02  0.00000000000E+00 0.  1.
</event>
<event>
12    1  0.1627564E-001  0.1821324E+03  0.7818608E-02  0.1165768E+00
         21   -1    0    0  501  502  0.00000000000E+00  0.00000000000E+00  0.25479073614E+03  0.25479073614E+03  0.00000000000E+00 0. -1.
         21   -1    0    0  502  503 -0.00000000000E+00 -0.00000000000E+00 -0.13607828319E+03  0.13607828319E+03  0.00000000000E+00 0. -1.
         -6    2    1    2    0  503  0.56318412128E+02 -0.20539172256E+02  0.10012150121E+03  0.20779029993E+03  0.17192693971E+03 0.  0.
        -24    2    3    3    0    0 -0.17819922278E+01  0.71413532454E+01  0.11642684969E+03  0.14123338543E+03  0.79608312433E+02 0.  0.
          6    2    1    2  501    0 -0.56318412128E+02  0.20539172256E+02  0.18590951741E+02  0.18307871941E+03  0.17198422274E+03 0.  0.
         24    2    5    5    0    0  0.25077057270E+02 -0.16757653538E+02  0.31215819873E+02  0.92537276145E+02  0.81725407998E+02 0.  0.
          5    1    5    5  501    0 -0.81395469398E+02  0.37296825794E+02 -0.12624868132E+02  0.90541443263E+02  0.47000000000E+01 0. -1.
        -13    1    6    6    0    0 -0.79869676930E+01 -0.43582091193E+02  0.12568174042E+02  0.46055936908E+02  0.00000000000E+00 0.  1.
         14    1    6    6    0    0  0.33064024963E+02  0.26824437655E+02  0.18647645830E+02  0.46481339237E+02  0.00000000000E+00 0. -1.
         -5    1    3    3    0  503  0.58100404356E+02 -0.27680525501E+02 -0.16305348484E+02  0.66556914498E+02  0.47000000000E+01 0.  1.
         13    1    4    4    0    0  0.15602936391E+02 -0.21146518124E+02  0.10146857968E+03  0.10481650402E+03  0.00000000000E+00 0. -1.
        -14    1    4    4    0    0 -0.17384928619E+02  0.28287871369E+02  0.14958270007E+02  0.36416881405E+02  0.00000000000E+00 0.  1.
</event>
<event>
12    1  0.1627564E-001  0.1852570E+03  0.7818608E-02  0.1163011E+00
         21   -1    0    0  501  502  0.00000000000E+00  0.00000000000E+00  0.60855643349E+03  0.60855643349E+03  0.00000000000E+00 0.  1.
         21   -1    0    0  502  503 -0.00000000000E+00 -0.00000000000E+00 -0.56140858176E+02  0.56140858176E+02  0.00000000000E+00 0.  1.
         -6    2    1    2    0  503 -0.37345554076E+02  0.44331211746E+02  0.27213347798E+03  0.32872378047E+03  0.17505069914E+03 0.  0.
        -24    2    3    3    0    0 -0.80789215213E+02  0.74677254490E+00  0.22052831185E+03  0.24827418007E+03  0.80497684437E+02 0.  0.
          6    2    1    2  501    0  0.37345554076E+02 -0.44331211746E+02  0.28028209734E+03  0.33597351120E+03  0.17595510619E+03 0.  0.
         24    2    5    5    0    0  0.14484116002E+02  0.43461653115E+01  0.40868289456E+02  0.90548993690E+02  0.79373952944E+02 0.  0.
          5    1    5    5  501    0  0.22861438073E+02 -0.48677377058E+02  0.23941380788E+03  0.24542451751E+03  0.47000000000E+01 0. -1.
        -13    1    6    6    0    0  0.10429258147E+02  0.31223600144E+02  0.51698205811E+02  0.61289371962E+02  0.00000000000E+00 0.  1.
         14    1    6    6    0    0  0.40548578551E+01 -0.26877434832E+02 -0.10829916355E+02  0.29259621728E+02  0.00000000000E+00 0. -1.
         -5    1    3    3    0  503  0.43443661138E+02  0.43584439201E+02  0.51605166131E+02  0.80449600403E+02  0.47000000000E+01 0.  1.
         13    1    4    4    0    0 -0.12460675533E+02  0.18809832344E+02  0.74192671590E+01  0.23751289496E+02  0.00000000000E+00 0. -1.
        -14    1    4    4    0    0 -0.68328539681E+02 -0.18063059799E+02  0.21310904469E+03  0.22452289057E+03  0.00000000000E+00 0.  1.
</event>
<event>
12    1  0.1627564E-001  0.1758312E+03  0.7818608E-02  0.1173085E+00
         21   -1    0    0  503  502  0.00000000000E+00  0.00000000000E+00  0.82375767313E+02  0.82375767313E+02  0.00000000000E+00 0. -1.
         21   -1    0    0  501  503 -0.00000000000E+00 -0.00000000000E+00 -0.42743664874E+03  0.42743664874E+03  0.00000000000E+00 0. -1.
          6    2    1    2  501    0 -0.26839032555E+02 -0.14417475956E+02 -0.73424055213E+02  0.18623371117E+03  0.16841527844E+03 0.  0.
         24    2    3    3    0    0  0.20801170754E+02 -0.57260747031E+01 -0.10069470675E+03  0.13045819806E+03  0.80090204381E+02 0.  0.
         -6    2    1    2    0  502  0.26839032555E+02  0.14417475956E+02 -0.27163682622E+03  0.32357870489E+03  0.17317163630E+03 0.  0.
        -24    2    5    5    0    0  0.81434480782E+02  0.76388277017E+01 -0.15656426608E+03  0.19594486480E+03  0.84806216039E+02 0.  0.
          5    1    3    3  501    0 -0.47640203309E+02 -0.86914012532E+01  0.27270651539E+02  0.55775513107E+02  0.47000000000E+01 0. -1.
        -13    1    4    4    0    0  0.14810169786E+02 -0.29235731780E+02 -0.67885409934E+01  0.33468693291E+02  0.00000000000E+00 0.  1.
         14    1    4    4    0    0  0.59910009681E+01  0.23509657077E+02 -0.93906165758E+02  0.96989504772E+02  0.00000000000E+00 0. -1.
         -5    1    5    5    0  502 -0.54595448226E+02  0.67786482546E+01 -0.11507256013E+03  0.12763384009E+03  0.47000000000E+01 0.  1.
         13    1    6    6    0    0  0.39606551461E+02 -0.26760821583E+02 -0.25596766969E+02  0.54221904888E+02  0.00000000000E+00 0. -1.
        -14    1    6    6    0    0  0.41827929321E+02  0.34399649285E+02 -0.13096749911E+03  0.14172295991E+03  0.00000000000E+00 0.  1.
</event>
<event>
12    1  0.1627564E-001  0.2037042E+03  0.7818608E-02  0.1147287E+00
         21   -1    0    0  503  502  0.00000000000E+00  0.00000000000E+00  0.17874482480E+03  0.17874482480E+03  0.00000000000E+00 0.  1.
         21   -1    0    0  501  503 -0.00000000000E+00 -0.00000000000E+00 -0.54965748146E+03  0.54965748146E+03  0.00000000000E+00 0.  1.
          6    2    1    2  501    0 -0.76065555947E+02  0.74699088223E+02 -0.46435532539E+03  0.50707127375E+03  0.17357847177E+03 0.  0.
         24    2    3    3    0    0 -0.22053822513E+02  0.10775263704E+03 -0.25814116041E+03  0.29130247092E+03  0.78251319405E+02 0.  0.
         -6    2    1    2    0  502  0.76065555947E+02 -0.74699088223E+02  0.93442668725E+02  0.22133103251E+03  0.16997050047E+03 0.  0.
        -24    2    5    5    0    0 -0.96048014513E+01 -0.81895355733E+02  0.59763895817E+02  0.12887809233E+03  0.78985681849E+02 0.  0.
          5    1    3    3  501    0 -0.54011733434E+02 -0.33053548818E+02 -0.20621416498E+03  0.21576880283E+03  0.47000000000E+01 0. -1.
        -13    1    4    4    0    0 -0.20688219622E+01  0.28956902420E+01  0.56809821108E+01  0.67036261853E+01  0.00000000000E+00 0.  1.
         14    1    4    4    0    0 -0.19985000551E+02  0.10485694680E+03 -0.26382214252E+03  0.28459884473E+03  0.00000000000E+00 0. -1.
         -5    1    5    5    0  502  0.85670357399E+02  0.71962675106E+01  0.33678772908E+02  0.92452940178E+02  0.47000000000E+01 0.  1.
         13    1    6    6    0    0 -0.24827801751E+02 -0.92213297200E+02  0.53428425678E+02  0.10942718397E+03  0.00000000000E+00 0. -1.
        -14    1    6    6    0    0  0.15223000300E+02  0.10317941467E+02  0.63354701390E+01  0.19450908362E+02  0.00000000000E+00 0.  1.
</event>
<event>
12    1  0.1627564E-001  0.2443486E+03  0.7818608E-02  0.1117140E+00
         21   -1    0    0  501  502  0.00000000000E+00  0.00000000000E+00  0.25998095742E+02  0.25998095742E+02  0.00000000000E+00 0. -1.
         21   -1    0    0  502  503 -0.00000000000E+00 -0.00000000000E+00 -0.22845879630E+04  0.22845879630E+04  0.00000000000E+00 0. -1.
         -6    2    1    2    0  503  0.98143092330E+02 -0.14116686156E+03 -0.11169639912E+04  0.11431033399E+04  0.17180377960E+03 0.  0.
        -24    2    3    3    0    0  0.53524710590E+01 -0.11639107134E+03 -0.55161824117E+03  0.56963856657E+03  0.81424087947E+02 0.  0.
          6    2    1    2  501    0 -0.98143092330E+02  0.14116686156E+03 -0.11416258761E+04  0.11674827189E+04  0.17362634745E+03 0.  0.
         24    2    5    5    0    0  0.10408019946E+02  0.74550082945E+02 -0.39009854031E+03  0.40522517343E+03  0.79777993685E+02 0.  0.
          5    1    5    5  501    0 -0.10855111228E+03  0.66616778615E+02 -0.75152733576E+03  0.76225754543E+03  0.47000000000E+01 0. -1.
        -13    1    6    6    0    0  0.33571567190E+02  0.34279385585E+02 -0.30042165833E+03  0.30422902425E+03  0.00000000000E+00 0.  1.
         14    1    6    6    0    0 -0.23163547244E+02  0.40270697361E+02 -0.89676881983E+02  0.10099614918E+03  0.00000000000E+00 0. -1.
         -5    1    3    3    0  503  0.92790621271E+02 -0.24775790221E+02 -0.56534575006E+03  0.57346477336E+03  0.47000000000E+01 0.  1.
         11    1    4    4    0    0  0.42614492149E+02 -0.48584208298E+02 -0.26412422993E+03  0.27191548149E+03  0.00000000000E+00 0. -1.
        -12    1    4    4    0    0 -0.37262021090E+02 -0.67806863041E+02 -0.28749401123E+03  0.29772308507E+03  0.00000000000E+00 0.  1.
</event>
<event>
12    1  0.1627564E-001  0.2693372E+03  0.7818608E-02  0.1101710E+00
         21   -1    0    0  501  502  0.00000000000E+00  0.00000000000E+00  0.44010464707E+03  0.44010464707E+03  0.00000000000E+00 0. -1.
         21   -1    0    0  502  503 -0.00000000000E+00 -0.00000000000E+00 -0.16462769761E+03  0.16462769761E+03  0.00000000000E+00 0.  1.
         -6    2    1    2    0  503 -0.10875350564E+03 -0.17617429876E+03  0.13510129066E+03  0.30100902419E+03  0.17172467899E+03 0.  0.
        -24    2    3    3    0    0 -0.16226366605E+02 -0.15257653311E+03  0.93111180195E+02  0.19658974734E+03  0.80218099275E+02 0.  0.
          6    2    1    2  501    0  0.10875350564E+03  0.17617429876E+03  0.14037565880E+03  0.30372332049E+03  0.17227252042E+03 0.  0.
         24    2    5    5    0    0  0.40853259845E+02  0.17071253424E+03  0.13614580249E+03  0.23531092443E+03  0.77613100920E+02 0.  0.
          5    1    5    5  501    0  0.67900245790E+02  0.54617645214E+01  0.42298563098E+01  0.68412396058E+02  0.47000000000E+01 0. -1.
        -13    1    6    6    0    0 -0.18836107364E+02  0.68750108565E+02  0.33335880987E+02  0.78693438923E+02  0.00000000000E+00 0.  1.
         14    1    6    6    0    0  0.59689367209E+02  0.10196242567E+03  0.10280992150E+03  0.15661748551E+03  0.00000000000E+00 0. -1.
         -5    1    3    3    0  503 -0.92527139030E+02 -0.23597765644E+02  0.41990110465E+02  0.10441927685E+03  0.47000000000E+01 0.  1.
         11    1    4    4    0    0 -0.30746386792E+01 -0.22840546309E+02  0.56693829243E+02  0.61199135884E+02  0.00000000000E+00 0. -1.
        -12    1    4    4    0    0 -0.13151727926E+02 -0.12973598681E+03  0.36417350952E+02  0.13539061146E+03  0.00000000000E+00 0.  1.
</event>
<event>
12    1  0.1627564E-001  0.2711367E+03  0.7818608E-02  0.1101174E+00
         21   -1    0    0  501  502  0.00000000000E+00  0.00000000000E+00  0.65672578077E+03  0.65672578077E+03  0.00000000000E+00 0. -1.
         21   -1    0    0  502  503 -0.00000000000E+00 -0.00000000000E+00 -0.13718769295E+03  0.13718769295E+03  0.00000000000E+00 0.  1.
         -6    2    1    2    0  503  0.17904668598E+03  0.97829914589E+02  0.82834320188E+02  0.27988495586E+03  0.17275895336E+03 0.  0.
        -24    2    3    3    0    0  0.95147506349E+02  0.12263316311E+03  0.28664404732E+02  0.17687649397E+03  0.79822962620E+02 0.  0.
          6    2    1    2  501    0 -0.17904668598E+03 -0.97829914589E+02  0.43670376764E+03  0.51402851786E+03  0.17856855422E+03 0.  0.
         24    2    5    5    0    0 -0.14795876508E+03 -0.59243113957E+02  0.17903198869E+03  0.25159331505E+03  0.76453910883E+02 0.  0.
          5    1    5    5  501    0 -0.31087920904E+02 -0.38586800632E+02  0.25767177894E+03  0.26243520281E+03  0.47000000000E+01 0. -1.
        -11    1    6    6    0    0 -0.13034960915E+03 -0.20300242436E+02  0.11741789367E+03  0.17660714086E+03  0.00000000000E+00 0.  1.
         12    1    6    6    0    0 -0.17609155927E+02 -0.38942871521E+02  0.61614095020E+02  0.74986174191E+02  0.00000000000E+00 0. -1.
         -5    1    3    3    0  503  0.83899179631E+02 -0.24803248525E+02  0.54169915456E+02  0.10300846189E+03  0.47000000000E+01 0.  1.
         13    1    4    4    0    0  0.38698943500E+02  0.23700741484E+01  0.20292855882E+02  0.43761004094E+02  0.00000000000E+00 0. -1.
        -14    1    4    4    0    0  0.56448562849E+02  0.12026308897E+03  0.83715488505E+01  0.13311548988E+03  0.00000000000E+00 0.  1.
</event>
<event>
12    1  0.1627564E-001  0.2069862E+03  0.7818608E-02  0.1144119E+00
         21   -1    0    0  503  502  0.00000000000E+00  0.00000000000E+00  0.39304812316E+03  0.39304812316E+03  0.00000000000E+00 0. -1.
         21   -1    0    0  501  503 -0.00000000000E+00 -0.00000000000E+00 -0.14880902338E+03  0.14880902338E+03  0.00000000000E+00 0. -1.
          6    2    1    2  501    0 -0.10322243612E+03 -0.50081078662E+02 -0.18511065471E+02  0.20781227686E+03  0.17227970604E+03 0.  0.
         24    2    3    3    0    0 -0.11385570156E+03  0.61396924263E+01  0.15241513505E+02  0.14121521970E+03  0.81906153250E+02 0.  0.
         -6    2    1    2    0  502  0.10322243612E+03  0.50081078662E+02  0.26275016525E+03  0.33404486968E+03  0.17142152683E+03 0.  0.
        -24    2    5    5    0    0 -0.42296793570E+01 -0.13170616999E+02  0.92172731897E+02  0.12270276575E+03  0.79804767256E+02 0.  0.
          5    1    3    3  501    0  0.10633265437E+02 -0.56220771089E+02 -0.33752578976E+02  0.66597057166E+02  0.47000000000E+01 0. -1.
        -13    1    4    4    0    0 -0.58050773496E+02 -0.37122832664E+00  0.48742908301E+02  0.75801723091E+02  0.00000000000E+00 0.  1.
         14    1    4    4    0    0 -0.55804928062E+02  0.65109207530E+01 -0.33501394796E+02  0.65413496607E+02  0.00000000000E+00 0. -1.
         -5    1    5    5    0  502  0.10745211548E+03  0.63251695662E+02  0.17057743336E+03  0.21134210393E+03  0.47000000000E+01 0.  1.
         11    1    6    6    0    0  0.19741326384E+02  0.24999582087E+02  0.57883016092E+02  0.66069225997E+02  0.00000000000E+00 0. -1.
        -12    1    6    6    0    0 -0.23971005741E+02 -0.38170199087E+02  0.34289715805E+02  0.56633539749E+02  0.00000000000E+00 0.  1.
</event>
<event>
12    1  0.1627564E-001  0.2291511E+03  0.7818608E-02  0.1127453E+00
         21   -1    0    0  501  502  0.00000000000E+00  0.00000000000E+00  0.18304792947E+03  0.18304792947E+03  0.00000000000E+00 0. -1.
         21   -1    0    0  502  503 -0.00000000000E+00 -0.00000000000E+00 -0.50706892869E+03  0.50706892869E+03  0.00000000000E+00 0.  1.
         -6    2    1    2    0  503  0.13204135230E+03  0.73516468291E+02 -0.39041921073E+03  0.45270012057E+03  0.17225170312E+03 0.  0.
        -24    2    3    3    0    0  0.94496163184E+02 -0.17169144423E+02 -0.15884267110E+03  0.20113838801E+03  0.77468397388E+02 0.  0.
          6    2    1    2  501    0 -0.13204135230E+03 -0.73516468291E+02  0.66398211509E+02  0.23741673759E+03  0.17064112919E+03 0.  0.
         24    2    5    5    0    0 -0.10539192490E+02 -0.46186141905E+02 -0.29538505790E+01  0.94793036567E+02  0.82053398869E+02 0.  0.
          5    1    5    5  501    0 -0.12150215981E+03 -0.27330326386E+02  0.69352062088E+02  0.14262370103E+03  0.47000000000E+01 0. -1.
        -13    1    6    6    0    0  0.17839211136E+02 -0.60420116665E+02 -0.20766945535E+01  0.63032853434E+02  0.00000000000E+00 0.  1.
         14    1    6    6    0    0 -0.28378403627E+02  0.14233974761E+02 -0.87715602550E+00  0.31760183132E+02  0.00000000000E+00 0. -1.
         -5    1    3    3    0  503  0.37545189117E+02  0.90685612714E+02 -0.23157653963E+03  0.25156173256E+03  0.47000000000E+01 0.  1.
         13    1    4    4    0    0  0.20507062621E+02  0.27646839654E+02 -0.28430982260E+02  0.44645359361E+02  0.00000000000E+00 0. -1.
        -14    1    4    4    0    0  0.73989100563E+02 -0.44815984077E+02 -0.13041168884E+03  0.15649302865E+03  0.00000000000E+00 0.  1.
</event>
<event>
12    1  0.1627564E-001  0.1813834E+03  0.7818608E-02  0.1170316E+00
         21   -1    0    0  501  502  0.00000000000E+00  0.00000000000E+00  0.71068066046E+02  0.71068066046E+02  0.00000000000E+00 0. -1.
         21   -1    0    0  502  503 -0.00000000000E+00 -0.00000000000E+00 -0.11571427058E+04  0.11571427058E+04  0.00000000000E+00 0. -1.
         -6    2    1    2    0  503 -0.33531210363E+02  0.47226938655E+02 -0.10402324386E+04  0.10559277663E+04  0.17188715910E+03 0.  0.
        -24    2    3    3    0    0  0.48854029168E+01 -0.34801173810E+02 -0.38770150098E+03  0.39712342357E+03  0.78482933342E+02 0.  0.
          6    2    1    2  501    0  0.33531210363E+02 -0.47226938655E+02 -0.45842201074E+02  0.17228300550E+03  0.15564446916E+03 0.  0.
         24    2    5    5    0    0 -0.18920947904E+02 -0.64178935971E+02 -0.52896841882E+02  0.11651153361E+03  0.79372057364E+02 0.  0.
          5    1    5    5  501    0  0.52452158266E+02  0.16951997316E+02  0.70546408080E+01  0.55771471890E+02  0.47000000000E+01 0. -1.
        -13    1    6    6    0    0 -0.20069782070E+02  0.90933378650E+01  0.56132143688E+01  0.22737482741E+02  0.00000000000E+00 0.  1.
         14    1    6    6    0    0  0.11488341661E+01 -0.73272273836E+02 -0.58510056250E+02  0.93774050864E+02  0.00000000000E+00 0. -1.
         -5    1    3    3    0  503 -0.38416613279E+02  0.82028112465E+02 -0.65253093767E+03  0.65880434275E+03  0.47000000000E+01 0.  1.
         13    1    4    4    0    0 -0.24822959017E+02  0.14172504302E+02 -0.11906203809E+03  0.12244512276E+03  0.00000000000E+00 0. -1.
        -14    1    4    4    0    0  0.29708361933E+02 -0.48973678113E+02 -0.26863946289E+03  0.27467830081E+03  0.00000000000E+00 0.  1.
</event>
<event>
12    1  0.1627564E-001  0.2077176E+03  0.7818608E-02  0.1144053E+00
         21   -1    0    0  501  502  0.00000000000E+00  0.00000000000E+00  0.97278597565E+02  0.97278597565E+02  0.00000000000E+00 0.  1.
         21   -1    0    0  502  503 -0.00000000000E+00 -0.00000000000E+00 -0.79828435096E+03  0.79828435096E+03  0.00000000000E+00 0.  1.
         -6    2    1    2    0  503 -0.58618470833E+02 -0.97798242259E+02 -0.65345988771E+03  0.68567954417E+03  0.17362600936E+03 0.  0.
        -24    2    3    3    0    0  0.58048921980E+01 -0.25173099358E+00 -0.37668931864E+03  0.38519704971E+03  0.80300461966E+02 0.  0.
          6    2    1    2  501    0  0.58618470833E+02  0.97798242259E+02 -0.47545865682E+02  0.20988340436E+03  0.16967561042E+03 0.  0.
         24    2    5    5    0    0 -0.34165392530E+02  0.49054067234E+02 -0.15160973868E+02  0.10008490201E+03  0.78826118282E+02 0.  0.
          5    1    5    5  501    0  0.92783863364E+02  0.48744175025E+02 -0.32384891814E+02  0.10979850235E+03  0.47000000000E+01 0. -1.
        -11    1    6    6    0    0  0.13612724003E+00  0.61937989865E+02 -0.13580373641E+02  0.63409460394E+02  0.00000000000E+00 0.  1.
         12    1    6    6    0    0 -0.34301519770E+02 -0.12883922631E+02 -0.15806002267E+01  0.36675441620E+02  0.00000000000E+00 0. -1.
         -5    1    3    3    0  503 -0.64423363031E+02 -0.97546511266E+02 -0.27677056908E+03  0.30048249445E+03  0.47000000000E+01 0.  1.
         11    1    4    4    0    0 -0.14307100535E+02  0.31006825398E+02 -0.27138990636E+03  0.27352988433E+03  0.00000000000E+00 0. -1.
        -12    1    4    4    0    0  0.20111992733E+02 -0.31258556392E+02 -0.10529941228E+03  0.11166716538E+03  0.00000000000E+00 0.  1.
</event>
<event>
12    1  0.1627564E-001  0.1882504E+03  0.7818608E-02  0.1160574E+00
         21   -1    0    0  501  502  0.00000000000E+00  0.00000000000E+00  0.16976263511E+03  0.16976263511E+03  0.00000000000E+00 0. -1.
         21   -1    0    0  502  503 -0.00000000000E+00 -0.00000000000E+00 -0.27647567979E+03  0.27647567979E+03  0.00000000000E+00 0. -1.
         -6    2    1    2    0  503  0.30656635462E+02 -0.65562149458E+02 -0.16558071188E+03  0.24899828472E+03  0.17130367453E+03 0.  0.
        -24    2    3    3    0    0 -0.26562121728E+02 -0.49368652987E+02 -0.16216722590E+03  0.18924916432E+03  0.79838755183E+02 0.  0.
          6    2    1    2  501    0 -0.30656635462E+02  0.65562149458E+02  0.58867667196E+02  0.19724003018E+03  0.17378147924E+03 0.  0.
         24    2    5    5    0    0 -0.79527999140E+02  0.77343488090E+02  0.28922650005E+02  0.13853735407E+03  0.77777638133E+02 0.  0.
          5    1    5    5  501    0  0.48871363678E+02 -0.11781338632E+02  0.29945017191E+02  0.58702676109E+02  0.47000000000E+01 0. -1.
        -13    1    6    6    0    0 -0.56414390268E+02  0.98116622246E+01 -0.85907770336E+01  0.57902103545E+02  0.00000000000E+00 0.  1.
         14    1    6    6    0    0 -0.23113608872E+02  0.67531825866E+02  0.37513427038E+02  0.80635250530E+02  0.00000000000E+00 0. -1.
         -5    1    3    3    0  503  0.57218757189E+02 -0.16193496471E+02 -0.34134859769E+01  0.59749120401E+02  0.47000000000E+01 0.  1.
         13    1    4    4    0    0 -0.61796675140E+01  0.15098962277E+02 -0.85432502455E+02  0.86976315328E+02  0.00000000000E+00 0. -1.
        -14    1    4    4    0    0 -0.20382454214E+02 -0.64467615264E+02 -0.76734723449E+02  0.10227284899E+03  0.00000000000E+00 0.  1.
</event>
<event>
12    1  0.1627564E-001  0.2274170E+03  0.7818608E-02  0.1128663E+00
         21   -1    0    0  503  502  0.00000000000E+00  0.00000000000E+00  0.28401566666E+03  0.28401566666E+03  0.00000000000E+00 0. -1.
         21   -1    0    0  501  503 -0.00000000000E+00 -0.00000000000E+00 -0.49924823962E+03  0.49924823962E+03  0.00000000000E+00 0.  1.
          6    2    1    2  501    0  0.37317108365E+02 -0.14421121098E+03 -0.42027338929E+03  0.47785796536E+03  0.17184025537E+03 0.  0.
         24    2    3    3    0    0  0.46930758011E+02 -0.48032394004E+02 -0.32874398969E+03  0.34465695904E+03  0.78779449956E+02 0.  0.
         -6    2    1    2    0  502 -0.37317108365E+02  0.14421121098E+03  0.20504081633E+03  0.30540594092E+03  0.17041599818E+03 0.  0.
        -24    2    5    5    0    0 -0.87178804128E+02  0.11050567175E+03  0.15408404056E+03  0.22640635183E+03  0.87785518243E+02 0.  0.
          5    1    3    3  501    0 -0.96136496459E+01 -0.96178816981E+02 -0.91529399602E+02  0.13320100633E+03  0.47000000000E+01 0. -1.
        -11    1    4    4    0    0  0.64963021216E+02 -0.21369320940E+02 -0.18200446643E+03  0.19442856735E+03  0.00000000000E+00 0.  1.
         12    1    4    4    0    0 -0.18032263205E+02 -0.26663073064E+02 -0.14673952326E+03  0.15022839168E+03  0.00000000000E+00 0. -1.
         -5    1    5    5    0  502  0.49861695763E+02  0.33705539236E+02  0.50956775772E+02  0.78999589091E+02  0.47000000000E+01 0.  1.
         13    1    6    6    0    0 -0.47394276269E+01  0.76259135878E+02  0.76744274039E+02  0.10829405144E+03  0.00000000000E+00 0. -1.
        -14    1    6    6    0    0 -0.82439376501E+02  0.34246535870E+02  0.77339766524E+02  0.11811230039E+03  0.00000000000E+00 0.  1.
</event>
<event>
12    1  0.1627564E-001  0.1925448E+03  0.7818608E-02  0.1156526E+00
         21   -1    0    0  501  502  0.00000000000E+00  0.00000000000E+00  0.24624545957E+03  0.24624545957E+03  0.00000000000E+00 0. -1.
         21   -1    0    0  502  503 -0.00000000000E+00 -0.00000000000E+00 -0.44349812199E+03  0.44349812199E+03  0.00000000000E+00 0.  1.
         -6    2    1    2    0  503 -0.24067596860E+02 -0.78636930940E+02 -0.37961554290E+03  0.42565414203E+03  0.17409902955E+03 0.  0.
        -24    2    3    3    0    0  0.33722591611E+02 -0.36847287297E+01 -0.16376976348E+03  0.18992330189E+03  0.89997415295E+02 0.  0.
          6    2    1    2  501    0  0.24067596860E+02  0.78636930940E+02  0.18236288047E+03  0.26408943953E+03  0.17240648412E+03 0.  0.
         24    2    5    5    0    0 -0.39431686988E+02  0.49855599463E+02  0.43087518282E+02  0.10826825803E+03  0.76321967530E+02 0.  0.
          5    1    5    5  501    0  0.63499283847E+02  0.28781331477E+02  0.13927536219E+03  0.15582118150E+03  0.47000000000E+01 0. -1.
        -11    1    6    6    0    0 -0.44648712107E+02  0.26306740059E+02  0.59644287469E+02  0.79012613506E+02  0.00000000000E+00 0.  1.
         12    1    6    6    0    0  0.52170251188E+01  0.23548859405E+02 -0.16556769187E+02  0.29255644520E+02  0.00000000000E+00 0. -1.
         -5    1    3    3    0  503 -0.57790188471E+02 -0.74952202210E+02 -0.21584577942E+03  0.23573084014E+03  0.47000000000E+01 0.  1.
         13    1    4    4    0    0  0.29176893580E+02 -0.27995211557E+02 -0.22040210549E+02  0.46052077805E+02  0.00000000000E+00 0. -1.
        -14    1    4    4    0    0  0.45456980315E+01  0.24310482827E+02 -0.14172955293E+03  0.14387122408E+03  0.00000000000E+00 0.  1.
</event>
<event>
12    1  0.1627564E-001  0.1980468E+03  0.7818608E-02  0.1151405E+00
         21   -1    0    0  503  502  0.00000000000E+00  0.00000000000E+00  0.18295063188E+03  0.18295063188E+03  0.00000000000E+00 0.  1.
         21   -1    0    0  501  503 -0.00000000000E+00 -0.00000000000E+00 -0.32429294632E+03  0.32429294632E+03  0.00000000000E+00 0.  1.
          6    2    1    2  501    0  0.80952235991E+02 -0.54832993879E+02 -0.21834892673E+03  0.29478600177E+03  0.17222836962E+03 0.  0.
         24    2    3    3    0    0  0.11483677764E+03 -0.72447715835E+02 -0.15903900918E+03  0.22408807455E+03  0.80535096005E+02 0.  0.
         -6    2    1    2    0  502 -0.80952235991E+02  0.54832993879E+02  0.77006612299E+02  0.21245757643E+03  0.17218676405E+03 0.  0.
        -24    2    5    5    0    0  0.24169190387E+02  0.38416809283E+02  0.42575671619E+02  0.10053088133E+03  0.78954222733E+02 0.  0.
          5    1    3    3  501    0 -0.33884541647E+02  0.17614721955E+02 -0.59309917554E+02  0.70697927215E+02  0.47000000000E+01 0. -1.
        -13    1    4    4    0    0  0.62573692276E+02  0.45976654775E+01 -0.46866429069E+02  0.78313904682E+02  0.00000000000E+00 0.  1.
         14    1    4    4    0    0  0.52263085362E+02 -0.77045381312E+02 -0.11217258011E+03  0.14577416987E+03  0.00000000000E+00 0. -1.
         -5    1    5    5    0  502 -0.10512142638E+03  0.16416184596E+02  0.34430940680E+02  0.11192669510E+03  0.47000000000E+01 0.  1.
         13    1    6    6    0    0  0.10041768613E+02  0.18056288805E+02  0.64323157286E+02  0.67559864162E+02  0.00000000000E+00 0. -1.
        -14    1    6    6    0    0  0.14127421774E+02  0.20360520478E+02 -0.21747485668E+02  0.32971017166E+02  0.00000000000E+00 0.  1.
</event>
<event>
12    1  0.1627564E-001  0.1839808E+03  0.7818608E-02  0.1164317E+00
         21   -1    0    0  503  502  0.00000000000E+00  0.00000000000E+00  0.11419384719E+03  0.11419384719E+03  0.00000000000E+00 0. -1.
         21   -1    0    0  501  503 -0.00000000000E+00 -0.00000000000E+00 -0.51762588862E+03  0.51762588862E+03  0.00000000000E+00 0. -1.
          6    2    1    2  501    0 -0.25193326517E+02  0.58798841517E+02  0.62018436185E+01  0.18276644652E+03  0.17109384455E+03 0.  0.
         24    2    3    3    0    0 -0.71601519083E+02  0.26248711435E+02  0.40597730468E+02  0.11629541270E+03  0.77850336594E+02 0.  0.
         -6    2    1    2    0  502  0.25193326517E+02 -0.58798841517E+02 -0.40963388504E+03  0.44905328929E+03  0.17250196920E+03 0.  0.
        -24    2    5    5    0    0  0.23605756879E+02 -0.10377796114E+03 -0.34762447243E+03  0.37228807039E+03  0.80178155036E+02 0.  0.
          5    1    3    3  501    0  0.46408192566E+02  0.32550130082E+02 -0.34395886849E+02  0.66471033825E+02  0.47000000000E+01 0. -1.
        -11    1    4    4    0    0 -0.10357752116E+02  0.42800027269E+02  0.72648820213E+01  0.44630750318E+02  0.00000000000E+00 0.  1.
         12    1    4    4    0    0 -0.61243766967E+02 -0.16551315834E+02  0.33332848446E+02  0.71664662378E+02  0.00000000000E+00 0. -1.
         -5    1    5    5    0  502  0.15875696379E+01  0.44979119624E+02 -0.62009412610E+02  0.76765218894E+02  0.47000000000E+01 0.  1.
         11    1    6    6    0    0  0.21111092943E+00  0.11561586718E+02 -0.66905517658E+02  0.67897445816E+02  0.00000000000E+00 0. -1.
        -12    1    6    6    0    0  0.23394645950E+02 -0.11533954786E+03 -0.28071895478E+03  0.30439062458E+03  0.00000000000E+00 0.  1.
</event>
<event>
12    1  0.1627564E-001  0.4494748E+03  0.7818608E-02  0.1027902E+00
         21   -1    0    0  501  502  0.00000000000E+00  0.00000000000E+00  0.36902444373E+03  0.36902444373E+03  0.00000000000E+00 0.  1.
         21   -1    0    0  502  503 -0.00000000000E+00 -0.00000000000E+00 -0.86763726492E+03  0.86763726492E+03  0.00000000000E+00 0. -1.
         -6    2    1    2    0  503 -0.68023578986E+02 -0.40888518197E+03 -0.62508983945E+03  0.76973123877E+03  0.17301610686E+03 0.  0.
        -24    2    3    3    0    0 -0.56527124538E+02 -0.37446925321E+03 -0.46218106451E+03  0.60276422536E+03  0.79314800463E+02 0.  0.
          6    2    1    2  501    0  0.68023578986E+02  0.40888518197E+03  0.12647701825E+03  0.46693046988E+03  0.17381981541E+03 0.  0.
         24    2    5    5    0    0  0.61951161443E+01  0.19683756885E+03  0.12418629701E+03  0.24599091605E+03  0.79409611739E+02 0.  0.
          5    1    5    5  501    0  0.61828462842E+02  0.21204761311E+03  0.22907212397E+01  0.22093955383E+03  0.47000000000E+01 0. -1.
        -13    1    6    6    0    0 -0.34701601096E+02  0.11377604185E+03  0.80412131066E+02  0.14358028987E+03  0.00000000000E+00 0.  1.
         14    1    6    6    0    0  0.40896717240E+02  0.83061527005E+02  0.43774165948E+02  0.10241062618E+03  0.00000000000E+00 0. -1.
         -5    1    3    3    0  503 -0.11496454448E+02 -0.34415928758E+02 -0.16290877494E+03  0.16696701341E+03  0.47000000000E+01 0.  1.
         13    1    4    4    0    0 -0.23945491121E+02 -0.75566603277E+02 -0.14799870167E+03  0.16789077929E+03  0.00000000000E+00 0. -1.
        -14    1    4    4    0    0 -0.32581633417E+02 -0.29890264993E+03 -0.31418236284E+03  0.43487344607E+03  0.00000000000E+00 0.  1.
</event>
<event>
12    1  0.1627564E-001  0.1944932E+03  0.7818608E-02  0.1154597E+00
         21   -1    0    0  503  502  0.00000000000E+00  0.00000000000E+00  0.30192217203E+02  0.30192217203E+02  0.00000000000E+00 0.  1.
         21   -1    0    0  501  503 -0.00000000000E+00 -0.00000000000E+00 -0.12504031937E+04  0.12504031937E+04  0.00000000000E+00 0. -1.
          6    2    1    2  501    0  0.21980788410E+02 -0.87174905840E+02 -0.59089798954E+03  0.62208362780E+03  0.17246734960E+03 0.  0.
         24    2    3    3    0    0  0.24256595454E+02 -0.12637683977E+03 -0.50059653722E+03  0.52350161518E+03  0.83051550096E+02 0.  0.
         -6    2    1    2    0  502 -0.21980788410E+02  0.87174905840E+02 -0.62931298700E+03  0.65851178314E+03  0.17181476554E+03 0.  0.
        -24    2    5    5    0    0 -0.11449713436E+02 -0.12642002781E+02 -0.17416834653E+03  0.19240766115E+03  0.79969862844E+02 0.  0.
          5    1    3    3  501    0 -0.22758070443E+01  0.39201933929E+02 -0.90301452320E+02  0.98582012622E+02  0.47000000000E+01 0. -1.
        -11    1    4    4    0    0  0.29542326411E+02 -0.49494207136E+02 -0.98827958196E+02  0.11440887601E+03  0.00000000000E+00 0.  1.
         12    1    4    4    0    0 -0.52857309562E+01 -0.76882632633E+02 -0.40176857902E+03  0.40909273917E+03  0.00000000000E+00 0. -1.
         -5    1    5    5    0  502 -0.10531074974E+02  0.99816908621E+02 -0.45514464047E+03  0.46610412199E+03  0.47000000000E+01 0.  1.
         11    1    6    6    0    0 -0.31243229245E+02 -0.18244815148E+02 -0.16660796623E+03  0.17049113485E+03  0.00000000000E+00 0. -1.
        -12    1    6    6    0    0  0.19793515809E+02  0.56028123672E+01 -0.75603803045E+01  0.21916526295E+02  0.00000000000E+00 0.  1.
</event>
<event>
12    1  0.1627564E-001  0.1766174E+03  0.7818608E-02  0.1171398E+00
         21   -1    0    0  503  502  0.00000000000E+00  0.00000000000E+00  0.10187198122E+04  0.10187198122E+04  0.00000000000E+00 0.  1.
         21   -1    0    0  501  503 -0.00000000000E+00 -0.00000000000E+00 -0.67035992544E+02  0.67035992544E+02  0.00000000000E+00 0.  1.
          6    2    1    2  501    0 -0.34800657192E+02 -0.11891981542E+01  0.73959285085E+02  0.19043794277E+03  0.17200039030E+03 0.  0.
         24    2    3    3    0    0  0.43479030050E+02 -0.97634986934E+01  0.50635166990E+02  0.10817414424E+03  0.84569340687E+02 0.  0.
         -6    2    1    2    0  502  0.34800657192E+02  0.11891981542E+01  0.87772453457E+03  0.89531786197E+03  0.17315084594E+03 0.  0.
        -24    2    5    5    0    0  0.55825814982E+02 -0.24534991677E+02  0.83518850966E+03  0.84114042555E+03  0.79113092375E+02 0.  0.
          5    1    3    3  501    0 -0.78279687242E+02  0.85743005392E+01  0.23324118096E+02  0.82263798534E+02  0.47000000000E+01 0. -1.
        -13    1    4    4    0    0  0.23373258735E+02 -0.31064549515E+02 -0.10599211163E+02  0.40294648996E+02  0.00000000000E+00 0.  1.
         14    1    4    4    0    0  0.20105771315E+02  0.21301050821E+02  0.61234378152E+02  0.67879495239E+02  0.00000000000E+00 0. -1.
         -5    1    5    5    0  502 -0.21025157790E+02  0.25724189832E+02  0.42536024906E+02  0.54177436423E+02  0.47000000000E+01 0.  1.
         13    1    6    6    0    0  0.23956502625E+02 -0.90216451461E+01  0.61165332275E+02  0.66306123183E+02  0.00000000000E+00 0. -1.
        -14    1    6    6    0    0  0.31869312357E+02 -0.15513346531E+02  0.77402317739E+03  0.77483430237E+03  0.00000000000E+00 0.  1.
</event>
<event>
12    1  0.1627564E-001  0.1850474E+03  0.7818608E-02  0.1163028E+00
         21   -1    0    0  501  502  0.00000000000E+00  0.00000000000E+00  0.14021534786E+03  0.14021534786E+03  0.00000000000E+00 0.  1.
         21   -1    0    0  502  503 -0.00000000000E+00 -0.00000000000E+00 -0.27216100045E+03  0.27216100045E+03  0.00000000000E+00 0.  1.
         -6    2    1    2    0  503 -0.41975523254E+02  0.53400173938E+02 -0.13221107033E+03  0.22742540240E+03  0.17213083225E+03 0.  0.
        -24    2    3    3    0    0 -0.45964377567E+02  0.22766720952E+02 -0.38242339036E+01  0.95290663710E+02  0.80216196852E+02 0.  0.
          6    2    1    2  501    0  0.41975523254E+02 -0.53400173938E+02  0.26541773753E+00  0.18495094591E+03  0.17202691306E+03 0.  0.
         24    2    5    5    0    0  0.76205209901E+02 -0.44208048478E+02  0.45319954924E+02  0.12743427059E+03  0.80149918535E+02 0.  0.
          5    1    5    5  501    0 -0.34229686647E+02 -0.91921254604E+01 -0.45054537186E+02  0.57516675317E+02  0.47000000000E+01 0. -1.
        -13    1    6    6    0    0  0.13057508465E+01 -0.38399241065E+02  0.34303087878E+02  0.51506393172E+02  0.00000000000E+00 0.  1.
         14    1    6    6    0    0  0.74899459055E+02 -0.58088074125E+01  0.11016867046E+02  0.75927877422E+02  0.00000000000E+00 0. -1.
         -5    1    3    3    0  503  0.39888543130E+01  0.30633452986E+02 -0.12838683643E+03  0.13213473869E+03  0.47000000000E+01 0.  1.
         13    1    4    4    0    0  0.14970807824E+02 -0.11169072865E+02  0.13951545746E+02  0.23313491893E+02  0.00000000000E+00 0. -1.
        -14    1    4    4    0    0 -0.60935185391E+02  0.33935793817E+02 -0.17775779649E+02  0.71977171817E+02  0.00000000000E+00 0.  1.
</event>
<event>
12    1  0.1627564E-001  0.1823295E+03  0.7818608E-02  0.1165601E+00
         21   -1    0    0  503  502  0.00000000000E+00  0.00000000000E+00  0.13847044606E+03  0.13847044606E+03  0.00000000000E+00 0. -1.
         21   -1    0    0  501  503 -0.00000000000E+00 -0.00000000000E+00 -0.25383499926E+03  0.25383499926E+03  0.00000000000E+00 0. -1.
          6    2    1    2  501    0 -0.30533999356E+02 -0.52375211630E+02 -0.10366952817E+03  0.20974130029E+03  0.17195509316E+03 0.  0.
         24    2    3    3    0    0 -0.45444639010E+02 -0.14502731472E+01  0.69900906485E+00  0.92563836159E+02  0.80624169105E+02 0.  0.
         -6    2    1    2    0  502  0.30533999356E+02  0.52375211630E+02 -0.11695025031E+02  0.18256414503E+03  0.17180630236E+03 0.  0.
        -24    2    5    5    0    0 -0.45112003700E+02  0.13051875608E+02  0.11441541217E+02  0.94099274987E+02  0.80736115543E+02 0.  0.
          5    1    3    3  501    0  0.14910639653E+02 -0.50924938482E+02 -0.10436853724E+03  0.11717746413E+03  0.47000000000E+01 0. -1.
        -11    1    4    4    0    0 -0.24524310111E+02 -0.98065796859E+01  0.39606298372E+02  0.47605353294E+02  0.00000000000E+00 0.  1.
         12    1    4    4    0    0 -0.20920328899E+02  0.83563065386E+01 -0.38907289307E+02  0.44958482864E+02  0.00000000000E+00 0. -1.
         -5    1    5    5    0  502  0.75646003056E+02  0.39323336021E+02 -0.23136566249E+02  0.88464870045E+02  0.47000000000E+01 0.  1.
         11    1    6    6    0    0  0.22457966161E+02 -0.36522243601E+01  0.89519305389E+01  0.24450686028E+02  0.00000000000E+00 0. -1.
        -12    1    6    6    0    0 -0.67569969861E+02  0.16704099968E+02  0.24896106782E+01  0.69648588959E+02  0.00000000000E+00 0.  1.
</event>
<event>
12    1  0.1627564E-001  0.1915223E+03  0.7818608E-02  0.1157288E+00
         21   -1    0    0  501  502  0.00000000000E+00  0.00000000000E+00  0.35637036578E+03  0.35637036578E+03  0.00000000000E+00 0. -1.
         21   -1    0    0  502  503 -0.00000000000E+00 -0.00000000000E+00 -0.11475552676E+03  0.11475552676E+03  0.00000000000E+00 0. -1.
         -6    2    1    2    0  503  0.12669532411E+02  0.82334380922E+02  0.43481448942E+02  0.19555805153E+03  0.17150174279E+03 0.  0.
        -24    2    3    3    0    0 -0.10170433519E+02  0.40972214943E+02  0.91025900091E+02  0.12836387281E+03  0.80058786154E+02 0.  0.
          6    2    1    2  501    0 -0.12669532411E+02 -0.82334380922E+02  0.19813339008E+03  0.27556784101E+03  0.17245674068E+03 0.  0.
         24    2    5    5    0    0  0.13113695902E+02 -0.52634193218E+02  0.21263938192E+03  0.23338502685E+03  0.79440145385E+02 0.  0.
          5    1    5    5  501    0 -0.25783228312E+02 -0.29700187705E+02 -0.14505991839E+02  0.42182814168E+02  0.47000000000E+01 0. -1.
        -11    1    6    6    0    0 -0.33294458916E+01  0.20685817422E+02  0.42101459469E+02  0.47026813009E+02  0.00000000000E+00 0.  1.
         12    1    6    6    0    0  0.16443141794E+02 -0.73320010640E+02  0.17053792245E+03  0.18635821384E+03  0.00000000000E+00 0. -1.
         -5    1    3    3    0  503  0.22839965930E+02  0.41362165980E+02 -0.47544451148E+02  0.67194178715E+02  0.47000000000E+01 0.  1.
         13    1    4    4    0    0 -0.13041259457E+02  0.55485329894E+02  0.27772773916E+02  0.63403653307E+02  0.00000000000E+00 0. -1.
        -14    1    4    4    0    0  0.28708259378E+01 -0.14513114952E+02  0.63253126174E+02  0.64960219504E+02  0.00000000000E+00 0.  1.
</event>
<event>
12    1  0.1627564E-001  0.2149449E+03  0.7818608E-02  0.1137758E+00
         21   -1    0    0  503  502  0.00000000000E+00  0.00000000000E+00  0.33457900526E+02  0.33457900526E+02  0.00000000000E+00 0. -1.
         21   -1    0    0  501  503 -0.00000000000E+00 -0.00000000000E+00 -0.14759439415E+04  0.14759439415E+04  0.00000000000E+00 0. -1.
          6    2    1    2  501    0  0.79034759730E+02  0.10172628586E+03 -0.91480883356E+03  0.93972149763E+03  0.17206557084E+03 0.  0.
         24    2    3    3    0    0  0.70544528875E+02  0.52392588673E+01 -0.62659512170E+03  0.63563094516E+03  0.80007946602E+02 0.  0.
         -6    2    1    2    0  502 -0.79034759730E+02 -0.10172628586E+03 -0.52767720736E+03  0.56968034434E+03  0.17174902934E+03 0.  0.
        -24    2    5    5    0    0 -0.32006378823E+02 -0.36195125764E+02 -0.44702202315E+03  0.45551664479E+03  0.73022113694E+02 0.  0.
          5    1    3    3  501    0  0.84902308551E+01  0.96487026993E+02 -0.28821371187E+03  0.30409055248E+03  0.47000000000E+01 0. -1.
        -11    1    4    4    0    0  0.33299704852E+01 -0.10412646090E+02 -0.36258577413E+03  0.36275054170E+03  0.00000000000E+00 0.  1.
         12    1    4    4    0    0  0.67214558390E+02  0.15651904957E+02 -0.26400934757E+03  0.27288040346E+03  0.00000000000E+00 0. -1.
         -5    1    5    5    0  502 -0.47028380907E+02 -0.65531160096E+02 -0.80655184212E+02  0.11416369955E+03  0.47000000000E+01 0.  1.
         11    1    6    6    0    0 -0.23023167868E+02 -0.57542996436E+02 -0.36753325166E+03  0.37272235480E+03  0.00000000000E+00 0. -1.
        -12    1    6    6    0    0 -0.89832109557E+01  0.21347870672E+02 -0.79488771493E+02  0.82794289989E+02  0.00000000000E+00 0.  1.
</event>
<event>
12    1  0.1627564E-001  0.3057808E+03  0.7818608E-02  0.1082448E+00
         21   -1    0    0  501  502  0.00000000000E+00  0.00000000000E+00  0.43117034270E+03  0.43117034270E+03  0.00000000000E+00 0. -1.
         21   -1    0    0  502  503 -0.00000000000E+00 -0.00000000000E+00 -0.26106371718E+03  0.26106371718E+03  0.00000000000E+00 0.  1.
         -6    2    1    2    0  503 -0.24937093282E+03  0.44902178628E+02 -0.57892424975E+02  0.31121281232E+03  0.17117188408E+03 0.  0.
        -24    2    3    3    0    0 -0.10901392253E+03  0.71241896381E+02  0.10217848612E+02  0.15292519297E+03  0.79512685219E+02 0.  0.
          6    2    1    2  501    0  0.24937093282E+03 -0.44902178628E+02  0.22799905050E+03  0.38102124756E+03  0.17026907025E+03 0.  0.
         24    2    5    5    0    0  0.13166509458E+03  0.13557050906E+02  0.18856912662E+03  0.24372975194E+03  0.79538579987E+02 0.  0.
          5    1    5    5  501    0  0.11770583824E+03 -0.58459229534E+02  0.39429923883E+02  0.13729149562E+03  0.47000000000E+01 0. -1.
        -11    1    6    6    0    0  0.20370462807E+02 -0.91384932330E+01 -0.14249559627E+01  0.22371819618E+02  0.00000000000E+00 0.  1.
         12    1    6    6    0    0  0.11129463177E+03  0.22695544139E+02  0.18999408258E+03  0.22135793232E+03  0.00000000000E+00 0. -1.
         -5    1    3    3    0  503 -0.14035701029E+03 -0.26339717753E+02 -0.68110273587E+02  0.15828761934E+03  0.47000000000E+01 0.  1.
         11    1    4    4    0    0 -0.11454397700E+03  0.70358956673E+02 -0.72091677587E+01  0.13462049455E+03  0.00000000000E+00 0. -1.
        -12    1    4    4    0    0  0.55300544731E+01  0.88293970775E+00  0.17427016371E+02  0.18304698429E+02  0.00000000000E+00 0.  1.
</event>
<event>
12    1  0.1627564E-001  0.2163915E+03  0.7818608E-02  0.1137758E+00
         21   -1    0    0  501  502  0.00000000000E+00  0.00000000000E+00  0.25494602986E+03  0.25494602986E+03  0.00000000000E+00 0.  1.
         21   -1    0    0  502  503 -0.00000000000E+00 -0.00000000000E+00 -0.19633196512E+03  0.19633196512E+03  0.00000000000E+00 0.  1.
         -6    2    1    2    0  503  0.11271419024E+03  0.42649564766E+02 -0.38818982556E+02  0.21396287519E+03  0.17248108446E+03 0.  0.
        -24    2    3    3    0    0  0.87247916251E+02  0.18498555221E+02  0.41010817065E+02  0.12663195695E+03  0.79996062211E+02 0.  0.
          6    2    1    2  501    0 -0.11271419024E+03 -0.42649564766E+02  0.97433047291E+02  0.23731511979E+03  0.17972699664E+03 0.  0.
         24    2    5    5    0    0 -0.13274870880E+03  0.14570846107E+02  0.73008748823E+02  0.17178502205E+03  0.79657310714E+02 0.  0.
          5    1    5    5  501    0  0.20034518564E+02 -0.57220410873E+02  0.24424298468E+02  0.65530097743E+02  0.47000000000E+01 0. -1.
        -11    1    6    6    0    0 -0.29959899190E+02  0.64721302223E+01  0.60629881411E+02  0.67937225061E+02  0.00000000000E+00 0.  1.
         12    1    6    6    0    0 -0.10278880961E+03  0.80987158843E+01  0.12378867412E+02  0.10384779699E+03  0.00000000000E+00 0. -1.
         -5    1    3    3    0  503  0.25466273987E+02  0.24151009545E+02 -0.79829799620E+02  0.87330918238E+02  0.47000000000E+01 0.  1.
         13    1    4    4    0    0  0.62324214450E+02  0.35117420294E+01  0.64118794590E+02  0.89486646258E+02  0.00000000000E+00 0. -1.
        -14    1    4    4    0    0  0.24923701801E+02  0.14986813191E+02 -0.23107977525E+02  0.37145310692E+02  0.00000000000E+00 0.  1.
</event>
<event>
12    1  0.1627564E-001  0.1795895E+03  0.7818608E-02  0.1168687E+00
         21   -1    0    0  503  502  0.00000000000E+00  0.00000000000E+00  0.24342213232E+03  0.24342213232E+03  0.00000000000E+00 0.  1.
         21   -1    0    0  501  503 -0.00000000000E+00 -0.00000000000E+00 -0.13222646708E+03  0.13222646708E+03  0.00000000000E+00 0. -1.
          6    2    1    2  501    0 -0.19132009923E+02  0.41339158026E+02  0.38046494361E+02  0.18357534694E+03  0.17371647153E+03 0.  0.
         24    2    3    3    0    0 -0.52524104414E+02  0.26883429123E+02  0.79312199798E+02  0.12835806235E+03  0.81877144719E+02 0.  0.
         -6    2    1    2    0  502  0.19132009923E+02 -0.41339158026E+02  0.73149170880E+02  0.19207325245E+03  0.17165772140E+03 0.  0.
        -24    2    5    5    0    0 -0.41503269781E+02 -0.49155155713E+02  0.79787245323E+02  0.13039764142E+03  0.80615070766E+02 0.  0.
          5    1    3    3  501    0  0.33392094491E+02  0.14455728903E+02 -0.41265705438E+02  0.55217284594E+02  0.47000000000E+01 0. -1.
        -11    1    4    4    0    0 -0.47319833873E+01  0.36058495347E+02  0.69895097104E+02  0.78790426783E+02  0.00000000000E+00 0.  1.
         12    1    4    4    0    0 -0.47792121027E+02 -0.91750662242E+01  0.94171026941E+01  0.49567635566E+02  0.00000000000E+00 0. -1.
         -5    1    5    5    0  502  0.60635279705E+02  0.78159976875E+01 -0.66380744430E+01  0.61675611039E+02  0.47000000000E+01 0.  1.
         11    1    6    6    0    0  0.18354806244E+01 -0.58491532187E+02  0.40567475366E+02  0.71206378818E+02  0.00000000000E+00 0. -1.
        -12    1    6    6    0    0 -0.43338750406E+02  0.93363764741E+01  0.39219769957E+02  0.59191262597E+02  0.00000000000E+00 0.  1.
</event>
<event>
12    1  0.1627564E-001  0.1894727E+03  0.7818608E-02  0.1160196E+00
         21   -1    0    0  501  502  0.00000000000E+00  0.00000000000E+00  0.15680607302E+04  0.15680607302E+04  0.00000000000E+00 0.  1.
         21   -1    0    0  502  503 -0.00000000000E+00 -0.00000000000E+00 -0.28909082895E+02  0.28909082895E+02  0.00000000000E+00 0. -1.
         -6    2    1    2    0  503 -0.72114124684E+02  0.34676787909E+02  0.37735857284E+03  0.41982791968E+03  0.16568965885E+03 0.  0.
        -24    2    3    3    0    0 -0.99265240795E+02  0.95877783550E+00  0.18766725758E+03  0.22520270961E+03  0.75118263853E+02 0.  0.
          6    2    1    2  501    0  0.72114124684E+02 -0.34676787909E+02  0.11617930744E+04  0.11771418934E+04  0.17174679839E+03 0.  0.
         24    2    5    5    0    0  0.62910744044E+02 -0.67071339094E+02  0.51119094849E+03  0.52565181254E+03  0.80853670036E+02 0.  0.
          5    1    5    5  501    0  0.92033806394E+01  0.32394551185E+02  0.65060212595E+03  0.65149008086E+03  0.47000000000E+01 0. -1.
        -11    1    6    6    0    0  0.78978759922E+02 -0.34612978485E+02  0.36047053344E+03  0.37064094252E+03  0.00000000000E+00 0.  1.
         12    1    6    6    0    0 -0.16068015878E+02 -0.32458360609E+02  0.15072041505E+03  0.15501087001E+03  0.00000000000E+00 0. -1.
         -5    1    3    3    0  503  0.27151116111E+02  0.33718010074E+02  0.18969131526E+03  0.19462521007E+03  0.47000000000E+01 0.  1.
         11    1    4    4    0    0 -0.50381821172E+02 -0.21795965764E+02  0.14917051968E+03  0.15895041984E+03  0.00000000000E+00 0. -1.
        -12    1    4    4    0    0 -0.48883419623E+02  0.22754743600E+02  0.38496737904E+02  0.66252289769E+02  0.00000000000E+00 0.  1.
</event>
<event>
12    1  0.1627564E-001  0.1872966E+03  0.7818608E-02  0.1161685E+00
         21   -1    0    0  503  502  0.00000000000E+00  0.00000000000E+00  0.26965824638E+02  0.26965824638E+02  0.00000000000E+00 0.  1.
         21   -1    0    0  501  503 -0.00000000000E+00 -0.00000000000E+00 -0.12997358442E+04  0.12997358442E+04  0.00000000000E+00 0. -1.
          6    2    1    2  501    0 -0.63580629441E+02  0.14168354947E+02 -0.71627657567E+03  0.73953478077E+03  0.17209392896E+03 0.  0.
         24    2    3    3    0    0 -0.78702549789E+02 -0.43438826072E+02 -0.29365281541E+03  0.31270906398E+03  0.58940306563E+02 0.  0.
         -6    2    1    2    0  502  0.63580629441E+02 -0.14168354947E+02 -0.55649344385E+03  0.58716688803E+03  0.17560399378E+03 0.  0.
        -24    2    5    5    0    0 -0.19068934204E+02 -0.51184597309E+02 -0.27352047205E+03  0.29001886879E+03  0.79460734773E+02 0.  0.
          5    1    3    3  501    0  0.15121920348E+02  0.57607181019E+02 -0.42262376026E+03  0.42682571679E+03  0.47000000000E+01 0. -1.
        -13    1    4    4    0    0 -0.18155031065E+01 -0.10021213680E+02 -0.36292166137E+01  0.10811659835E+02  0.00000000000E+00 0.  1.
         14    1    4    4    0    0 -0.76887046683E+02 -0.33417612392E+02 -0.29002359880E+03  0.30189740414E+03  0.00000000000E+00 0. -1.
         -5    1    5    5    0  502  0.82649563645E+02  0.37016242362E+02 -0.28297297180E+03  0.29714801924E+03  0.47000000000E+01 0.  1.
         13    1    6    6    0    0  0.84675842298E+01 -0.63761418883E+02 -0.15783260194E+03  0.17043576138E+03  0.00000000000E+00 0. -1.
        -14    1    6    6    0    0 -0.27536518434E+02  0.12576821574E+02 -0.11568787010E+03  0.11958310741E+03  0.00000000000E+00 0.  1.
</event>
<event>
12    1  0.1627564E-001  0.2354859E+03  0.7818608E-02  0.1122900E+00
         21   -1    0    0  501  502  0.00000000000E+00  0.00000000000E+00  0.17699936372E+03  0.17699936372E+03  0.00000000000E+00 0. -1.
         21   -1    0    0  502  503 -0.00000000000E+00 -0.00000000000E+00 -0.39597569431E+03  0.39597569431E+03  0.00000000000E+00 0. -1.
         -6    2    1    2    0  503 -0.12958707550E+03  0.96369761524E+02 -0.24085324595E+03  0.33684403624E+03  0.17138750710E+03 0.  0.
        -24    2    3    3    0    0 -0.14306146293E+03  0.90452795605E+02 -0.13673867413E+03  0.23158956523E+03  0.79296729521E+02 0.  0.
          6    2    1    2  501    0  0.12958707550E+03 -0.96369761524E+02  0.21876915363E+02  0.23613102179E+03  0.17087808214E+03 0.  0.
         24    2    5    5    0    0  0.29004484201E+02 -0.13729953733E+02 -0.37390432538E+02  0.93019512712E+02  0.78897487707E+02 0.  0.
          5    1    5    5  501    0  0.10058259130E+03 -0.82639807791E+02  0.59267347901E+02  0.14311150908E+03  0.47000000000E+01 0. -1.
        -11    1    6    6    0    0  0.40071272312E+02  0.23415555512E+02 -0.20804595320E+02  0.50860852244E+02  0.00000000000E+00 0.  1.
         12    1    6    6    0    0 -0.11066788111E+02 -0.37145509245E+02 -0.16585837218E+02  0.42158660468E+02  0.00000000000E+00 0. -1.
         -5    1    3    3    0  503  0.13474387428E+02  0.59169659186E+01 -0.10411457181E+03  0.10525447100E+03  0.47000000000E+01 0.  1.
         11    1    4    4    0    0 -0.36564215857E+02  0.69226828481E+02 -0.59358196778E+02  0.98248110351E+02  0.00000000000E+00 0. -1.
        -12    1    4    4    0    0 -0.10649724707E+03  0.21225967124E+02 -0.77380477357E+02  0.13334145488E+03  0.00000000000E+00 0.  1.
</event>
<event>
12    1  0.1627564E-001  0.2204250E+03  0.7818608E-02  0.1134326E+00
         21   -1    0    0  501  502  0.00000000000E+00  0.00000000000E+00  0.11278436382E+03  0.11278436382E+03  0.00000000000E+00 0. -1.
         21   -1    0    0  502  503 -0.00000000000E+00 -0.00000000000E+00 -0.46871975893E+03  0.46871975893E+03  0.00000000000E+00 0. -1.
         -6    2    1    2    0  503 -0.11854221785E+03  0.58506410744E+02 -0.26735080361E+03  0.34394484176E+03  0.17130774786E+03 0.  0.
        -24    2    3    3    0    0 -0.12065294353E+03  0.90750677155E+02 -0.25907505960E+03  0.31025915017E+03  0.79674560392E+02 0.  0.
          6    2    1    2  501    0  0.11854221785E+03 -0.58506410744E+02 -0.88584591502E+02  0.23755928099E+03  0.17638572682E+03 0.  0.
         24    2    5    5    0    0  0.12500959668E+03 -0.96579530746E+02 -0.52694173836E+02  0.18462912384E+03  0.79725983176E+02 0.  0.
          5    1    5    5  501    0 -0.64673788357E+01  0.38073120001E+02 -0.35890417666E+02  0.52930157150E+02  0.47000000000E+01 0. -1.
        -13    1    6    6    0    0 -0.60438580244E+01  0.50835430228E+01 -0.11113805016E+02  0.13634048974E+02  0.00000000000E+00 0.  1.
         14    1    6    6    0    0  0.13105345471E+03 -0.10166307377E+03 -0.41580368820E+02  0.17099507487E+03  0.00000000000E+00 0. -1.
         -5    1    3    3    0  503  0.21107256801E+01 -0.32244266411E+02 -0.82757440109E+01  0.33685691595E+02  0.47000000000E+01 0.  1.
         11    1    4    4    0    0 -0.21299175780E+02  0.55578410607E+02 -0.13449705501E+03  0.14707845668E+03  0.00000000000E+00 0. -1.
        -12    1    4    4    0    0 -0.99353767746E+02  0.35172266549E+02 -0.12457800459E+03  0.16318069348E+03  0.00000000000E+00 0.  1.
</event>
<event>
12    1  0.1627564E-001  0.2096635E+03  0.7818608E-02  0.1141937E+00
         21   -1    0    0  503  502  0.00000000000E+00  0.00000000000E+00  0.59336828056E+03  0.59336828056E+03  0.00000000000E+00 0. -1.
         21   -1    0    0  501  503 -0.00000000000E+00 -0.00000000000E+00 -0.13222756300E+03  0.13222756300E+03  0.00000000000E+00 0. -1.
          6    2    1    2  501    0 -0.11982511771E+03  0.18448107709E+01 -0.10554193382E+02  0.20940317038E+03  0.17139671703E+03 0.  0.
         24    2    3    3    0    0 -0.22027068654E+02  0.46574429694E+02  0.22877193228E+02  0.96686956739E+02  0.78553372802E+02 0.  0.
         -6    2    1    2    0  502  0.11982511771E+03 -0.18448107709E+01  0.47169491094E+03  0.51619267317E+03  0.17203873015E+03 0.  0.
        -24    2    5    5    0    0  0.12582493221E+03 -0.13010163475E+02  0.29137029267E+03  0.33536203188E+03  0.10756331651E+03 0.  0.
          5    1    3    3  501    0 -0.97798049051E+02 -0.44729618923E+02 -0.33431386610E+02  0.11271621364E+03  0.47000000000E+01 0. -1.
        -11    1    4    4    0    0  0.10815662309E+02  0.48270564001E+02 -0.96856431731E+01  0.50406721614E+02  0.00000000000E+00 0.  1.
         12    1    4    4    0    0 -0.32842730963E+02 -0.16961343074E+01  0.32562836401E+02  0.46280235125E+02  0.00000000000E+00 0. -1.
         -5    1    5    5    0  502 -0.59998145072E+01  0.11165352704E+02  0.18032461827E+03  0.18083064129E+03  0.47000000000E+01 0.  1.
         11    1    6    6    0    0  0.16515862730E+02  0.73512777902E+01 -0.50531262224E+01  0.18770964053E+02  0.00000000000E+00 0. -1.
        -12    1    6    6    0    0  0.10930906948E+03 -0.20361441266E+02  0.29642341889E+03  0.31659106783E+03  0.00000000000E+00 0.  1.
</event>
<event>
12    1  0.1627564E-001  0.2046286E+03  0.7818608E-02  0.1146913E+00
         21   -1    0    0  501  502  0.00000000000E+00  0.00000000000E+00  0.48922035888E+02  0.48922035888E+02  0.00000000000E+00 0.  1.
         21   -1    0    0  502  503 -0.00000000000E+00 -0.00000000000E+00 -0.95525827474E+03  0.95525827474E+03  0.00000000000E+00 0.  1.
         -6    2    1    2    0  503 -0.99655969528E+02  0.21552818727E+02 -0.63579863663E+03  0.66791672652E+03  0.17741761743E+03 0.  0.
        -24    2    3    3    0    0 -0.54117155153E+02  0.11497653481E+01 -0.14463947772E+03  0.17420681415E+03  0.80606743748E+02 0.  0.
          6    2    1    2  501    0  0.99655969528E+02 -0.21552818727E+02 -0.27053760222E+03  0.33626358410E+03  0.17171711481E+03 0.  0.
         24    2    5    5    0    0  0.76834583856E+02  0.24823371726E+02 -0.25943609268E+03  0.28318910625E+03  0.79807459892E+02 0.  0.
          5    1    5    5  501    0  0.22821385672E+02 -0.46376190453E+02 -0.11101509542E+02  0.53074477850E+02  0.47000000000E+01 0. -1.
        -13    1    6    6    0    0  0.19405007348E+02  0.22370994199E+01 -0.34078198847E+01  0.19828569297E+02  0.00000000000E+00 0.  1.
         14    1    6    6    0    0  0.57429576508E+02  0.22586272306E+02 -0.25602827279E+03  0.26336053695E+03  0.00000000000E+00 0. -1.
         -5    1    3    3    0  503 -0.45538814375E+02  0.20403053379E+02 -0.49115915890E+03  0.49370991237E+03  0.47000000000E+01 0.  1.
         11    1    4    4    0    0  0.28347864939E+00 -0.28616350711E+02 -0.19756019601E+02  0.34774648793E+02  0.00000000000E+00 0. -1.
        -12    1    4    4    0    0 -0.54400633802E+02  0.29766116059E+02 -0.12488345812E+03  0.13943216536E+03  0.00000000000E+00 0.  1.
</event>
<event>
12    1  0.1627564E-001  0.1908531E+03  0.7818608E-02  0.1159300E+00
         21   -1    0    0  503  502  0.00000000000E+00  0.00000000000E+00  0.30592029351E+03  0.30592029351E+03  0.00000000000E+00 0.  1.
         21   -1    0    0  501  503 -0.00000000000E+00 -0.00000000000E+00 -0.20974809233E+03  0.20974809233E+03  0.00000000000E+00 0.  1.
          6    2    1    2  501    0  0.39656152942E+02 -0.79183631016E+02 -0.12593198974E+03  0.22282851229E+03  0.16109320893E+03 0.  0.
         24    2    3    3    0    0  0.29523568385E+01  0.22677641247E+01 -0.53594985313E+01  0.72690861936E+02  0.72397361964E+02 0.  0.
         -6    2    1    2    0  502 -0.39656152942E+02  0.79183631016E+02  0.22210419092E+03  0.29283987355E+03  0.16906289371E+03 0.  0.
        -24    2    5    5    0    0  0.25910413679E+02  0.34015359537E+02  0.49974211543E+02  0.10312965451E+03  0.79434939406E+02 0.  0.
          5    1    3    3  501    0  0.36703796104E+02 -0.81451395141E+02 -0.12057249120E+03  0.15013765036E+03  0.47000000000E+01 0. -1.
        -13    1    4    4    0    0  0.21172980183E+01 -0.53488647309E+01 -0.38371994602E+02  0.38800815385E+02  0.00000000000E+00 0.  1.
         14    1    4    4    0    0  0.83505882013E+00  0.76166288556E+01  0.33012496071E+02  0.33890046550E+02  0.00000000000E+00 0. -1.
         -5    1    5    5    0  502 -0.65566566621E+02  0.45168271480E+02  0.17212997938E+03  0.18971021904E+03  0.47000000000E+01 0.  1.
         11    1    6    6    0    0  0.52608566579E+02  0.29147839294E+02  0.21699278544E+02  0.63938380510E+02  0.00000000000E+00 0. -1.
        -12    1    6    6    0    0 -0.26698152900E+02  0.48675202430E+01  0.28274932999E+02  0.39191273999E+02  0.00000000000E+00 0.  1.
</event>
<event>
12    1  0.1627564E-001  0.2520710E+03  0.7818608E-02  0.1112178E+00
         21   -1    0    0  501  502  0.00000000000E+00  0.00000000000E+00  0.63722279183E+03  0.63722279183E+03  0.00000000000E+00 0.  1.
         21   -1    0    0  502  503 -0.00000000000E+00 -0.00000000000E+00 -0.20668315729E+03  0.20668315729E+03  0.00000000000E+00 0.  1.
         -6    2    1    2    0  503  0.15050629887E+03  0.10359937264E+03 -0.88684198629E+02  0.26721649134E+03  0.17365134652E+03 0.  0.
        -24    2    3    3    0    0  0.24146368618E+02  0.39665050791E+02 -0.84292352594E+02  0.12545680809E+03  0.80485070784E+02 0.  0.
          6    2    1    2  501    0 -0.15050629887E+03 -0.10359937264E+03  0.51922383317E+03  0.57668945777E+03  0.17202431737E+03 0.  0.
         24    2    5    5    0    0 -0.18475181759E+02 -0.85861301860E+02  0.23038332099E+03  0.25857346239E+03  0.77911907725E+02 0.  0.
          5    1    5    5  501    0 -0.13203111711E+03 -0.17738070777E+02  0.28884051218E+03  0.31811599538E+03  0.47000000000E+01 0. -1.
        -11    1    6    6    0    0 -0.35707357567E+02 -0.70984812607E+02  0.10794793253E+03  0.13403960289E+03  0.00000000000E+00 0.  1.
         12    1    6    6    0    0  0.17232175809E+02 -0.14876489254E+02  0.12243538845E+03  0.12453385950E+03  0.00000000000E+00 0. -1.
         -5    1    3    3    0  503  0.12635993025E+03  0.63934321847E+02 -0.43918460347E+01  0.14175968325E+03  0.47000000000E+01 0.  1.
         13    1    4    4    0    0 -0.42993468228E+01 -0.23298450914E+02 -0.18606662441E+02  0.30124908055E+02  0.00000000000E+00 0. -1.
        -14    1    4    4    0    0  0.28445715440E+02  0.62963501705E+02 -0.65685690153E+02  0.95331900037E+02  0.00000000000E+00 0.  1.
</event>
<event>
12    1  0.1627564E-001  0.1826067E+03  0.7818608E-02  0.1166319E+00
         21   -1    0    0  501  502  0.00000000000E+00  0.00000000000E+00  0.10045548624E+03  0.10045548624E+03  0.00000000000E+00 0. -1.
         21   -1    0    0  502  503 -0.00000000000E+00 -0.00000000000E+00 -0.37945625105E+03  0.37945625105E+03  0.00000000000E+00 0. -1.
         -6    2    1    2    0  503 -0.41873958200E+02 -0.18262518803E+02 -0.23236337355E+03  0.29552996243E+03  0.17680009434E+03 0.  0.
        -24    2    3    3    0    0  0.42709642275E+02 -0.35060925250E+02 -0.12661389687E+03  0.15899566730E+03  0.78709347079E+02 0.  0.
          6    2    1    2  501    0  0.41873958200E+02  0.18262518803E+02 -0.46637391263E+02  0.18438177486E+03  0.17243736448E+03 0.  0.
         24    2    5    5    0    0  0.36665627936E+02  0.58009033905E+02 -0.80694515842E+02  0.13157183354E+03  0.78039260689E+02 0.  0.
          5    1    5    5  501    0  0.52083302634E+01 -0.39746515102E+02  0.34057124579E+02  0.52809941313E+02  0.47000000000E+01 0. -1.
        -13    1    6    6    0    0 -0.50150506721E+00  0.20183531449E+02 -0.75655478793E+02  0.78303115650E+02  0.00000000000E+00 0.  1.
         14    1    6    6    0    0  0.37167133003E+02  0.37825502457E+02 -0.50390370488E+01  0.53268717895E+02  0.00000000000E+00 0. -1.
         -5    1    3    3    0  503 -0.84583600475E+02  0.16798406447E+02 -0.10574947668E+03  0.13653429513E+03  0.47000000000E+01 0.  1.
         11    1    4    4    0    0  0.34998742056E+02 -0.54453133906E+02 -0.12125246496E+03  0.13744895779E+03  0.00000000000E+00 0. -1.
        -12    1    4    4    0    0  0.77109002191E+01  0.19392208656E+02 -0.53614319058E+01  0.21546709513E+02  0.00000000000E+00 0.  1.
</event>
<event>
12    1  0.1627564E-001  0.1870935E+03  0.7818608E-02  0.1161189E+00
         21   -1    0    0  501  502  0.00000000000E+00  0.00000000000E+00  0.74769252546E+02  0.74769252546E+02  0.00000000000E+00 0.  1.
         21   -1    0    0  502  503 -0.00000000000E+00 -0.00000000000E+00 -0.73901779782E+03  0.73901779782E+03  0.00000000000E+00 0. -1.
         -6    2    1    2    0  503 -0.70948404317E+02  0.15477999387E+02 -0.57904488560E+03  0.60852029395E+03  0.17242599595E+03 0.  0.
        -24    2    3    3    0    0 -0.51575700135E+02  0.27568974152E+02 -0.57678159372E+03  0.58509582324E+03  0.78993761392E+02 0.  0.
          6    2    1    2  501    0  0.70948404317E+02 -0.15477999387E+02 -0.85203659678E+02  0.20526675641E+03  0.17205096084E+03 0.  0.
         24    2    5    5    0    0 -0.42952217611E+01 -0.40957611273E+01  0.11801295700E+02  0.81884383357E+02  0.80811864651E+02 0.  0.
          5    1    5    5  501    0  0.75243626078E+02 -0.11382238260E+02 -0.97004955378E+02  0.12338237306E+03  0.47000000000E+01 0. -1.
        -11    1    6    6    0    0 -0.87741562691E+01  0.37321451813E+02  0.12169589999E+02  0.40224066234E+02  0.00000000000E+00 0.  1.
         12    1    6    6    0    0  0.44789345080E+01 -0.41417212940E+02 -0.36829429862E+00  0.41660317123E+02  0.00000000000E+00 0. -1.
         -5    1    3    3    0  503 -0.19372704182E+02 -0.12090974765E+02 -0.22632918768E+01  0.23424470714E+02  0.47000000000E+01 0.  1.
         13    1    4    4    0    0 -0.90866458886E+00  0.11824555116E+02 -0.40797912007E+03  0.40815145251E+03  0.00000000000E+00 0. -1.
        -14    1    4    4    0    0 -0.50667035546E+02  0.15744419036E+02 -0.16880247365E+03  0.17694437072E+03  0.00000000000E+00 0.  1.
</event>
<event>
12    1  0.1627564E-001  0.2144545E+03  0.7818608E-02  0.1138145E+00
         21   -1    0    0  501  502  0.00000000000E+00  0.00000000000E+00  0.49715123058E+03  0.49715123058E+03  0.00000000000E+00 0. -1.
         21   -1    0    0  502  503 -0.00000000000E+00 -0.00000000000E+00 -0.13427261583E+03  0.13427261583E+03  0.00000000000E+00 0. -1.
         -6    2    1    2    0  503 -0.16328196478E+02 -0.12745590236E+03  0.35770387199E+03  0.41690693245E+03  0.17131174286E+03 0.  0.
        -24    2    3    3    0    0 -0.20724386578E+02 -0.13616743010E+03  0.18641830850E+03  0.24527927890E+03  0.80243814066E+02 0.  0.
          6    2    1    2  501    0  0.16328196478E+02  0.12745590236E+03  0.51747427609E+01  0.21451691395E+03  0.17169482043E+03 0.  0.
         24    2    5    5    0    0 -0.28054770664E+02  0.46454319570E+02  0.55259692856E+02  0.10934231430E+03  0.77181824791E+02 0.  0.
          5    1    5    5  501    0  0.44382967141E+02  0.81001582786E+02 -0.50084950095E+02  0.10517459965E+03  0.47000000000E+01 0. -1.
        -13    1    6    6    0    0  0.25940033658E+02  0.25208256162E+02  0.24293530456E+02  0.43571976624E+02  0.00000000000E+00 0.  1.
         14    1    6    6    0    0 -0.53994804322E+02  0.21246063408E+02  0.30966162400E+02  0.65770337675E+02  0.00000000000E+00 0. -1.
         -5    1    3    3    0  503  0.43961901004E+01  0.87115277388E+01  0.17128556349E+03  0.17162765355E+03  0.47000000000E+01 0.  1.
         13    1    4    4    0    0 -0.39577262328E+02 -0.12830464053E+03  0.17852096581E+03  0.22337899568E+03  0.00000000000E+00 0. -1.
        -14    1    4    4    0    0  0.18852875750E+02 -0.78627895643E+01  0.78973426911E+01  0.21900283225E+02  0.00000000000E+00 0.  1.
</event>
<event>
12    1  0.1627564E-001  0.1795185E+03  0.7818608E-02  0.1168360E+00
         21   -1    0    0  503  502  0.00000000000E+00  0.00000000000E+00  0.14298124981E+04  0.14298124981E+04  0.00000000000E+00 0. -1.
         21   -1    0    0  501  503 -0.00000000000E+00 -0.00000000000E+00 -0.66880708986E+02  0.66880708986E+02  0.00000000000E+00 0. -1.
          6    2    1    2  501    0 -0.22118444528E+02 -0.47217991336E+02  0.71572538056E+02  0.19291576715E+03  0.17139165883E+03 0.  0.
         24    2    3    3    0    0  0.57999489053E+01 -0.63727496350E+01  0.10541068063E+03  0.13279189207E+03  0.80299586952E+02 0.  0.
         -6    2    1    2    0  502  0.22118444528E+02  0.47217991336E+02  0.12913592511E+04  0.13037774399E+04  0.17177931568E+03 0.  0.
        -24    2    5    5    0    0  0.26520757546E+02  0.88739565759E+02  0.11434172062E+04  0.11499842016E+04  0.80515188135E+02 0.  0.
          5    1    3    3  501    0 -0.27918393433E+02 -0.40845241701E+02 -0.33838142573E+02  0.60123875077E+02  0.47000000000E+01 0. -1.
        -11    1    4    4    0    0 -0.31488055395E+02  0.17504063563E+02  0.40335497426E+02  0.54081810495E+02  0.00000000000E+00 0.  1.
         12    1    4    4    0    0  0.37288004301E+02 -0.23876813198E+02  0.65075183203E+02  0.78710081579E+02  0.00000000000E+00 0. -1.
         -5    1    5    5    0  502 -0.44023130182E+01 -0.41521574423E+02  0.14794204487E+03  0.15379323829E+03  0.47000000000E+01 0.  1.
         11    1    6    6    0    0 -0.16247972969E+02  0.68190860929E+02  0.83512923432E+03  0.83806612397E+03  0.00000000000E+00 0. -1.
        -12    1    6    6    0    0  0.42768730515E+02  0.20548704830E+02  0.30828797187E+03  0.31191807767E+03  0.00000000000E+00 0.  1.
</event>
<event>
12    1  0.1627564E-001  0.3520155E+03  0.7818608E-02  0.1061796E+00
         21   -1    0    0  503  502  0.00000000000E+00  0.00000000000E+00  0.26781080571E+03  0.26781080571E+03  0.00000000000E+00 0.  1.
         21   -1    0    0  501  503 -0.00000000000E+00 -0.00000000000E+00 -0.47879859365E+03  0.47879859365E+03  0.00000000000E+00 0.  1.
          6    2    1    2  501    0  0.20291177637E+03 -0.23054658642E+03 -0.17408080253E+03  0.39266441056E+03  0.17191944628E+03 0.  0.
         24    2    3    3    0    0  0.21279491546E+03 -0.15819441519E+03 -0.15959357434E+03  0.31806894890E+03  0.73420693548E+02 0.  0.
         -6    2    1    2    0  502 -0.20291177637E+03  0.23054658642E+03 -0.36906985423E+02  0.35394498880E+03  0.17201747591E+03 0.  0.
        -24    2    5    5    0    0 -0.80732061763E+02  0.68400418530E+02  0.39115196601E+02  0.13710236249E+03  0.77915185576E+02 0.  0.
          5    1    3    3  501    0 -0.98831390817E+01 -0.72352171232E+02 -0.14487228189E+02  0.74595461663E+02  0.47000000000E+01 0. -1.
        -11    1    4    4    0    0  0.16894825507E+03 -0.13590492490E+03 -0.94608655319E+02  0.23656808568E+03  0.00000000000E+00 0.  1.
         12    1    4    4    0    0  0.43846660390E+02 -0.22289490288E+02 -0.64984919019E+02  0.81500863213E+02  0.00000000000E+00 0. -1.
         -5    1    5    5    0  502 -0.12217971461E+03  0.16214616789E+03 -0.76022182024E+02  0.21684262631E+03  0.47000000000E+01 0.  1.
         11    1    6    6    0    0 -0.55409004959E+02  0.34575689098E+02 -0.16396986260E+02  0.67338675853E+02  0.00000000000E+00 0. -1.
        -12    1    6    6    0    0 -0.25323056804E+02  0.33824729432E+02  0.55512182861E+02  0.69763686636E+02  0.00000000000E+00 0.  1.
</event>
<event>
12    1  0.1627564E-001  0.2039067E+03  0.7818608E-02  0.1147351E+00
         21   -1    0    0  501  502  0.00000000000E+00  0.00000000000E+00  0.42437461981E+03  0.42437461981E+03  0.00000000000E+00 0. -1.
         21   -1    0    0  502  503 -0.00000000000E+00 -0.00000000000E+00 -0.16574714330E+03  0.16574714330E+03  0.00000000000E+00 0.  1.
         -6    2    1    2    0  503 -0.26979962147E+02 -0.97455278617E+02 -0.62881993143E+02  0.20940363674E+03  0.17225065553E+03 0.  0.
        -24    2    3    3    0    0 -0.92651666198E+01 -0.12538705691E+02 -0.87897691713E+02  0.11900168149E+03  0.78691381584E+02 0.  0.
          6    2    1    2  501    0  0.26979962147E+02  0.97455278617E+02  0.32150946966E+03  0.38071812637E+03  0.17706638014E+03 0.  0.
         24    2    5    5    0    0  0.51513718422E+02  0.10777576121E+03  0.32422561416E+03  0.35355408766E+03  0.74893031270E+02 0.  0.
          5    1    5    5  501    0 -0.24533756275E+02 -0.10320482593E+02 -0.27161445042E+01  0.27164038707E+02  0.47000000000E+01 0. -1.
        -11    1    6    6    0    0  0.11557997041E+02  0.95242910024E+02  0.18843625055E+03  0.21145453348E+03  0.00000000000E+00 0.  1.
         12    1    6    6    0    0  0.39955721381E+02  0.12532851186E+02  0.13578936361E+03  0.14209955418E+03  0.00000000000E+00 0. -1.
         -5    1    3    3    0  503 -0.17714795527E+02 -0.84916572925E+02  0.25015698571E+02  0.90401955250E+02  0.47000000000E+01 0.  1.
         13    1    4    4    0    0  0.29131493584E+02  0.13787905177E+02 -0.25213482062E+02  0.40920287454E+02  0.00000000000E+00 0. -1.
        -14    1    4    4    0    0 -0.38396660204E+02 -0.26326610869E+02 -0.62684209652E+02  0.78081394034E+02  0.00000000000E+00 0.  1.
</event>
<event>
12    1  0.1627564E-001  0.2013359E+03  0.7818608E-02  0.1150347E+00
         21   -1    0    0  503  502  0.00000000000E+00  0.00000000000E+00  0.44946314099E+03  0.44946314099E+03  0.00000000000E+00 0.  1.
         21   -1    0    0  501  503 -0.00000000000E+00 -0.00000000000E+00 -0.86599651897E+02  0.86599651897E+02  0.00000000000E+00 0. -1.
          6    2    1    2  501    0 -0.85384787473E+01  0.10670979705E+03  0.17644842573E+03  0.26167856132E+03  0.16087801623E+03 0.  0.
         24    2    3    3    0    0 -0.33011611325E+02  0.32973773409E+02  0.29212583221E+02  0.95136018049E+02  0.77591563308E+02 0.  0.
         -6    2    1    2    0  502  0.85384787473E+01 -0.10670979705E+03  0.18641506336E+03  0.27438423156E+03  0.17051757761E+03 0.  0.
        -24    2    5    5    0    0  0.44843936811E+02 -0.79497899625E+01  0.11306949208E+03  0.14603592377E+03  0.80421409861E+02 0.  0.
          5    1    3    3  501    0  0.24473132578E+02  0.73736023643E+02  0.14723584251E+03  0.16654254327E+03  0.47000000000E+01 0. -1.
        -13    1    4    4    0    0 -0.18924972003E+02  0.13780843042E+02  0.55159398419E+02  0.59921827694E+02  0.00000000000E+00 0.  1.
         14    1    4    4    0    0 -0.14086639322E+02  0.19192930367E+02 -0.25946815198E+02  0.35214190355E+02  0.00000000000E+00 0. -1.
         -5    1    5    5    0  502 -0.36305458063E+02 -0.98760007090E+02  0.73345571282E+02  0.12834830779E+03  0.47000000000E+01 0.  1.
         11    1    6    6    0    0  0.10052565434E+02  0.19014358071E+02 -0.31708604370E+01  0.21740612700E+02  0.00000000000E+00 0. -1.
        -12    1    6    6    0    0  0.34791371377E+02 -0.26964148034E+02  0.11624035252E+03  0.12429531107E+03  0.00000000000E+00 0.  1.
</event>
<event>
12    1  0.1627564E-001  0.2875344E+03  0.7818608E-02  0.1091690E+00
         21   -1    0    0  501  502  0.00000000000E+00  0.00000000000E+00  0.17785887435E+04  0.17785887435E+04  0.00000000000E+00 0.  1.
         21   -1    0    0  502  503 -0.00000000000E+00 -0.00000000000E+00 -0.48939082903E+02  0.48939082903E+02  0.00000000000E+00 0.  1.
         -6    2    1    2    0  503 -0.19529078430E+03  0.12175331038E+03  0.10723456370E+04  0.11102257338E+04  0.17237649427E+03 0.  0.
        -24    2    3    3    0    0 -0.10249593446E+03  0.34560102970E+02  0.77784737297E+03  0.78934435838E+03  0.79486874181E+02 0.  0.
          6    2    1    2  501    0  0.19529078430E+03 -0.12175331038E+03  0.65730402365E+03  0.71730209266E+03  0.17178868881E+03 0.  0.
         24    2    5    5    0    0  0.17325767055E+03 -0.76410361478E+02  0.62829473050E+03  0.65894911325E+03  0.60024176262E+02 0.  0.
          5    1    5    5  501    0  0.22033113751E+02 -0.45342948903E+02  0.29009293157E+02  0.58352979412E+02  0.47000000000E+01 0. -1.
        -11    1    6    6    0    0  0.10538117857E+03 -0.14939858015E+02  0.31131575490E+03  0.32900743366E+03  0.00000000000E+00 0.  1.
         12    1    6    6    0    0  0.67876491973E+02 -0.61470503463E+02  0.31697897559E+03  0.32994167958E+03  0.00000000000E+00 0. -1.
         -5    1    3    3    0  503 -0.92794849842E+02  0.87193207411E+02  0.29449826401E+03  0.32088137540E+03  0.47000000000E+01 0.  1.
         13    1    4    4    0    0  0.12818399272E+02 -0.20033299488E+01  0.91932422507E+02  0.92843389634E+02  0.00000000000E+00 0. -1.
        -14    1    4    4    0    0 -0.11531433373E+03  0.36563432919E+02  0.68591495047E+03  0.69650096874E+03  0.00000000000E+00 0.  1.
</event>
<event>
12    1  0.1627564E-001  0.1824830E+03  0.7818608E-02  0.1165689E+00
         21   -1    0    0  501  502  0.00000000000E+00  0.00000000000E+00  0.71290209844E+03  0.71290209844E+03  0.00000000000E+00 0.  1.
         21   -1    0    0  502  503 -0.00000000000E+00 -0.00000000000E+00 -0.12661837377E+03  0.12661837377E+03  0.00000000000E+00 0.  1.
         -6    2    1    2    0  503 -0.17292144854E+02  0.56783816147E+02 -0.41250311665E+02  0.18599233796E+03  0.17137135559E+03 0.  0.
        -24    2    3    3    0    0 -0.42455946726E+02  0.10506558249E+02  0.32407874062E+02  0.95314778181E+02  0.78241558393E+02 0.  0.
          6    2    1    2  501    0  0.17292144854E+02 -0.56783816147E+02  0.62753403633E+03  0.65352813425E+03  0.17255907816E+03 0.  0.
         24    2    5    5    0    0  0.13801369553E+02 -0.78064115919E+02  0.62169955872E+03  0.63069903441E+03  0.70614776777E+02 0.  0.
          5    1    5    5  501    0  0.34907753012E+01  0.21280299772E+02  0.58344776117E+01  0.22829099842E+02  0.47000000000E+01 0. -1.
        -11    1    6    6    0    0  0.67990153695E+01 -0.85641776495E+02  0.41794678596E+03  0.42668519588E+03  0.00000000000E+00 0.  1.
         12    1    6    6    0    0  0.70023541837E+01  0.75776605757E+01  0.20375277276E+03  0.20401383853E+03  0.00000000000E+00 0. -1.
         -5    1    3    3    0  503  0.25163801871E+02  0.46277257898E+02 -0.73658185727E+02  0.90677559780E+02  0.47000000000E+01 0.  1.
         13    1    4    4    0    0  0.18530925838E+02  0.18658460904E+02  0.12019518437E+01  0.26324476518E+02  0.00000000000E+00 0. -1.
        -14    1    4    4    0    0 -0.60986872564E+02 -0.81519026546E+01  0.31205922218E+02  0.68990301663E+02  0.00000000000E+00 0.  1.
</event>
<event>
12    1  0.1627564E-001  0.3317014E+03  0.7818608E-02  0.1070409E+00
         21   -1    0    0  501  502  0.00000000000E+00  0.00000000000E+00  0.57925494813E+02  0.57925494813E+02  0.00000000000E+00 0. -1.
         21   -1    0    0  502  503 -0.00000000000E+00 -0.00000000000E+00 -0.19821513901E+04  0.19821513901E+04  0.00000000000E+00 0.  1.
         -6    2    1    2    0  503 -0.22353443292E+03 -0.17470663575E+03 -0.11716684520E+04  0.12176605989E+04  0.17146521896E+03 0.  0.
        -24    2    3    3    0    0 -0.13994749833E+03 -0.34831183622E+02 -0.50269281236E+03  0.52910964636E+03  0.80364423948E+02 0.  0.
          6    2    1    2  501    0  0.22353443292E+03  0.17470663575E+03 -0.75255744331E+03  0.82241628608E+03  0.17185980000E+03 0.  0.
         24    2    5    5    0    0  0.21523828447E+03  0.14393377270E+03 -0.73961458027E+03  0.78769737361E+03  0.79956081768E+02 0.  0.
          5    1    5    5  501    0  0.82961484478E+01  0.30772863055E+02 -0.12942863032E+02  0.34718912470E+02  0.47000000000E+01 0. -1.
        -11    1    6    6    0    0  0.18154810627E+03  0.80505935449E+02 -0.51976142119E+03  0.55641068959E+03  0.00000000000E+00 0.  1.
         12    1    6    6    0    0  0.33690178201E+02  0.63427837247E+02 -0.21985315908E+03  0.23128668402E+03  0.00000000000E+00 0. -1.
         -5    1    3    3    0  503 -0.83586934595E+02 -0.13987545213E+03 -0.66897563965E+03  0.68855095250E+03  0.47000000000E+01 0.  1.
         13    1    4    4    0    0 -0.89163658849E+02 -0.59746551071E+02 -0.35836379273E+03  0.37409145454E+03  0.00000000000E+00 0. -1.
        -14    1    4    4    0    0 -0.50783839478E+02  0.24915367449E+02 -0.14432901963E+03  0.15501819182E+03  0.00000000000E+00 0.  1.
</event>
<event>
12    1  0.1627564E-001  0.2252974E+03  0.7818608E-02  0.1130245E+00
         21   -1    0    0  501  502  0.00000000000E+00  0.00000000000E+00  0.78601497883E+02  0.78601497883E+02  0.00000000000E+00 0. -1.
         21   -1    0    0  502  503 -0.00000000000E+00 -0.00000000000E+00 -0.10558430614E+04  0.10558430614E+04  0.00000000000E+00 0. -1.
         -6    2    1    2    0  503  0.48835757918E+02  0.13700006241E+03 -0.84290116784E+03  0.87213506986E+03  0.17024468560E+03 0.  0.
        -24    2    3    3    0    0  0.58477635111E+02  0.16230099861E+03 -0.64941509357E+03  0.67670719542E+03  0.80196113521E+02 0.  0.
          6    2    1    2  501    0 -0.48835757918E+02 -0.13700006241E+03 -0.13434039571E+03  0.26230948946E+03  0.17206097172E+03 0.  0.
         24    2    5    5    0    0 -0.86643956349E+02 -0.60684720569E+02 -0.13086882767E+03  0.17694185477E+03  0.54698806474E+02 0.  0.
          5    1    5    5  501    0  0.37808198431E+02 -0.76315341836E+02 -0.34715680350E+01  0.85367634691E+02  0.47000000000E+01 0. -1.
        -11    1    6    6    0    0 -0.67444264264E+02 -0.41773175083E+02 -0.55282091040E+02  0.96694552734E+02  0.00000000000E+00 0.  1.
         12    1    6    6    0    0 -0.19199692085E+02 -0.18911545486E+02 -0.75586736634E+02  0.80247302035E+02  0.00000000000E+00 0. -1.
         -5    1    3    3    0  503 -0.96418771931E+01 -0.25300936204E+02 -0.19348607427E+03  0.19542787444E+03  0.47000000000E+01 0.  1.
         13    1    4    4    0    0 -0.73789699115E+01  0.41626193050E+02 -0.75237406435E+02  0.86300964490E+02  0.00000000000E+00 0. -1.
        -14    1    4    4    0    0  0.65856605022E+02  0.12067480556E+03 -0.57417768713E+03  0.59040623093E+03  0.00000000000E+00 0.  1.
</event>
<event>
12    1  0.1627564E-001  0.2263199E+03  0.7818608E-02  0.1129263E+00
         21   -1    0    0  501  502  0.00000000000E+00  0.00000000000E+00  0.48706681473E+03  0.48706681473E+03  0.00000000000E+00 0. -1.
         21   -1    0    0  502  503 -0.00000000000E+00 -0.00000000000E+00 -0.34282352675E+03  0.34282352675E+03  0.00000000000E+00 0. -1.
         -6    2    1    2    0  503 -0.14763737336E+03 -0.11311115466E+02 -0.27337977790E+03  0.35488536736E+03  0.17112096790E+03 0.  0.
        -24    2    3    3    0    0 -0.16420814914E+03 -0.50160851913E+02 -0.21720937399E+03  0.28445031282E+03  0.65204608779E+02 0.  0.
          6    2    1    2  501    0  0.14763737336E+03  0.11311115466E+02  0.41762306589E+03  0.47500497412E+03  0.17116064072E+03 0.  0.
         24    2    5    5    0    0  0.10787219324E+03 -0.16543138012E+02  0.14624910418E+03  0.19928220379E+03  0.80090641047E+02 0.  0.
          5    1    5    5  501    0  0.39765180124E+02  0.27854253478E+02  0.27137396171E+03  0.27572277034E+03  0.47000000000E+01 0. -1.
        -11    1    6    6    0    0  0.20244911062E+02 -0.39586235711E+02  0.42027589886E+02  0.61182062676E+02  0.00000000000E+00 0.  1.
         12    1    6    6    0    0  0.87627282175E+02  0.23043097699E+02  0.10422151429E+03  0.13810014111E+03  0.00000000000E+00 0. -1.
         -5    1    3    3    0  503  0.16570775782E+02  0.38849736446E+02 -0.56170403915E+02  0.70435054539E+02  0.47000000000E+01 0.  1.
         11    1    4    4    0    0 -0.97069949276E+02 -0.62200560234E+02 -0.14224561912E+03  0.18309915594E+03  0.00000000000E+00 0. -1.
        -12    1    4    4    0    0 -0.67138199868E+02  0.12039708322E+02 -0.74963754870E+02  0.10135115689E+03  0.00000000000E+00 0.  1.
</event>
<event>
12    1  0.1627564E-001  0.2347010E+03  0.7818608E-02  0.1123862E+00
         21   -1    0    0  501  502  0.00000000000E+00  0.00000000000E+00  0.13823552606E+03  0.13823552606E+03  0.00000000000E+00 0.  1.
         21   -1    0    0  502  503 -0.00000000000E+00 -0.00000000000E+00 -0.50686103127E+03  0.50686103127E+03  0.00000000000E+00 0. -1.
         -6    2    1    2    0  503  0.58633122639E+02 -0.14908822661E+03 -0.32775515258E+02  0.23697847007E+03  0.17152089812E+03 0.  0.
        -24    2    3    3    0    0  0.17219285441E+02 -0.37735938243E+02  0.40783226822E+02  0.97166394152E+02  0.77830146706E+02 0.  0.
          6    2    1    2  501    0 -0.58633122639E+02  0.14908822661E+03 -0.33584998995E+03  0.40811808726E+03  0.16763059093E+03 0.  0.
         24    2    5    5    0    0 -0.44661074181E+02  0.59316363659E+02 -0.28270022079E+03  0.30275588589E+03  0.78921917507E+02 0.  0.
          5    1    5    5  501    0 -0.13972048458E+02  0.89771862947E+02 -0.53149769163E+02  0.10536220137E+03  0.47000000000E+01 0. -1.
        -11    1    6    6    0    0 -0.60250566754E+02  0.16102104198E+02 -0.15804934063E+03  0.16990880680E+03  0.00000000000E+00 0.  1.
         12    1    6    6    0    0  0.15589492572E+02  0.43214259461E+02 -0.12465088016E+03  0.13284707909E+03  0.00000000000E+00 0. -1.
         -5    1    3    3    0  503  0.41413837198E+02 -0.11135228836E+03 -0.73558742080E+02  0.13981207591E+03  0.47000000000E+01 0.  1.
         11    1    4    4    0    0  0.21587086329E+02  0.16780938039E+02 -0.24483492477E+01  0.27451713821E+02  0.00000000000E+00 0. -1.
        -12    1    4    4    0    0 -0.43678008879E+01 -0.54516876282E+02  0.43231576070E+02  0.69714680331E+02  0.00000000000E+00 0.  1.
</event>
<event>
12    1  0.1627564E-001  0.2178892E+03  0.7818608E-02  0.1135540E+00
         21   -1    0    0  503  502  0.00000000000E+00  0.00000000000E+00  0.11664711603E+03  0.11664711603E+03  0.00000000000E+00 0.  1.
         21   -1    0    0  501  503 -0.00000000000E+00 -0.00000000000E+00 -0.40632710518E+03  0.40632710518E+03  0.00000000000E+00 0. -1.
          6    2    1    2  501    0  0.68429530610E+02 -0.11421004567E+03 -0.14762064976E+03  0.26286548906E+03  0.17198800514E+03 0.  0.
         24    2    3    3    0    0  0.81390084743E+02 -0.13347960128E+03 -0.84415795673E+02  0.19536559782E+03  0.81243709908E+02 0.  0.
         -6    2    1    2    0  502 -0.68429530610E+02  0.11421004567E+03 -0.14205933939E+03  0.26010873216E+03  0.17247945225E+03 0.  0.
        -24    2    5    5    0    0  0.24639513512E+02  0.88681360930E+02 -0.83232636142E+02  0.14698830194E+03  0.78780706938E+02 0.  0.
          5    1    3    3  501    0 -0.12960554133E+02  0.19269555614E+02 -0.63204854088E+02  0.67499891239E+02  0.47000000000E+01 0. -1.
        -13    1    4    4    0    0 -0.71110019115E+01 -0.60066077273E+02 -0.20849407420E+02  0.63978103886E+02  0.00000000000E+00 0.  1.
         14    1    4    4    0    0  0.88501086655E+02 -0.73413524006E+02 -0.63566388253E+02  0.13138749393E+03  0.00000000000E+00 0. -1.
         -5    1    5    5    0  502 -0.93069044123E+02  0.25528684735E+02 -0.58826703245E+02  0.11312043022E+03  0.47000000000E+01 0.  1.
         11    1    6    6    0    0 -0.23792508277E+02  0.37031401032E+02 -0.55761901768E+02  0.71040817854E+02  0.00000000000E+00 0. -1.
        -12    1    6    6    0    0  0.48432021789E+02  0.51649959898E+02 -0.27470734373E+02  0.75947484086E+02  0.00000000000E+00 0.  1.
</event>
<event>
12    1  0.1627564E-001  0.1812886E+03  0.7818608E-02  0.1167165E+00
         21   -1    0    0  501  502  0.00000000000E+00  0.00000000000E+00  0.44732974259E+02  0.44732974259E+02  0.00000000000E+00 0. -1.
         21   -1    0    0  502  503 -0.00000000000E+00 -0.00000000000E+00 -0.74359890483E+03  0.74359890483E+03  0.00000000000E+00 0. -1.
         -6    2    1    2    0  503 -0.25245373751E+02 -0.49248545702E+02 -0.41476200338E+03  0.45265117886E+03  0.17263493889E+03 0.  0.
        -24    2    3    3    0    0 -0.43106426725E+02 -0.42430306254E+02 -0.42032137597E+03  0.43219385190E+03  0.80392609192E+02 0.  0.
          6    2    1    2  501    0  0.25245373751E+02  0.49248545702E+02 -0.28410392720E+03  0.33568070024E+03  0.17001100821E+03 0.  0.
         24    2    5    5    0    0 -0.23230757235E+02  0.40241288676E+01 -0.23662380936E+03  0.25400062468E+03  0.89272775724E+02 0.  0.
          5    1    5    5  501    0  0.48476130986E+02  0.45224416835E+02 -0.47480117838E+02  0.81680075559E+02  0.47000000000E+01 0. -1.
        -11    1    6    6    0    0 -0.50144105457E+02  0.39956764092E+01 -0.76011494549E+02  0.91149021090E+02  0.00000000000E+00 0.  1.
         12    1    6    6    0    0  0.26913348222E+02  0.28452458431E-01 -0.16061231481E+03  0.16285160359E+03  0.00000000000E+00 0. -1.
         -5    1    3    3    0  503  0.17861052974E+02 -0.68182394481E+01  0.55593725914E+01  0.20457326955E+02  0.47000000000E+01 0.  1.
         11    1    4    4    0    0 -0.48920738934E+02 -0.54320903429E+01 -0.12237728613E+03  0.13190506611E+03  0.00000000000E+00 0. -1.
        -12    1    4    4    0    0  0.58143122086E+01 -0.36998215911E+02 -0.29794408984E+03  0.30028878580E+03  0.00000000000E+00 0.  1.
</event>
<event>
12    1  0.1627564E-001  0.2523202E+03  0.7818608E-02  0.1112321E+00
         21   -1    0    0  501  502  0.00000000000E+00  0.00000000000E+00  0.41588709781E+03  0.41588709781E+03  0.00000000000E+00 0.  1.
         21   -1    0    0  502  503 -0.00000000000E+00 -0.00000000000E+00 -0.16411533150E+03  0.16411533150E+03  0.00000000000E+00 0. -1.
         -6    2    1    2    0  503  0.16254380218E+03  0.82354926067E+02  0.45415123919E+02  0.25637473408E+03  0.17453552451E+03 0.  0.
        -24    2    3    3    0    0  0.14244335974E+03  0.11873067495E+03  0.25287510994E+02  0.20995885645E+03  0.95163959997E+02 0.  0.
          6    2    1    2  501    0 -0.16254380218E+03 -0.82354926067E+02  0.20635664239E+03  0.32362769524E+03  0.17014405599E+03 0.  0.
         24    2    5    5    0    0 -0.16048953709E+03 -0.88738358719E+02  0.11241392595E+03  0.22932874408E+03  0.79519772955E+02 0.  0.
          5    1    5    5  501    0 -0.20542650970E+01  0.63834326516E+01  0.93942716441E+02  0.94298951160E+02  0.47000000000E+01 0. -1.
        -13    1    6    6    0    0 -0.21999481009E+02  0.58177507111E+00 -0.98701076896E+01  0.24119176037E+02  0.00000000000E+00 0.  1.
         14    1    6    6    0    0 -0.13849005608E+03 -0.89320133790E+02  0.12228403364E+03  0.20520956804E+03  0.00000000000E+00 0. -1.
         -5    1    3    3    0  503  0.20100442445E+02 -0.36375748886E+02  0.20127612924E+02  0.46415877623E+02  0.47000000000E+01 0.  1.
         13    1    4    4    0    0  0.11077965141E+02  0.57228310788E+02 -0.13456852646E+02  0.59823805884E+02  0.00000000000E+00 0. -1.
        -14    1    4    4    0    0  0.13136539460E+03  0.61502364166E+02  0.38744363640E+02  0.15013505057E+03  0.00000000000E+00 0.  1.
</event>
<event>
12    1  0.1627564E-001  0.1782589E+03  0.7818608E-02  0.1170347E+00
         21   -1    0    0  503  502  0.00000000000E+00  0.00000000000E+00  0.22369750810E+03  0.22369750810E+03  0.00000000000E+00 0.  1.
         21   -1    0    0  501  503 -0.00000000000E+00 -0.00000000000E+00 -0.19448153389E+03  0.19448153389E+03  0.00000000000E+00 0.  1.
          6    2    1    2  501    0 -0.28115181952E+02  0.36342380453E+02  0.12604658453E+03  0.21832079662E+03  0.17223529455E+03 0.  0.
         24    2    3    3    0    0 -0.74145021758E+02  0.11025063705E+02  0.39169885805E+02  0.11668732053E+03  0.80390388333E+02 0.  0.
         -6    2    1    2    0  502  0.28115181952E+02 -0.36342380453E+02 -0.96830610328E+02  0.19985824538E+03  0.16868882321E+03 0.  0.
        -24    2    5    5    0    0 -0.26761495447E+02 -0.13040384027E+02 -0.11015834164E+03  0.13858711693E+03  0.78646675030E+02 0.  0.
          5    1    3    3  501    0  0.46029839806E+02  0.25317316748E+02  0.86876698730E+02  0.10163347609E+03  0.47000000000E+01 0. -1.
        -13    1    4    4    0    0 -0.41073132506E+02 -0.69908979467E+01  0.60460015631E+02  0.73425393142E+02  0.00000000000E+00 0.  1.
         14    1    4    4    0    0 -0.33071889252E+02  0.18015961651E+02 -0.21290129826E+02  0.43261927384E+02  0.00000000000E+00 0. -1.
         -5    1    5    5    0  502  0.54876677399E+02 -0.23301996426E+02  0.13327731307E+02  0.61271128451E+02  0.47000000000E+01 0.  1.
         11    1    6    6    0    0 -0.35220346080E+02  0.23846585976E+02 -0.78349303193E+02  0.89150130407E+02  0.00000000000E+00 0. -1.
        -12    1    6    6    0    0  0.84588506325E+01 -0.36886970003E+02 -0.31809038442E+02  0.49436986524E+02  0.00000000000E+00 0.  1.
</event>
<event>
12    1  0.1627564E-001  0.2329109E+03  0.7818608E-02  0.1124782E+00
         21   -1    0    0  501  502  0.00000000000E+00  0.00000000000E+00  0.95274752797E+02  0.95274752797E+02  0.00000000000E+00 0. -1.
         21   -1    0    0  502  503 -0.00000000000E+00 -0.00000000000E+00 -0.11570023048E+04  0.11570023048E+04  0.00000000000E+00 0.  1.
         -6    2    1    2    0  503  0.15235959639E+03 -0.35284459849E+02 -0.97745459047E+03  0.10045889376E+04  0.17123964885E+03 0.  0.
        -24    2    3    3    0    0  0.97910506139E+02  0.18782592013E+02 -0.81236953792E+03  0.82248151295E+03  0.81193103355E+02 0.  0.
          6    2    1    2  501    0 -0.15235959639E+03  0.35284459849E+02 -0.84272961487E+02  0.24768811998E+03  0.17259499710E+03 0.  0.
         24    2    5    5    0    0 -0.11609180626E+02  0.29931974554E+00 -0.53783735469E+02  0.99410264360E+02  0.82794008189E+02 0.  0.
          5    1    5    5  501    0 -0.14075041576E+03  0.34985140103E+02 -0.30489226018E+02  0.14827785562E+03  0.47000000000E+01 0. -1.
        -11    1    6    6    0    0 -0.10115695351E+02 -0.23913189136E+02 -0.66950347651E+02  0.71808891913E+02  0.00000000000E+00 0.  1.
         12    1    6    6    0    0 -0.14934852757E+01  0.24212508881E+02  0.13166612183E+02  0.27601372447E+02  0.00000000000E+00 0. -1.
         -5    1    3    3    0  503  0.54449090246E+02 -0.54067051862E+02 -0.16508505256E+03  0.18210742463E+03  0.47000000000E+01 0.  1.
         11    1    4    4    0    0  0.73315686451E+02  0.19056299468E+02 -0.29642958242E+03  0.30595560097E+03  0.00000000000E+00 0. -1.
        -12    1    4    4    0    0  0.24594819689E+02 -0.27370745468E+00 -0.51593995549E+03  0.51652591198E+03  0.00000000000E+00 0.  1.
</event>
<event>
12    1  0.1627564E-001  0.1743960E+03  0.7818608E-02  0.1177560E+00
         21   -1    0    0  501  502  0.00000000000E+00  0.00000000000E+00  0.34330591647E+02  0.34330591647E+02  0.00000000000E+00 0.  1.
         21   -1    0    0  502  503 -0.00000000000E+00 -0.00000000000E+00 -0.82769836448E+03  0.82769836448E+03  0.00000000000E+00 0. -1.
         -6    2    1    2    0  503 -0.87329124602E+01 -0.31925924101E+02 -0.48328681234E+03  0.51378996155E+03  0.17122632164E+03 0.  0.
        -24    2    3    3    0    0  0.19004666864E+02 -0.49419622798E+02 -0.46790183316E+03  0.47726339061E+03  0.77747939252E+02 0.  0.
          6    2    1    2  501    0  0.87329124602E+01  0.31925924101E+02 -0.31008096050E+03  0.34823899457E+03  0.15499892545E+03 0.  0.
         24    2    5    5    0    0  0.17606069094E+02  0.76959290026E+02 -0.23731486922E+03  0.26207791871E+03  0.78318467366E+02 0.  0.
          5    1    5    5  501    0 -0.88731566339E+01 -0.45033365925E+02 -0.72766091272E+02  0.86161075864E+02  0.47000000000E+01 0. -1.
        -11    1    6    6    0    0 -0.25171478952E+02  0.23781929300E+02 -0.38045877621E+02  0.51445819245E+02  0.00000000000E+00 0.  1.
         12    1    6    6    0    0  0.42777548046E+02  0.53177360726E+02 -0.19926899160E+03  0.21063209947E+03  0.00000000000E+00 0. -1.
         -5    1    3    3    0  503 -0.27737579324E+02  0.17493698697E+02 -0.15384979177E+02  0.36526570947E+02  0.47000000000E+01 0.  1.
         11    1    4    4    0    0  0.24385124725E+02 -0.35799408370E+02 -0.98882659396E+02  0.10795375064E+03  0.00000000000E+00 0. -1.
        -12    1    4    4    0    0 -0.53804578614E+01 -0.13620214428E+02 -0.36901917377E+03  0.36930963997E+03  0.00000000000E+00 0.  1.
</event>
<event>
12    1  0.1627564E-001  0.3323169E+03  0.7818608E-02  0.1070119E+00
         21   -1    0    0  501  502  0.00000000000E+00  0.00000000000E+00  0.42362374441E+03  0.42362374441E+03  0.00000000000E+00 0.  1.
         21   -1    0    0  502  503 -0.00000000000E+00 -0.00000000000E+00 -0.26770149416E+03  0.26770149416E+03  0.00000000000E+00 0. -1.
         -6    2    1    2    0  503  0.21743825351E+03  0.18353272952E+03  0.13397556590E+03  0.35828443680E+03  0.17162350801E+03 0.  0.
        -24    2    3    3    0    0  0.10901928071E+03  0.17799520005E+02  0.60736756712E+02  0.14707794170E+03  0.75768996569E+02 0.  0.
          6    2    1    2  501    0 -0.21743825351E+03 -0.18353272952E+03  0.21946684349E+02  0.33304080178E+03  0.17167079483E+03 0.  0.
         24    2    5    5    0    0 -0.15091233749E+03 -0.19591421081E+03 -0.69086449686E+01  0.25932704043E+03  0.77755211534E+02 0.  0.
          5    1    5    5  501    0 -0.66525916019E+02  0.12381481288E+02  0.28855329318E+02  0.73713761341E+02  0.47000000000E+01 0. -1.
        -13    1    6    6    0    0 -0.27350767048E+02 -0.96945059550E+02  0.22109336266E+01  0.10075364637E+03  0.00000000000E+00 0.  1.
         14    1    6    6    0    0 -0.12356157044E+03 -0.98969151261E+02 -0.91195785952E+01  0.15857339406E+03  0.00000000000E+00 0. -1.
         -5    1    3    3    0  503  0.10841897280E+03  0.16573320952E+03  0.73238809186E+02  0.21120649510E+03  0.47000000000E+01 0.  1.
         11    1    4    4    0    0  0.85566513635E+02  0.13451815196E+02  0.53605224710E+01  0.86783148070E+02  0.00000000000E+00 0. -1.
        -12    1    4    4    0    0  0.23452767073E+02  0.43477048088E+01  0.55376234241E+02  0.60294793633E+02  0.00000000000E+00 0.  1.
</event>
<event>
12    1  0.1627564E-001  0.1827463E+03  0.7818608E-02  0.1165725E+00
         21   -1    0    0  501  502  0.00000000000E+00  0.00000000000E+00  0.33678018180E+04  0.33678018180E+04  0.00000000000E+00 0.  1.
         21   -1    0    0  502  503 -0.00000000000E+00 -0.00000000000E+00 -0.11358044896E+02  0.11358044896E+02  0.00000000000E+00 0.  1.
         -6    2    1    2    0  503  0.89169081865E+01 -0.58533287709E+02  0.10414385133E+04  0.10569528205E+04  0.17043893550E+03 0.  0.
        -24    2    3    3    0    0 -0.24724357219E+02 -0.17079103907E+02  0.92428297087E+03  0.92812077784E+03  0.78779301746E+02 0.  0.
          6    2    1    2  501    0 -0.89169081865E+01  0.58533287709E+02  0.23150052597E+04  0.23222070423E+04  0.17288880201E+03 0.  0.
         24    2    5    5    0    0 -0.44082906242E+02  0.77037251184E+02  0.11210853692E+04  0.11276168034E+04  0.82517934158E+02 0.  0.
          5    1    5    5  501    0  0.35165998056E+02 -0.18503963475E+02  0.11939198905E+04  0.11945902390E+04  0.47000000000E+01 0. -1.
        -13    1    6    6    0    0 -0.38525104571E+02  0.22530479121E+02  0.84327830831E+03  0.84445847230E+03  0.00000000000E+00 0.  1.
         14    1    6    6    0    0 -0.55578016714E+01  0.54506772063E+02  0.27780706091E+03  0.28315833106E+03  0.00000000000E+00 0. -1.
         -5    1    3    3    0  503  0.33641265405E+02 -0.41454183802E+02  0.11715554248E+03  0.12883204270E+03  0.47000000000E+01 0.  1.
         13    1    4    4    0    0  0.26901430313E+02  0.29264953981E+01  0.40248607317E+03  0.40339470797E+03  0.00000000000E+00 0. -1.
        -14    1    4    4    0    0 -0.51625787532E+02 -0.20005599305E+02  0.52179689770E+03  0.52472606986E+03  0.00000000000E+00 0.  1.
</event>
<event>
12    1  0.1627564E-001  0.2092419E+03  0.7818608E-02  0.1142195E+00
         21   -1    0    0  503  502  0.00000000000E+00  0.00000000000E+00  0.52500175258E+03  0.52500175258E+03  0.00000000000E+00 0.  1.
         21   -1    0    0  501  503 -0.00000000000E+00 -0.00000000000E+00 -0.90548681529E+02  0.90548681529E+02  0.00000000000E+00 0. -1.
          6    2    1    2  501    0 -0.10652292691E+02 -0.12159503997E+03  0.13031327803E+03  0.24638492955E+03  0.16977973376E+03 0.  0.
         24    2    3    3    0    0  0.15166904811E+02  0.37599084664E+01  0.60260651266E+02  0.10040563453E+03  0.78776731601E+02 0.  0.
         -6    2    1    2    0  502  0.10652292691E+02  0.12159503997E+03  0.30413979302E+03  0.36916550455E+03  0.16995096636E+03 0.  0.
        -24    2    5    5    0    0 -0.35684820702E+02  0.97861687605E+02  0.28452306138E+03  0.31333266249E+03  0.79835259114E+02 0.  0.
          5    1    3    3  501    0 -0.25819197501E+02 -0.12535494844E+03  0.70052626764E+02  0.14597929502E+03  0.47000000000E+01 0. -1.
        -11    1    4    4    0    0 -0.24926652095E+02  0.24585299239E+02  0.23589164109E+02  0.42216390024E+02  0.00000000000E+00 0.  1.
         12    1    4    4    0    0  0.40093556905E+02 -0.20825390773E+02  0.36671487157E+02  0.58189244509E+02  0.00000000000E+00 0. -1.
         -5    1    5    5    0  502  0.46337113393E+02  0.23733352370E+02  0.19616731637E+02  0.55832842059E+02  0.47000000000E+01 0.  1.
         13    1    6    6    0    0 -0.23867384724E+02  0.19795232113E+02  0.19108396500E+02  0.36422988411E+02  0.00000000000E+00 0. -1.
        -14    1    6    6    0    0 -0.11817435978E+02  0.78066455492E+02  0.26541466488E+03  0.27690967408E+03  0.00000000000E+00 0.  1.
</event>
<event>
12    1  0.1627564E-001  0.2206357E+03  0.7818608E-02  0.1133425E+00
         21   -1    0    0  501  502  0.00000000000E+00  0.00000000000E+00  0.32640765983E+03  0.32640765983E+03  0.00000000000E+00 0. -1.
         21   -1    0    0  502  503 -0.00000000000E+00 -0.00000000000E+00 -0.20137345730E+03  0.20137345730E+03  0.00000000000E+00 0.  1.
         -6    2    1    2    0  503 -0.45224930125E+02 -0.12962916732E+03 -0.71961068550E+02  0.23199865206E+03  0.17261507421E+03 0.  0.
        -24    2    3    3    0    0 -0.50131931250E+02 -0.11959311630E+03  0.58028233240E+01  0.15329595923E+03  0.81549091706E+02 0.  0.
          6    2    1    2  501    0  0.45224930125E+02  0.12962916732E+03  0.19699527108E+03  0.29578246508E+03  0.17271686222E+03 0.  0.
         24    2    5    5    0    0  0.96950282609E+02  0.98457936036E+02  0.15165211860E+03  0.22011708841E+03  0.79748636776E+02 0.  0.
          5    1    5    5  501    0 -0.51725352485E+02  0.31171231284E+02  0.45343152483E+02  0.75665376669E+02  0.47000000000E+01 0. -1.
        -13    1    6    6    0    0  0.33333926829E+02  0.79550685918E+02  0.11668311240E+03  0.14510138189E+03  0.00000000000E+00 0.  1.
         14    1    6    6    0    0  0.63616355780E+02  0.18907250118E+02  0.34969006202E+02  0.75015706519E+02  0.00000000000E+00 0. -1.
         -5    1    3    3    0  503  0.49070011250E+01 -0.10036051015E+02 -0.77763891874E+02  0.78702692835E+02  0.47000000000E+01 0.  1.
         13    1    4    4    0    0 -0.45394455960E+02 -0.11763387756E+03 -0.19403969383E+02  0.12757311554E+03  0.00000000000E+00 0. -1.
        -14    1    4    4    0    0 -0.47374752893E+01 -0.19592387462E+01  0.25206792707E+02  0.25722843683E+02  0.00000000000E+00 0.  1.
</event>
<event>
12    1  0.1627564E-001  0.2077911E+03  0.7818608E-02  0.1143481E+00
         21   -1    0    0  503  502  0.00000000000E+00  0.00000000000E+00  0.83571812434E+02  0.83571812434E+02  0.00000000000E+00 0. -1.
         21   -1    0    0  501  503 -0.00000000000E+00 -0.00000000000E+00 -0.57898394012E+03  0.57898394012E+03  0.00000000000E+00 0.  1.
          6    2    1    2  501    0 -0.66935643165E+02  0.93319294412E+02 -0.35764721806E+03  0.41324406620E+03  0.17225055770E+03 0.  0.
         24    2    3    3    0    0 -0.54647014489E+02 -0.13183373598E+02 -0.19758074072E+03  0.22053393191E+03  0.80230720363E+02 0.  0.
         -6    2    1    2    0  502  0.66935643165E+02 -0.93319294412E+02 -0.13776490962E+03  0.24931168635E+03  0.17317123200E+03 0.  0.
        -24    2    5    5    0    0  0.52939732988E+02  0.68715251332E+01 -0.28755533770E+02  0.10051914673E+03  0.80170973245E+02 0.  0.
          5    1    3    3  501    0 -0.12288628676E+02  0.10650266801E+03 -0.16006647734E+03  0.19271013429E+03  0.47000000000E+01 0. -1.
        -13    1    4    4    0    0 -0.39149474323E+02  0.30372748884E+02 -0.12520146973E+03  0.13464989133E+03  0.00000000000E+00 0.  1.
         14    1    4    4    0    0 -0.15497540166E+02 -0.43556122481E+02 -0.72379270991E+02  0.85884040578E+02  0.00000000000E+00 0. -1.
         -5    1    5    5    0  502  0.13995910177E+02 -0.10019081955E+03 -0.10900937585E+03  0.14879253962E+03  0.47000000000E+01 0.  1.
         11    1    6    6    0    0  0.36501182167E+02 -0.35133892473E+02 -0.20547100457E+02  0.54670924970E+02  0.00000000000E+00 0. -1.
        -12    1    6    6    0    0  0.16438550820E+02  0.42005417606E+02 -0.82084333132E+01  0.45848221763E+02  0.00000000000E+00 0.  1.
</event>
<event>
12    1  0.1627564E-001  0.1945743E+03  0.7818608E-02  0.1154905E+00
         21   -1    0    0  501  502  0.00000000000E+00  0.00000000000E+00  0.23047126153E+03  0.23047126153E+03  0.00000000000E+00 0. -1.
         21   -1    0    0  502  503 -0.00000000000E+00 -0.00000000000E+00 -0.24183861733E+03  0.24183861733E+03  0.00000000000E+00 0. -1.
         -6    2    1    2    0  503 -0.32369669627E+02 -0.83801260964E+02 -0.14106338020E+03  0.23847188660E+03  0.16999857827E+03 0.  0.
        -24    2    3    3    0    0  0.44302845895E+02 -0.34687485950E+02 -0.94287290856E+02  0.13599784078E+03  0.80245595794E+02 0.  0.
          6    2    1    2  501    0  0.32369669627E+02  0.83801260964E+02  0.12969602440E+03  0.23383799225E+03  0.17259403531E+03 0.  0.
         24    2    5    5    0    0  0.79442636799E+01 -0.78954631215E+00  0.59964983299E+01  0.81930560302E+02  0.81319886931E+02 0.  0.
          5    1    5    5  501    0  0.24425405948E+02  0.84590807276E+02  0.12369952607E+03  0.15190743195E+03  0.47000000000E+01 0. -1.
        -11    1    6    6    0    0  0.44117977303E+02 -0.21173431630E+01 -0.40781985224E+01  0.44356631596E+02  0.00000000000E+00 0.  1.
         12    1    6    6    0    0 -0.36173713623E+02  0.13277968509E+01  0.10074696852E+02  0.37573928706E+02  0.00000000000E+00 0. -1.
         -5    1    3    3    0  503 -0.76672515522E+02 -0.49113775015E+02 -0.46776089346E+02  0.10247404582E+03  0.47000000000E+01 0.  1.
         11    1    4    4    0    0  0.32647850160E+02 -0.57089071059E+02 -0.42278013487E+02  0.78182316280E+02  0.00000000000E+00 0. -1.
        -12    1    4    4    0    0  0.11654995734E+02  0.22401585109E+02 -0.52009277369E+02  0.57815524501E+02  0.00000000000E+00 0.  1.
</event>
<event>
12    1  0.1627564E-001  0.1758929E+03  0.7818608E-02  0.1172330E+00
         21   -1    0    0  501  502  0.00000000000E+00  0.00000000000E+00  0.23454841543E+03  0.23454841543E+03  0.00000000000E+00 0. -1.
         21   -1    0    0  502  503 -0.00000000000E+00 -0.00000000000E+00 -0.59668007582E+03  0.59668007582E+03  0.00000000000E+00 0. -1.
         -6    2    1    2    0  503 -0.18278944834E+01  0.25203717858E+02 -0.54867338479E+03  0.57617774044E+03  0.17406819586E+03 0.  0.
        -24    2    3    3    0    0 -0.38182482630E+02  0.73897299562E+02 -0.35286724269E+03  0.37110493322E+03  0.79277157058E+02 0.  0.
          6    2    1    2  501    0  0.18278944834E+01 -0.25203717858E+02  0.18654172440E+03  0.25505075081E+03  0.17208864563E+03 0.  0.
         24    2    5    5    0    0  0.11954495667E+02 -0.43089523758E+02  0.25240473112E+02  0.92377354797E+02  0.76791126909E+02 0.  0.
          5    1    5    5  501    0 -0.10126601184E+02  0.17885805899E+02  0.16130125128E+03  0.16267339601E+03  0.47000000000E+01 0. -1.
        -11    1    6    6    0    0 -0.16667880521E+00  0.22237426197E+02  0.37906011606E+01  0.22558802336E+02  0.00000000000E+00 0.  1.
         12    1    6    6    0    0  0.12121174473E+02 -0.65326949955E+02  0.21449871952E+02  0.69818552461E+02  0.00000000000E+00 0. -1.
         -5    1    3    3    0  503  0.36354588146E+02 -0.48693581704E+02 -0.19580614210E+03  0.20507280722E+03  0.47000000000E+01 0.  1.
         13    1    4    4    0    0  0.11239457622E+02  0.34367135573E+02 -0.23072192605E+03  0.23353807521E+03  0.00000000000E+00 0. -1.
        -14    1    4    4    0    0 -0.49421940251E+02  0.39530163989E+02 -0.12214531665E+03  0.13756685801E+03  0.00000000000E+00 0.  1.
</event>
<event>
12    1  0.1627564E-001  0.2082076E+03  0.7818608E-02  0.1143123E+00
         21   -1    0    0  501  502  0.00000000000E+00  0.00000000000E+00  0.65537028153E+03  0.65537028153E+03  0.00000000000E+00 0.  1.
         21   -1    0    0  502  503 -0.00000000000E+00 -0.00000000000E+00 -0.39861388878E+03  0.39861388878E+03  0.00000000000E+00 0.  1.
         -6    2    1    2    0  503  0.59056789803E+02 -0.10312449642E+03 -0.35308832099E+03  0.40957671047E+03  0.17017447857E+03 0.  0.
        -24    2    3    3    0    0  0.80839322926E+02 -0.13006308612E+03 -0.30338344212E+03  0.34880803969E+03  0.78575652063E+02 0.  0.
          6    2    1    2  501    0 -0.59056789803E+02  0.10312449642E+03  0.60984471373E+03  0.64440745984E+03  0.17096208131E+03 0.  0.
         24    2    5    5    0    0 -0.54918411949E+02  0.13856455689E+03  0.45233657022E+03  0.48284004564E+03  0.79435310282E+02 0.  0.
          5    1    5    5  501    0 -0.41383778542E+01 -0.35440060476E+02  0.15750814351E+03  0.16156741420E+03  0.47000000000E+01 0. -1.
        -13    1    6    6    0    0  0.59892443806E+01  0.83155195605E+02  0.27419022082E+03  0.28658495215E+03  0.00000000000E+00 0.  1.
         14    1    6    6    0    0 -0.60907656330E+02  0.55409361288E+02  0.17814634940E+03  0.19625509349E+03  0.00000000000E+00 0. -1.
         -5    1    3    3    0  503 -0.21782533123E+02  0.26938589707E+02 -0.49704878867E+02  0.60768670775E+02  0.47000000000E+01 0.  1.
         11    1    4    4    0    0  0.61917927633E+02 -0.13352097926E+03 -0.23092016628E+03  0.27383536087E+03  0.00000000000E+00 0. -1.
        -12    1    4    4    0    0  0.18921395293E+02  0.34578931387E+01 -0.72463275839E+02  0.74972678824E+02  0.00000000000E+00 0.  1.
</event>
<event>
12    1  0.1627564E-001  0.1748879E+03  0.7818608E-02  0.1174528E+00
         21   -1    0    0  503  502  0.00000000000E+00  0.00000000000E+00  0.15407142144E+02  0.15407142144E+02  0.00000000000E+00 0. -1.
         21   -1    0    0  501  503 -0.00000000000E+00 -0.00000000000E+00 -0.24288266025E+04  0.24288266025E+04  0.00000000000E+00 0. -1.
          6    2    1    2  501    0  0.29093022533E+00  0.35986161862E+02 -0.17525681222E+04  0.17606327884E+04  0.16443145766E+03 0.  0.
         24    2    3    3    0    0  0.82361680613E+01  0.73799834110E+02 -0.15009975408E+04  0.15060687532E+04  0.98667227941E+02 0.  0.
         -6    2    1    2    0  502 -0.29093022533E+00 -0.35986161862E+02 -0.66085133815E+03  0.68360095621E+03  0.17114522401E+03 0.  0.
        -24    2    5    5    0    0 -0.28648295684E+02 -0.63224038058E+02 -0.61138392039E+03  0.62023568579E+03  0.78000025495E+02 0.  0.
          5    1    3    3  501    0 -0.79452378360E+01 -0.37813672248E+02 -0.25157058141E+03  0.25456403525E+03  0.47000000000E+01 0. -1.
        -13    1    4    4    0    0  0.43619150025E+02  0.74147196786E+01 -0.75277268850E+03  0.75407183269E+03  0.00000000000E+00 0.  1.
         14    1    4    4    0    0 -0.35382981964E+02  0.66385114432E+02 -0.74822485230E+03  0.75199692049E+03  0.00000000000E+00 0. -1.
         -5    1    5    5    0  502  0.28357365459E+02  0.27237876195E+02 -0.49467417761E+02  0.63365270420E+02  0.47000000000E+01 0.  1.
         13    1    6    6    0    0 -0.43296904612E+01  0.17732302372E+02 -0.72510195807E+02  0.74772383023E+02  0.00000000000E+00 0. -1.
        -14    1    6    6    0    0 -0.24318605223E+02 -0.80956340430E+02 -0.53887372458E+03  0.54546330276E+03  0.00000000000E+00 0.  1.
</event>
<event>
12    1  0.1627564E-001  0.2223090E+03  0.7818608E-02  0.1132454E+00
         21   -1    0    0  501  502  0.00000000000E+00  0.00000000000E+00  0.72766628333E+02  0.72766628333E+02  0.00000000000E+00 0. -1.
         21   -1    0    0  502  503 -0.00000000000E+00 -0.00000000000E+00 -0.69486036080E+03  0.69486036080E+03  0.00000000000E+00 0.  1.
         -6    2    1    2    0  503 -0.88017813009E+02 -0.10673932323E+03 -0.24435493106E+03  0.32932583575E+03  0.17206323033E+03 0.  0.
        -24    2    3    3    0    0 -0.99233324305E+02 -0.12314758386E+03 -0.25161024071E+03  0.30765215982E+03  0.79558520252E+02 0.  0.
          6    2    1    2  501    0  0.88017813009E+02  0.10673932323E+03 -0.37773880141E+03  0.43830115338E+03  0.17401402367E+03 0.  0.
         24    2    5    5    0    0  0.48798424731E+02  0.12621287059E+03 -0.19168716865E+03  0.24710837236E+03  0.77508722770E+02 0.  0.
          5    1    5    5  501    0  0.39219388278E+02 -0.19473547357E+02 -0.18605163276E+03  0.19119278102E+03  0.47000000000E+01 0. -1.
        -11    1    6    6    0    0 -0.68164323333E+01  0.18468829994E+02 -0.79558617551E+02  0.81958129906E+02  0.00000000000E+00 0.  1.
         12    1    6    6    0    0  0.55614857065E+02  0.10774404060E+03 -0.11212855110E+03  0.16515024245E+03  0.00000000000E+00 0. -1.
         -5    1    3    3    0  503  0.11215511295E+02  0.16408260631E+02  0.72553096502E+01  0.21673675938E+02  0.47000000000E+01 0.  1.
         11    1    4    4    0    0  0.55762820217E+01 -0.17432677300E+02 -0.39954080326E+01  0.18733831546E+02  0.00000000000E+00 0. -1.
        -12    1    4    4    0    0 -0.10480960633E+03 -0.10571490656E+03 -0.24761483268E+03  0.28891832827E+03  0.00000000000E+00 0.  1.
</event>
<event>
12    1  0.1627564E-001  0.1850287E+03  0.7818608E-02  0.1163491E+00
         21   -1    0    0  503  502  0.00000000000E+00  0.00000000000E+00  0.28993751696E+03  0.28993751696E+03  0.00000000000E+00 0.  1.
         21   -1    0    0  501  503 -0.00000000000E+00 -0.00000000000E+00 -0.17147595678E+03  0.17147595678E+03  0.00000000000E+00 0. -1.
          6    2    1    2  501    0  0.62038098993E+02 -0.16945412277E+02 -0.71247817359E+02  0.19641293494E+03  0.17136486458E+03 0.  0.
         24    2    3    3    0    0 -0.29172099336E+02 -0.26400085548E+01 -0.10502787935E+02  0.85796510059E+02  0.79954684410E+02 0.  0.
         -6    2    1    2    0  502 -0.62038098993E+02  0.16945412277E+02  0.18970937753E+03  0.26500053879E+03  0.17349283822E+03 0.  0.
        -24    2    5    5    0    0  0.16298331235E+02 -0.40795437178E+02  0.96238930843E+02  0.12998418274E+03  0.75525178966E+02 0.  0.
          5    1    3    3  501    0  0.91210198328E+02 -0.14305403723E+02 -0.60745029424E+02  0.11061642489E+03  0.47000000000E+01 0. -1.
        -13    1    4    4    0    0  0.96642416194E+01 -0.21161122999E+02  0.21887128660E+02  0.31941150474E+02  0.00000000000E+00 0.  1.
         14    1    4    4    0    0 -0.38836340955E+02  0.18521114445E+02 -0.32389916594E+02  0.53855359585E+02  0.00000000000E+00 0. -1.
         -5    1    5    5    0  502 -0.78336430228E+02  0.57740849455E+02  0.93470446691E+02  0.13501635605E+03  0.47000000000E+01 0.  1.
         11    1    6    6    0    0 -0.80790224658E+01 -0.21162444096E+02 -0.56915031746E+01  0.23356216571E+02  0.00000000000E+00 0. -1.
        -12    1    6    6    0    0  0.24377353701E+02 -0.19632993082E+02  0.10193043402E+03  0.10662796617E+03  0.00000000000E+00 0.  1.
</event>
<event>
12    1  0.1627564E-001  0.2251881E+03  0.7818608E-02  0.1130159E+00
         21   -1    0    0  503  502  0.00000000000E+00  0.00000000000E+00  0.34111931224E+03  0.34111931224E+03  0.00000000000E+00 0. -1.
         21   -1    0    0  501  503 -0.00000000000E+00 -0.00000000000E+00 -0.15039151119E+03  0.15039151119E+03  0.00000000000E+00 0. -1.
          6    2    1    2  501    0  0.10370535200E+03 -0.10155648481E+03  0.12395091067E+03  0.25663031993E+03  0.17154233650E+03 0.  0.
         24    2    3    3    0    0  0.64732624973E+02 -0.48737533988E+02 -0.32865704704E+01  0.11338164934E+03  0.79239743233E+02 0.  0.
         -6    2    1    2    0  502 -0.10370535200E+03  0.10155648481E+03  0.66776890373E+02  0.23488050350E+03  0.17216613545E+03 0.  0.
        -24    2    5    5    0    0 -0.10255960459E+03  0.15980216097E+02  0.71009713048E+02  0.14906315507E+03  0.80022528405E+02 0.  0.
          5    1    3    3  501    0  0.38972727032E+02 -0.52818950818E+02  0.12723748114E+03  0.14324867059E+03  0.47000000000E+01 0. -1.
        -13    1    4    4    0    0  0.65625587992E+02 -0.66367020808E+01 -0.18666357825E+02  0.68550685834E+02  0.00000000000E+00 0.  1.
         14    1    4    4    0    0 -0.89296301943E+00 -0.42100831908E+02  0.15379787355E+02  0.44830963511E+02  0.00000000000E+00 0. -1.
         -5    1    5    5    0  502 -0.11457474111E+01  0.85576268709E+02 -0.42328226751E+01  0.85817348427E+02  0.47000000000E+01 0.  1.
         13    1    6    6    0    0  0.11270610945E+02  0.53933812491E+01  0.20661848416E+02  0.24145956439E+02  0.00000000000E+00 0. -1.
        -14    1    6    6    0    0 -0.11383021554E+03  0.10586834848E+02  0.50347864632E+02  0.12491719863E+03  0.00000000000E+00 0.  1.
</event>
<event>
12    1  0.1627564E-001  0.1786195E+03  0.7818608E-02  0.1169186E+00
         21   -1    0    0  501  502  0.00000000000E+00  0.00000000000E+00  0.72671688600E+02  0.72671688600E+02  0.00000000000E+00 0.  1.
         21   -1    0    0  502  503 -0.00000000000E+00 -0.00000000000E+00 -0.61589678358E+03  0.61589678358E+03  0.00000000000E+00 0.  1.
         -6    2    1    2    0  503  0.19636689143E+02  0.44015427731E+02 -0.45640982154E+03  0.49011718963E+03  0.17199411887E+03 0.  0.
        -24    2    3    3    0    0 -0.27493684690E+02 -0.29460867738E+02 -0.26723391801E+03  0.28171937147E+03  0.79548676303E+02 0.  0.
          6    2    1    2  501    0 -0.19636689143E+02 -0.44015427731E+02 -0.86815273439E+02  0.19845128256E+03  0.17182276452E+03 0.  0.
         24    2    5    5    0    0 -0.40060045873E+02 -0.25768064697E+02  0.14165230754E+02  0.93717181211E+02  0.79457258058E+02 0.  0.
          5    1    5    5  501    0  0.20423356730E+02 -0.18247363034E+02 -0.10098050419E+03  0.10473410135E+03  0.47000000000E+01 0. -1.
        -13    1    6    6    0    0  0.23685910862E+02 -0.12587680022E+02 -0.11420930076E+01  0.26847279902E+02  0.00000000000E+00 0.  1.
         14    1    6    6    0    0 -0.63745956735E+02 -0.13180384676E+02  0.15307323762E+02  0.66869901309E+02  0.00000000000E+00 0. -1.
         -5    1    3    3    0  503  0.47130373833E+02  0.73476295469E+02 -0.18917590353E+03  0.20839781815E+03  0.47000000000E+01 0.  1.
         11    1    4    4    0    0 -0.51935245861E+02 -0.24488448786E+02 -0.22885014906E+03  0.23594351996E+03  0.00000000000E+00 0. -1.
        -12    1    4    4    0    0  0.24441561171E+02 -0.49724189521E+01 -0.38383768949E+02  0.45775851510E+02  0.00000000000E+00 0.  1.
</event>
<event>
12    1  0.1627564E-001  0.1838755E+03  0.7818608E-02  0.1165563E+00
         21   -1    0    0  503  502  0.00000000000E+00  0.00000000000E+00  0.25899412156E+03  0.25899412156E+03  0.00000000000E+00 0. -1.
         21   -1    0    0  501  503 -0.00000000000E+00 -0.00000000000E+00 -0.28101853098E+03  0.28101853098E+03  0.00000000000E+00 0. -1.
          6    2    1    2  501    0 -0.47343258050E+02 -0.16266200455E+02 -0.21128773827E+03  0.27613612038E+03  0.17059506228E+03 0.  0.
         24    2    3    3    0    0  0.11472415128E+02  0.44299338367E+02 -0.13391457521E+03  0.16152301351E+03  0.77862203616E+02 0.  0.
         -6    2    1    2    0  502  0.47343258050E+02  0.16266200455E+02  0.18926332884E+03  0.26387653216E+03  0.17693005177E+03 0.  0.
        -24    2    5    5    0    0  0.10061512683E+03  0.14673834752E+02  0.14505911378E+03  0.19447530550E+03  0.80248194894E+02 0.  0.
          5    1    3    3  501    0 -0.58815673178E+02 -0.60565538822E+02 -0.77373163063E+02  0.11461310687E+03  0.47000000000E+01 0. -1.
        -13    1    4    4    0    0  0.36906619131E+02 -0.25322893575E+01 -0.52907909544E+02  0.64558174675E+02  0.00000000000E+00 0.  1.
         14    1    4    4    0    0 -0.25434204002E+02  0.46831627724E+02 -0.81006665662E+02  0.96964838834E+02  0.00000000000E+00 0. -1.
         -5    1    5    5    0  502 -0.53271868784E+02  0.15923657032E+01  0.44204215064E+02  0.69401226658E+02  0.47000000000E+01 0.  1.
         13    1    6    6    0    0  0.41357909536E+02  0.57404135075E+01  0.48982000259E+01  0.42040711126E+02  0.00000000000E+00 0. -1.
        -14    1    6    6    0    0  0.59257217297E+02  0.89334212441E+01  0.14016091376E+03  0.15243459437E+03  0.00000000000E+00 0.  1.
</event>
<event>
12    1  0.1627564E-001  0.3152309E+03  0.7818608E-02  0.1078044E+00
         21   -1    0    0  501  502  0.00000000000E+00  0.00000000000E+00  0.15132048551E+03  0.15132048551E+03  0.00000000000E+00 0.  1.
         21   -1    0    0  502  503 -0.00000000000E+00 -0.00000000000E+00 -0.10813811483E+04  0.10813811483E+04  0.00000000000E+00 0. -1.
         -6    2    1    2    0  503  0.26490782377E+02  0.26285238429E+03 -0.85339760741E+03  0.90975709876E+03  0.17198071094E+03 0.  0.
        -24    2    3    3    0    0 -0.45287460892E+02  0.17642239881E+03 -0.47390179756E+03  0.51395232581E+03  0.79926607338E+02 0.  0.
          6    2    1    2  501    0 -0.26490782377E+02 -0.26285238429E+03 -0.76663055350E+02  0.32294453503E+03  0.16918277445E+03 0.  0.
         24    2    5    5    0    0 -0.65959674695E+02 -0.25206516178E+03 -0.60172076996E+02  0.27858013491E+03  0.78094098677E+02 0.  0.
          5    1    5    5  501    0  0.39468892318E+02 -0.10787222509E+02 -0.16490978354E+02  0.44364400113E+02  0.47000000000E+01 0. -1.
        -13    1    6    6    0    0 -0.24828574090E+02 -0.66704755654E+02  0.17730435814E+02  0.73350875062E+02  0.00000000000E+00 0.  1.
         14    1    6    6    0    0 -0.41131100605E+02 -0.18536040613E+03 -0.77902512810E+02  0.20522925985E+03  0.00000000000E+00 0. -1.
         -5    1    3    3    0  503  0.71778243269E+02  0.86429985482E+02 -0.37949580985E+03  0.39580477295E+03  0.47000000000E+01 0.  1.
         13    1    4    4    0    0 -0.58133502437E+02  0.10435697462E+03 -0.35247799154E+03  0.37217014493E+03  0.00000000000E+00 0. -1.
        -14    1    4    4    0    0  0.12846041544E+02  0.72065424189E+02 -0.12142380602E+03  0.14178218088E+03  0.00000000000E+00 0.  1.
</event>
<event>
12    1  0.1627564E-001  0.1835708E+03  0.7818608E-02  0.1164408E+00
         21   -1    0    0  503  502  0.00000000000E+00  0.00000000000E+00  0.13553363028E+03  0.13553363028E+03  0.00000000000E+00 0. -1.
         21   -1    0    0  501  503 -0.00000000000E+00 -0.00000000000E+00 -0.26067475421E+03  0.26067475421E+03  0.00000000000E+00 0.  1.
          6    2    1    2  501    0  0.10122588706E+01  0.64446047278E+02 -0.10532944104E+03  0.21164249348E+03  0.17188349607E+03 0.  0.
         24    2    3    3    0    0 -0.94583225652E+01 -0.16473109469E+02 -0.96159732611E+02  0.12940067591E+03  0.84480870912E+02 0.  0.
         -6    2    1    2    0  502 -0.10122588706E+01 -0.64446047278E+02 -0.19811682893E+02  0.18456589101E+03  0.17180729806E+03 0.  0.
        -24    2    5    5    0    0 -0.20196976686E+02  0.11724463659E+02 -0.53034729437E+02  0.99150078911E+02  0.80452934728E+02 0.  0.
          5    1    3    3  501    0  0.10470581436E+02  0.80919156747E+02 -0.91697084263E+01  0.82241817568E+02  0.47000000000E+01 0. -1.
        -13    1    4    4    0    0  0.29142950399E+02 -0.33456333430E+02 -0.51466230407E+02  0.67951531821E+02  0.00000000000E+00 0.  1.
         14    1    4    4    0    0 -0.38601272964E+02  0.16983223961E+02 -0.44693502204E+02  0.61449144094E+02  0.00000000000E+00 0. -1.
         -5    1    5    5    0  502  0.19184717815E+02 -0.76170510936E+02  0.33223046544E+02  0.85415812094E+02  0.47000000000E+01 0.  1.
         11    1    6    6    0    0  0.28756516147E+02 -0.95676944560E+01 -0.21352466997E+02  0.37072979985E+02  0.00000000000E+00 0. -1.
        -12    1    6    6    0    0 -0.48953492833E+02  0.21292158115E+02 -0.31682262440E+02  0.62077098926E+02  0.00000000000E+00 0.  1.
</event>
<event>
12    1  0.1627564E-001  0.2386455E+03  0.7818608E-02  0.1120793E+00
         21   -1    0    0  503  502  0.00000000000E+00  0.00000000000E+00  0.32984016688E+03  0.32984016688E+03  0.00000000000E+00 0.  1.
         21   -1    0    0  501  503 -0.00000000000E+00 -0.00000000000E+00 -0.65025823609E+03  0.65025823609E+03  0.00000000000E+00 0. -1.
          6    2    1    2  501    0  0.25189594549E+02 -0.16305557836E+03 -0.58031596878E+03  0.62725482478E+03  0.17164018844E+03 0.  0.
         24    2    3    3    0    0  0.33557098262E+02 -0.93190482022E+02 -0.17341463257E+03  0.21428759339E+03  0.77691654021E+02 0.  0.
         -6    2    1    2    0  502 -0.25189594549E+02  0.16305557836E+03  0.25989789957E+03  0.35284357819E+03  0.17242399820E+03 0.  0.
        -24    2    5    5    0    0 -0.81621841681E+02  0.88203708487E+02  0.14250958834E+03  0.20254551914E+03  0.79206598985E+02 0.  0.
          5    1    3    3  501    0 -0.83675037132E+01 -0.69865096341E+02 -0.40690133620E+03  0.41296723140E+03  0.47000000000E+01 0. -1.
        -11    1    4    4    0    0  0.42517674580E+02 -0.12204221060E+02 -0.55800789110E+02  0.71206907871E+02  0.00000000000E+00 0.  1.
         12    1    4    4    0    0 -0.89605763176E+01 -0.80986260962E+02 -0.11761384346E+03  0.14308068551E+03  0.00000000000E+00 0. -1.
         -5    1    5    5    0  502  0.56432247132E+02  0.74851869876E+02  0.11738831123E+03  0.15029805905E+03  0.47000000000E+01 0.  1.
         13    1    6    6    0    0 -0.61557700801E+02  0.71227643044E+02  0.50450373822E+02  0.10680808902E+03  0.00000000000E+00 0. -1.
        -14    1    6    6    0    0 -0.20064140881E+02  0.16976065444E+02  0.92059214523E+02  0.95737430119E+02  0.00000000000E+00 0.  1.
</event>
<event>
12    1  0.1627564E-001  0.3569983E+03  0.7818608E-02  0.1059796E+00
         21   -1    0    0  501  502  0.00000000000E+00  0.00000000000E+00  0.14750689481E+04  0.14750689481E+04  0.00000000000E+00 0.  1.
         21   -1    0    0  502  503 -0.00000000000E+00 -0.00000000000E+00 -0.12201699047E+03  0.12201699047E+03  0.00000000000E+00 0. -1.
         -6    2    1    2    0  503  0.92375726499E+02  0.29902308899E+03  0.24495675387E+03  0.43295683286E+03  0.17175484054E+03 0.  0.
        -24    2    3    3    0    0  0.12652373226E+03  0.21793285131E+03  0.21191568200E+03  0.33885308492E+03  0.80063564611E+02 0.  0.
          6    2    1    2  501    0 -0.92375726499E+02 -0.29902308899E+03  0.11080952038E+04  0.11641291057E+04  0.17138702280E+03 0.  0.
         24    2    5    5    0    0 -0.17415206962E+02 -0.25966226258E+03  0.83335462201E+03  0.87660026994E+03  0.78869050865E+02 0.  0.
          5    1    5    5  501    0 -0.74960519537E+02 -0.39360826413E+02  0.27474058178E+03  0.28752883581E+03  0.47000000000E+01 0. -1.
        -11    1    6    6    0    0  0.28797423502E+02 -0.56213049095E+02  0.18191733476E+03  0.19256976703E+03  0.00000000000E+00 0.  1.
         12    1    6    6    0    0 -0.46212630464E+02 -0.20344921349E+03  0.65143728725E+03  0.68403050290E+03  0.00000000000E+00 0. -1.
         -5    1    3    3    0  503 -0.34148005759E+02  0.81090237681E+02  0.33041071878E+02  0.94103747935E+02  0.47000000000E+01 0.  1.
         13    1    4    4    0    0  0.44863502957E+02  0.23909094595E+02  0.22207863357E+02  0.55475831646E+02  0.00000000000E+00 0. -1.
        -14    1    4    4    0    0  0.81660229301E+02  0.19402375672E+03  0.18970781864E+03  0.28337725327E+03  0.00000000000E+00 0.  1.
</event>
<event>
12    1  0.1627564E-001  0.1766852E+03  0.7818608E-02  0.1171120E+00
         21   -1    0    0  501  502  0.00000000000E+00  0.00000000000E+00  0.18082142511E+03  0.18082142511E+03  0.00000000000E+00 0.  1.
         21   -1    0    0  502  503 -0.00000000000E+00 -0.00000000000E+00 -0.21571865739E+03  0.21571865739E+03  0.00000000000E+00 0.  1.
         -6    2    1    2    0  503  0.20235723650E+02  0.37237715950E+02 -0.10631830383E+03  0.20596563686E+03  0.17123705743E+03 0.  0.
        -24    2    3    3    0    0  0.68925025174E+02  0.30059483570E+02 -0.29356686377E+02  0.11449238577E+03  0.81193963555E+02 0.  0.
          6    2    1    2  501    0 -0.20235723650E+02 -0.37237715950E+02  0.71421071556E+02  0.19057444564E+03  0.17152701789E+03 0.  0.
         24    2    5    5    0    0 -0.12544642548E+02  0.37933221994E+02  0.71856502830E+02  0.11486379751E+03  0.80212452846E+02 0.  0.
          5    1    5    5  501    0 -0.76910811018E+01 -0.75170937944E+02 -0.43543127427E+00  0.75710648130E+02  0.47000000000E+01 0. -1.
        -13    1    6    6    0    0 -0.17609104532E+02  0.41827370517E+02  0.27537766344E+01  0.45466391681E+02  0.00000000000E+00 0.  1.
         14    1    6    6    0    0  0.50644619834E+01 -0.38941485229E+01  0.69102726196E+02  0.69397405827E+02  0.00000000000E+00 0. -1.
         -5    1    3    3    0  503 -0.48689301524E+02  0.71782323802E+01 -0.76961617455E+02  0.91473251086E+02  0.47000000000E+01 0.  1.
         13    1    4    4    0    0 -0.14652805925E+02  0.99347503445E+00 -0.20979164206E+02  0.25608925102E+02  0.00000000000E+00 0. -1.
        -14    1    4    4    0    0  0.83577831099E+02  0.29066008535E+02 -0.83775221713E+01  0.88883460672E+02  0.00000000000E+00 0.  1.
</event>
<event>
12    1  0.1627564E-001  0.1906698E+03  0.7818608E-02  0.1158475E+00
         21   -1    0    0  501  502  0.00000000000E+00  0.00000000000E+00  0.26445005404E+04  0.26445005404E+04  0.00000000000E+00 0. -1.
         21   -1    0    0  502  503 -0.00000000000E+00 -0.00000000000E+00 -0.28530383383E+02  0.28530383383E+02  0.00000000000E+00 0. -1.
         -6    2    1    2    0  503  0.32081826581E+02  0.69361104045E+02  0.22719098338E+04  0.22796704323E+04  0.17170550564E+03 0.  0.
        -24    2    3    3    0    0  0.84240988747E+02  0.34311169540E+02  0.12587022674E+04  0.12645050573E+04  0.79798755074E+02 0.  0.
          6    2    1    2  501    0 -0.32081826581E+02 -0.69361104045E+02  0.34406032322E+03  0.39336049148E+03  0.17468475575E+03 0.  0.
         24    2    5    5    0    0 -0.36404271016E+01 -0.83976210885E+02  0.34258202380E+03  0.36100635849E+03  0.76797728725E+02 0.  0.
          5    1    5    5  501    0 -0.28441399479E+02  0.14615106841E+02  0.14782994246E+01  0.32354132990E+02  0.47000000000E+01 0. -1.
        -11    1    6    6    0    0  0.27518811384E+02 -0.71401758077E+02  0.27620951698E+03  0.28661331669E+03  0.00000000000E+00 0.  1.
         12    1    6    6    0    0 -0.31159238486E+02 -0.12574452808E+02  0.66372506822E+02  0.74393041800E+02  0.00000000000E+00 0. -1.
         -5    1    3    3    0  503 -0.52159162166E+02  0.35049934505E+02  0.10132075663E+04  0.10151653750E+04  0.47000000000E+01 0.  1.
         11    1    4    4    0    0  0.76128881133E+02  0.58104460868E+02  0.10167957763E+04  0.10212959344E+04  0.00000000000E+00 0. -1.
        -12    1    4    4    0    0  0.81121076143E+01 -0.23793291328E+02  0.24190649115E+03  0.24320912290E+03  0.00000000000E+00 0.  1.
</event>
<event>
12    1  0.1627564E-001  0.1819894E+03  0.7818608E-02  0.1165998E+00
         21   -1    0    0  503  502  0.00000000000E+00  0.00000000000E+00  0.16932167453E+03  0.16932167453E+03  0.00000000000E+00 0.  1.
         21   -1    0    0  501  503 -0.00000000000E+00 -0.00000000000E+00 -0.24130294495E+03  0.24130294495E+03  0.00000000000E+00 0.  1.
          6    2    1    2  501    0  0.53441874715E+02  0.25228227793E+02 -0.12576777512E+03  0.22085331698E+03  0.17165709106E+03 0.  0.
         24    2    3    3    0    0  0.85873438770E+02  0.53407360263E+02 -0.11947689554E+03  0.17717798046E+03  0.83010328132E+02 0.  0.
         -6    2    1    2    0  502 -0.53441874715E+02 -0.25228227793E+02  0.53786504699E+02  0.18977130250E+03  0.17212687679E+03 0.  0.
        -24    2    5    5    0    0 -0.11560355804E+02  0.11732640034E+02 -0.33882930865E+02  0.85712726166E+02  0.76989101529E+02 0.  0.
          5    1    3    3  501    0 -0.32431564055E+02 -0.28179132470E+02 -0.62908795784E+01  0.43675336514E+02  0.47000000000E+01 0. -1.
        -11    1    4    4    0    0  0.27766625833E+02  0.49659048289E+02 -0.17114040188E+02  0.59412935954E+02  0.00000000000E+00 0.  1.
         12    1    4    4    0    0  0.58106812937E+02  0.37483119738E+01 -0.10236285535E+03  0.11776504451E+03  0.00000000000E+00 0. -1.
         -5    1    5    5    0  502 -0.41881518911E+02 -0.36960867827E+02  0.87669435564E+02  0.10405857634E+03  0.47000000000E+01 0.  1.
         11    1    6    6    0    0 -0.32844555915E+02 -0.20203409484E+02 -0.26070489396E+02  0.46546890609E+02  0.00000000000E+00 0. -1.
        -12    1    6    6    0    0  0.21284200111E+02  0.31936049517E+02 -0.78124414697E+01  0.39165835557E+02  0.00000000000E+00 0.  1.
</event>
<event>
12    1  0.1627564E-001  0.2066558E+03  0.7818608E-02  0.1144472E+00
         21   -1    0    0  503  502  0.00000000000E+00  0.00000000000E+00  0.19953877495E+03  0.19953877495E+03  0.00000000000E+00 0.  1.
         21   -1    0    0  501  503 -0.00000000000E+00 -0.00000000000E+00 -0.72550783905E+03  0.72550783905E+03  0.00000000000E+00 0.  1.
          6    2    1    2  501    0  0.10514977871E+03 -0.46790234541E+02 -0.65199645416E+03  0.68396345738E+03  0.17164158231E+03 0.  0.
         24    2    3    3    0    0  0.40262960394E+02 -0.88654867703E+02 -0.32332341896E+03  0.34630830671E+03  0.76880546980E+02 0.  0.
         -6    2    1    2    0  502 -0.10514977871E+03  0.46790234541E+02  0.12602739007E+03  0.24108315663E+03  0.17027149894E+03 0.  0.
        -24    2    5    5    0    0 -0.87954048634E+02  0.77023948189E+02  0.14383411861E+03  0.20172657960E+03  0.79603743485E+02 0.  0.
          5    1    3    3  501    0  0.64886818314E+02  0.41864633162E+02 -0.32867303520E+03  0.33765515066E+03  0.47000000000E+01 0. -1.
        -11    1    4    4    0    0  0.25263831118E+02 -0.75095959691E+02 -0.31436039148E+03  0.32419148671E+03  0.00000000000E+00 0.  1.
         12    1    4    4    0    0  0.14999129276E+02 -0.13558908012E+02 -0.89630274843E+01  0.22116820007E+02  0.00000000000E+00 0. -1.
         -5    1    5    5    0  502 -0.17195730073E+02 -0.30233713649E+02 -0.17806728540E+02  0.39356577024E+02  0.47000000000E+01 0.  1.
         11    1    6    6    0    0 -0.65070086683E+02  0.66537347545E+02  0.52217164360E+02  0.10671441821E+03  0.00000000000E+00 0. -1.
        -12    1    6    6    0    0 -0.22883961951E+02  0.10486600644E+02  0.91616954247E+02  0.95012161396E+02  0.00000000000E+00 0.  1.
</event>
<event>
12    1  0.1627564E-001  0.1849393E+03  0.7818608E-02  0.1163274E+00
         21   -1    0    0  501  502  0.00000000000E+00  0.00000000000E+00  0.93290993966E+02  0.93290993966E+02  0.00000000000E+00 0. -1.
         21   -1    0    0  502  503 -0.00000000000E+00 -0.00000000000E+00 -0.38060117355E+03  0.38060117355E+03  0.00000000000E+00 0.  1.
         -6    2    1    2    0  503  0.55837578555E+02 -0.37672440294E+02 -0.19157440022E+03  0.26627670129E+03  0.17223670599E+03 0.  0.
        -24    2    3    3    0    0  0.95303334141E+02 -0.12654940457E+02 -0.88064959979E+02  0.15261177538E+03  0.79322404100E+02 0.  0.
          6    2    1    2  501    0 -0.55837578555E+02  0.37672440294E+02 -0.95735779358E+02  0.20761546622E+03  0.17146951458E+03 0.  0.
         24    2    5    5    0    0 -0.78938301628E+01  0.83409864950E+02 -0.76579000681E+02  0.13848090762E+03  0.79329063429E+02 0.  0.
          5    1    5    5  501    0 -0.47943748393E+02 -0.45737424656E+02 -0.19156778677E+02  0.69134558604E+02  0.47000000000E+01 0. -1.
        -11    1    6    6    0    0  0.93576225227E+01  0.51546953969E+02 -0.86308107932E+02  0.10096406815E+03  0.00000000000E+00 0.  1.
         12    1    6    6    0    0 -0.17251452685E+02  0.31862910981E+02  0.97291072504E+01  0.37516839470E+02  0.00000000000E+00 0. -1.
         -5    1    3    3    0  503 -0.39465755586E+02 -0.25017499837E+02 -0.10350944025E+03  0.11366492591E+03  0.47000000000E+01 0.  1.
         13    1    4    4    0    0  0.89063248270E+02 -0.38852871044E+02 -0.74596632058E+02  0.12250087875E+03  0.00000000000E+00 0. -1.
        -14    1    4    4    0    0  0.62400858712E+01  0.26197930587E+02 -0.13468327921E+02  0.30110896627E+02  0.00000000000E+00 0.  1.
</event>
<event>
12    1  0.1627564E-001  0.1873948E+03  0.7818608E-02  0.1161035E+00
         21   -1    0    0  503  502  0.00000000000E+00  0.00000000000E+00  0.63297104885E+03  0.63297104885E+03  0.00000000000E+00 0. -1.
         21   -1    0    0  501  503 -0.00000000000E+00 -0.00000000000E+00 -0.56822544676E+02  0.56822544676E+02  0.00000000000E+00 0. -1.
          6    2    1    2  501    0 -0.66428155935E+01 -0.75210038208E+02  0.22946961025E+03  0.29570850328E+03  0.17054776468E+03 0.  0.
         24    2    3    3    0    0 -0.31183817000E+02 -0.11025373158E+03  0.14458615323E+03  0.20053701348E+03  0.78623293629E+02 0.  0.
         -6    2    1    2    0  502  0.66428155935E+01  0.75210038208E+02  0.34667889392E+03  0.39408509024E+03  0.17151129997E+03 0.  0.
        -24    2    5    5    0    0  0.14704237492E+02  0.95168036687E+02  0.35018381442E+03  0.37177628718E+03  0.79471592546E+02 0.  0.
          5    1    3    3  501    0  0.24541001406E+02  0.35043693367E+02  0.84883457018E+02  0.95171489797E+02  0.47000000000E+01 0. -1.
        -13    1    4    4    0    0 -0.10541989339E+02 -0.55481869651E+00  0.58843240319E+02  0.59782675536E+02  0.00000000000E+00 0.  1.
         14    1    4    4    0    0 -0.20641827661E+02 -0.10969891288E+03  0.85742912913E+02  0.14075433795E+03  0.00000000000E+00 0. -1.
         -5    1    5    5    0  502 -0.80614218985E+01 -0.19957998478E+02 -0.35049205005E+01  0.22308803061E+02  0.47000000000E+01 0.  1.
         13    1    6    6    0    0  0.64532047803E+01  0.10760435154E+03  0.28023951341E+03  0.30025743154E+03  0.00000000000E+00 0. -1.
        -14    1    6    6    0    0  0.82510327117E+01 -0.12436314849E+02  0.69944301015E+02  0.71518855641E+02  0.00000000000E+00 0.  1.
</event>
<event>
12    1  0.1627564E-001  0.1850256E+03  0.7818608E-02  0.1163953E+00
         21   -1    0    0  503  502  0.00000000000E+00  0.00000000000E+00  0.48854123060E+03  0.48854123060E+03  0.00000000000E+00 0. -1.
         21   -1    0    0  501  503 -0.00000000000E+00 -0.00000000000E+00 -0.90146188163E+02  0.90146188163E+02  0.00000000000E+00 0. -1.
          6    2    1    2  501    0  0.40118857055E+02 -0.54616215399E+02  0.56110821989E+02  0.18959495289E+03  0.16794453888E+03 0.  0.
         24    2    3    3    0    0 -0.38538506381E+02 -0.61934812813E+02  0.42497185493E+02  0.10929573876E+03  0.69414769494E+02 0.  0.
         -6    2    1    2    0  502 -0.40118857055E+02  0.54616215399E+02  0.34228422045E+03  0.38909246588E+03  0.17216853882E+03 0.  0.
        -24    2    5    5    0    0  0.15762234195E+02 -0.27465236931E+02  0.15595640585E+03  0.17790485813E+03  0.79529558979E+02 0.  0.
          5    1    3    3  501    0  0.78657363436E+02  0.73185974133E+01  0.13613636496E+02  0.80299214127E+02  0.47000000000E+01 0. -1.
        -13    1    4    4    0    0 -0.42417030303E+02 -0.43043871132E+01  0.22231275754E+02  0.48082864201E+02  0.00000000000E+00 0.  1.
         14    1    4    4    0    0  0.38785239224E+01 -0.57630425699E+02  0.20265909739E+02  0.61212874558E+02  0.00000000000E+00 0. -1.
         -5    1    5    5    0  502 -0.55881091250E+02  0.82081452331E+02  0.18632781460E+03  0.21118760775E+03  0.47000000000E+01 0.  1.
         11    1    6    6    0    0  0.19350239043E+02 -0.13841283059E+02  0.16114464707E+03  0.16289140600E+03  0.00000000000E+00 0. -1.
        -12    1    6    6    0    0 -0.35880048485E+01 -0.13623953872E+02 -0.51882412176E+01  0.15013452129E+02  0.00000000000E+00 0.  1.
</event>
<event>
12    1  0.1627564E-001  0.1865937E+03  0.7818608E-02  0.1161696E+00
         21   -1    0    0  503  502  0.00000000000E+00  0.00000000000E+00  0.13493322529E+03  0.13493322529E+03  0.00000000000E+00 0. -1.
         21   -1    0    0  501  503 -0.00000000000E+00 -0.00000000000E+00 -0.32920492354E+03  0.32920492354E+03  0.00000000000E+00 0. -1.
          6    2    1    2  501    0  0.65967766145E+02  0.30664488985E+02 -0.20550028053E+03  0.27720689678E+03  0.17123446286E+03 0.  0.
         24    2    3    3    0    0  0.56214922339E+02  0.16125756204E+02 -0.22772056582E+03  0.24853070820E+03  0.80564876440E+02 0.  0.
         -6    2    1    2    0  502 -0.65967766145E+02 -0.30664488985E+02  0.11228582284E+02  0.18693125206E+03  0.17182885346E+03 0.  0.
        -24    2    5    5    0    0 -0.85791554813E+02 -0.21358829310E+02 -0.43423879376E+02  0.12786722354E+03  0.81535287384E+02 0.  0.
          5    1    3    3  501    0  0.97528438056E+01  0.14538732781E+02  0.22220285287E+02  0.28676188579E+02  0.47000000000E+01 0. -1.
        -13    1    4    4    0    0 -0.20721193485E+02  0.17993398303E+00 -0.40564552215E+02  0.45550885085E+02  0.00000000000E+00 0.  1.
         14    1    4    4    0    0  0.76936115824E+02  0.15945822221E+02 -0.18715601360E+03  0.20297982312E+03  0.00000000000E+00 0. -1.
         -5    1    5    5    0  502  0.19823788668E+02 -0.93056596754E+01  0.54652461660E+02  0.59064028517E+02  0.47000000000E+01 0.  1.
         11    1    6    6    0    0 -0.58060597348E+02 -0.36775625328E+01 -0.65996583215E+02  0.87977874643E+02  0.00000000000E+00 0. -1.
        -12    1    6    6    0    0 -0.27730957464E+02 -0.17681266777E+02  0.22572703839E+02  0.39889348896E+02  0.00000000000E+00 0.  1.
</event>
<event>
12    1  0.1627564E-001  0.2158526E+03  0.7818608E-02  0.1140483E+00
         21   -1    0    0  501  502  0.00000000000E+00  0.00000000000E+00  0.40746886452E+03  0.40746886452E+03  0.00000000000E+00 0.  1.
         21   -1    0    0  502  503 -0.00000000000E+00 -0.00000000000E+00 -0.11940346270E+03  0.11940346270E+03  0.00000000000E+00 0.  1.
         -6    2    1    2    0  503 -0.43339880840E+02 -0.89063360414E+02  0.22907683941E+03  0.30310462937E+03  0.17200462364E+03 0.  0.
        -24    2    3    3    0    0 -0.11385075419E+00 -0.32434570159E+02  0.21035776899E+02  0.83153536505E+02  0.73620597799E+02 0.  0.
          6    2    1    2  501    0  0.43339880840E+02  0.89063360414E+02  0.58988562414E+02  0.22376769784E+03  0.19178556949E+03 0.  0.
         24    2    5    5    0    0  0.10037655516E+02  0.13263099327E+03  0.23133389126E+02  0.15808010164E+03  0.82233995028E+02 0.  0.
          5    1    5    5  501    0  0.33302225325E+02 -0.43567632853E+02  0.35855173288E+02  0.65687596207E+02  0.47000000000E+01 0. -1.
        -11    1    6    6    0    0  0.42915331611E+02  0.43682175380E+02  0.42157559941E+01  0.61381029088E+02  0.00000000000E+00 0.  1.
         12    1    6    6    0    0 -0.32877676095E+02  0.88948817886E+02  0.18917633132E+02  0.96699072550E+02  0.00000000000E+00 0. -1.
         -5    1    3    3    0  503 -0.43226030086E+02 -0.56628790255E+02  0.20804106251E+03  0.21995109287E+03  0.47000000000E+01 0.  1.
         11    1    4    4    0    0 -0.33390654623E+02 -0.27135566071E+02 -0.74141239546E+00  0.43032829961E+02  0.00000000000E+00 0. -1.
        -12    1    4    4    0    0  0.33276803869E+02 -0.52990040880E+01  0.21777189294E+02  0.40120706544E+02  0.00000000000E+00 0.  1.
</event>
<event>
12    1  0.1627564E-001  0.1871483E+03  0.7818608E-02  0.1162181E+00
         21   -1    0    0  503  502  0.00000000000E+00  0.00000000000E+00  0.17395155279E+03  0.17395155279E+03  0.00000000000E+00 0.  1.
         21   -1    0    0  501  503 -0.00000000000E+00 -0.00000000000E+00 -0.26211471757E+03  0.26211471757E+03  0.00000000000E+00 0. -1.
          6    2    1    2  501    0  0.51870746183E+01 -0.65989562339E+02 -0.15383972857E+03  0.24226258248E+03  0.17505133163E+03 0.  0.
         24    2    3    3    0    0  0.32384447077E+02  0.16883131192E+02 -0.35290060560E+02  0.95008739793E+02  0.80296199981E+02 0.  0.
         -6    2    1    2    0  502 -0.51870746183E+01  0.65989562339E+02  0.65676563786E+02  0.19380368788E+03  0.16989682258E+03 0.  0.
        -24    2    5    5    0    0 -0.27555815845E+02  0.86753394269E+02  0.93269807752E+02  0.15239143833E+03  0.78983663075E+02 0.  0.
          5    1    3    3  501    0 -0.27197372459E+02 -0.82872693531E+02 -0.11854966801E+03  0.14725384269E+03  0.47000000000E+01 0. -1.
        -13    1    4    4    0    0 -0.11944462669E+02  0.12530692513E+02  0.18389322275E+02  0.25255803631E+02  0.00000000000E+00 0.  1.
         14    1    4    4    0    0  0.44328909746E+02  0.43524386791E+01 -0.53679382835E+02  0.69752936163E+02  0.00000000000E+00 0. -1.
         -5    1    5    5    0  502  0.22368741227E+02 -0.20763831930E+02 -0.27593243966E+02  0.41412249553E+02  0.47000000000E+01 0.  1.
         13    1    6    6    0    0 -0.38099785613E+02  0.78722702129E+02  0.37655691233E+02  0.95219790887E+02  0.00000000000E+00 0. -1.
        -14    1    6    6    0    0  0.10543969768E+02  0.80306921398E+01  0.55614116519E+02  0.57171647439E+02  0.00000000000E+00 0.  1.
</event>
<event>
12    1  0.1627564E-001  0.2353920E+03  0.7818608E-02  0.1122982E+00
         21   -1    0    0  501  502  0.00000000000E+00  0.00000000000E+00  0.78697584008E+03  0.78697584008E+03  0.00000000000E+00 0.  1.
         21   -1    0    0  502  503 -0.00000000000E+00 -0.00000000000E+00 -0.77689611919E+02  0.77689611919E+02  0.00000000000E+00 0.  1.
         -6    2    1    2    0  503  0.10459841667E+03  0.12138807225E+03  0.22067639738E+03  0.32231042204E+03  0.17178487401E+03 0.  0.
        -24    2    3    3    0    0  0.61535299011E+02  0.41886612981E+02  0.20256799181E+03  0.22997993693E+03  0.79472628695E+02 0.  0.
          6    2    1    2  501    0 -0.10459841667E+03 -0.12138807225E+03  0.48860983078E+03  0.54235502996E+03  0.17243410026E+03 0.  0.
         24    2    5    5    0    0 -0.71454820810E+01 -0.27319568994E+01  0.16577969135E+03  0.18483896445E+03  0.81388053256E+02 0.  0.
          5    1    5    5  501    0 -0.97452934592E+02 -0.11865611535E+03  0.32283013943E+03  0.35751606551E+03  0.47000000000E+01 0. -1.
        -11    1    6    6    0    0 -0.38380934987E+02  0.17335327027E+02  0.65125090291E+02  0.77555703331E+02  0.00000000000E+00 0.  1.
         12    1    6    6    0    0  0.31235452906E+02 -0.20067283927E+02  0.10065460106E+03  0.10728326112E+03  0.00000000000E+00 0. -1.
         -5    1    3    3    0  503  0.43063117662E+02  0.79501459271E+02  0.18108405572E+02  0.92330485114E+02  0.47000000000E+01 0.  1.
         13    1    4    4    0    0 -0.99988449464E+01  0.35662092205E+02  0.72195236368E+02  0.81141320392E+02  0.00000000000E+00 0. -1.
        -14    1    4    4    0    0  0.71534143958E+02  0.62245207765E+01  0.13037275544E+03  0.14883861653E+03  0.00000000000E+00 0.  1.
</event>
<event>
12    1  0.1627564E-001  0.1942421E+03  0.7818608E-02  0.1155332E+00
         21   -1    0    0  501  502  0.00000000000E+00  0.00000000000E+00  0.40202126434E+03  0.40202126434E+03  0.00000000000E+00 0.  1.
         21   -1    0    0  502  503 -0.00000000000E+00 -0.00000000000E+00 -0.27836636502E+03  0.27836636502E+03  0.00000000000E+00 0.  1.
         -6    2    1    2    0  503 -0.74970450395E+02  0.41700971348E+02 -0.21603493461E+03  0.29051865329E+03  0.17427121246E+03 0.  0.
        -24    2    3    3    0    0 -0.84092198240E+02 -0.22545654582E+02 -0.91194522500E+02  0.14974204400E+03  0.80786350712E+02 0.  0.
          6    2    1    2  501    0  0.74970450395E+02 -0.41700971348E+02  0.33968983392E+03  0.38986897607E+03  0.17102367027E+03 0.  0.
         24    2    5    5    0    0  0.82669021581E+01  0.53729389221E+01  0.75339631069E+02  0.11315895435E+03  0.83855105959E+02 0.  0.
          5    1    5    5  501    0  0.66703548236E+02 -0.47073910270E+02  0.26435020285E+03  0.27671002173E+03  0.47000000000E+01 0. -1.
        -11    1    6    6    0    0  0.15184481272E+02 -0.29061621239E+02  0.70438146757E+02  0.77696066948E+02  0.00000000000E+00 0.  1.
         12    1    6    6    0    0 -0.69175791144E+01  0.34434560161E+02  0.49014843117E+01  0.35462887400E+02  0.00000000000E+00 0. -1.
         -5    1    3    3    0  503  0.91217478459E+01  0.64246625930E+02 -0.12484041211E+03  0.14077660929E+03  0.47000000000E+01 0.  1.
         13    1    4    4    0    0  0.63631524320E+01  0.15694736218E+02 -0.19583641219E+01  0.17048449896E+02  0.00000000000E+00 0. -1.
        -14    1    4    4    0    0 -0.90455350672E+02 -0.38240390800E+02 -0.89236158379E+02  0.13269359410E+03  0.00000000000E+00 0.  1.
</event>
<event>
12    1  0.1627564E-001  0.2636223E+03  0.7818608E-02  0.1105560E+00
         21   -1    0    0  503  502  0.00000000000E+00  0.00000000000E+00  0.15335798612E+03  0.15335798612E+03  0.00000000000E+00 0. -1.
         21   -1    0    0  501  503 -0.00000000000E+00 -0.00000000000E+00 -0.57323746451E+03  0.57323746451E+03  0.00000000000E+00 0. -1.
          6    2    1    2  501    0  0.62958910833E+02 -0.18886039779E+03 -0.37951645723E+03  0.45990110683E+03  0.16686585165E+03 0.  0.
         24    2    3    3    0    0  0.86080301119E+02 -0.15010673910E+03 -0.19372630602E+03  0.26865123091E+03  0.68569314297E+02 0.  0.
         -6    2    1    2    0  502 -0.62958910833E+02  0.18886039779E+03 -0.40363021150E+02  0.26669434380E+03  0.17281384560E+03 0.  0.
        -24    2    5    5    0    0 -0.43687867983E+02  0.21204237443E+03 -0.46560524021E+02  0.23556114326E+03  0.80315449679E+02 0.  0.
          5    1    3    3  501    0 -0.23121390286E+02 -0.38753658689E+02 -0.18579015121E+03  0.19124987592E+03  0.47000000000E+01 0. -1.
        -11    1    4    4    0    0  0.27462313761E+02 -0.61630871846E+02 -0.30715327537E+02  0.74134839228E+02  0.00000000000E+00 0.  1.
         12    1    4    4    0    0  0.58617987358E+02 -0.88475867251E+02 -0.16301097848E+03  0.19451639168E+03  0.00000000000E+00 0. -1.
         -5    1    5    5    0  502 -0.19271042850E+02 -0.23181976643E+02  0.61975028709E+01  0.31133200533E+02  0.47000000000E+01 0.  1.
         13    1    6    6    0    0 -0.65445830969E+02  0.14618204039E+03 -0.20519890123E+02  0.16147263426E+03  0.00000000000E+00 0. -1.
        -14    1    6    6    0    0  0.21757962986E+02  0.65860334033E+02 -0.26040633899E+02  0.74088509002E+02  0.00000000000E+00 0.  1.
</event>
<event>
12    1  0.1627564E-001  0.2651553E+03  0.7818608E-02  0.1104181E+00
         21   -1    0    0  503  502  0.00000000000E+00  0.00000000000E+00  0.42071366897E+03  0.42071366897E+03  0.00000000000E+00 0.  1.
         21   -1    0    0  501  503 -0.00000000000E+00 -0.00000000000E+00 -0.16957889067E+03  0.16957889067E+03  0.00000000000E+00 0. -1.
          6    2    1    2  501    0  0.20136583009E+03 -0.11411626092E+01  0.86959280241E+02  0.27842570153E+03  0.17149185133E+03 0.  0.
         24    2    3    3    0    0  0.10396090901E+03 -0.60876062883E+02  0.19969137657E+02  0.14588987179E+03  0.79820565004E+02 0.  0.
         -6    2    1    2    0  502 -0.20136583009E+03  0.11411626092E+01  0.16417549806E+03  0.31186685811E+03  0.17250461804E+03 0.  0.
        -24    2    5    5    0    0 -0.54218405667E+02  0.46383668957E+02  0.59643950507E+02  0.12572663320E+03  0.84609131924E+02 0.  0.
          5    1    3    3  501    0  0.97404921086E+02  0.59734900273E+02  0.66990142585E+02  0.13253582974E+03  0.47000000000E+01 0. -1.
        -13    1    4    4    0    0  0.56893912615E+02 -0.52688338152E+02  0.47319314203E+02  0.90841046705E+02  0.00000000000E+00 0.  1.
         14    1    4    4    0    0  0.47066996393E+02 -0.81877247302E+01 -0.27350176547E+02  0.55048825081E+02  0.00000000000E+00 0. -1.
         -5    1    5    5    0  502 -0.14714742443E+03 -0.45242506348E+02  0.10453154756E+03  0.18614022491E+03  0.47000000000E+01 0.  1.
         13    1    6    6    0    0 -0.33315117954E+02  0.20786359581E+02 -0.16596895533E+02  0.42631288630E+02  0.00000000000E+00 0. -1.
        -14    1    6    6    0    0 -0.20903287713E+02  0.25597309375E+02  0.76240846039E+02  0.83095344570E+02  0.00000000000E+00 0.  1.
</event>
<event>
12    1  0.1627564E-001  0.2849143E+03  0.7818608E-02  0.1093253E+00
         21   -1    0    0  501  502  0.00000000000E+00  0.00000000000E+00  0.67277034003E+03  0.67277034003E+03  0.00000000000E+00 0.  1.
         21   -1    0    0  502  503 -0.00000000000E+00 -0.00000000000E+00 -0.12511991833E+03  0.12511991833E+03  0.00000000000E+00 0.  1.
         -6    2    1    2    0  503  0.13284590103E+03  0.18401518986E+03  0.19213773921E+03  0.34229676857E+03  0.16953036136E+03 0.  0.
        -24    2    3    3    0    0  0.22582377668E+02  0.51387498335E+02  0.12190765695E+03  0.15601068858E+03  0.79543820393E+02 0.  0.
          6    2    1    2  501    0 -0.13284590103E+03 -0.18401518986E+03  0.35551268249E+03  0.45559348980E+03  0.17223976608E+03 0.  0.
         24    2    5    5    0    0 -0.88505915397E+02 -0.32057602053E+02  0.16677788723E+03  0.20921967675E+03  0.84243828018E+02 0.  0.
          5    1    5    5  501    0 -0.44339985628E+02 -0.15195758780E+03  0.18873479526E+03  0.24637381305E+03  0.47000000000E+01 0. -1.
        -13    1    6    6    0    0 -0.78042327276E+02 -0.41208863792E+02  0.73329795839E+02  0.11474334081E+03  0.00000000000E+00 0.  1.
         14    1    6    6    0    0 -0.10463588121E+02  0.91512617387E+01  0.93448091395E+02  0.94476335943E+02  0.00000000000E+00 0. -1.
         -5    1    3    3    0  503  0.11026352336E+03  0.13262769152E+03  0.70230082263E+02  0.18628607999E+03  0.47000000000E+01 0.  1.
         13    1    4    4    0    0  0.17844755845E+02  0.63642046655E+02  0.12597090869E+03  0.14225826953E+03  0.00000000000E+00 0. -1.
        -14    1    4    4    0    0  0.47376218229E+01 -0.12254548320E+02 -0.40632517411E+01  0.13752419051E+02  0.00000000000E+00 0.  1.
</event>
<event>
12    1  0.1627564E-001  0.2051343E+03  0.7818608E-02  0.1145480E+00
         21   -1    0    0  501  502  0.00000000000E+00  0.00000000000E+00  0.12004177429E+03  0.12004177429E+03  0.00000000000E+00 0.  1.
         21   -1    0    0  502  503 -0.00000000000E+00 -0.00000000000E+00 -0.44034680008E+03  0.44034680008E+03  0.00000000000E+00 0.  1.
         -6    2    1    2    0  503  0.16134644693E+02  0.10991295799E+03 -0.28669950624E+03  0.35252901763E+03  0.17244975008E+03 0.  0.
        -24    2    3    3    0    0  0.55704129048E+02  0.12100899490E+03 -0.26197774084E+03  0.30434061849E+03  0.79023721294E+02 0.  0.
          6    2    1    2  501    0 -0.16134644693E+02 -0.10991295799E+03 -0.33605519548E+02  0.20785955674E+03  0.17243862471E+03 0.  0.
         24    2    5    5    0    0 -0.48639176694E+02 -0.11989549860E+03 -0.61731934457E+02  0.16348184913E+03  0.78579788540E+02 0.  0.
          5    1    5    5  501    0  0.32504532001E+02  0.99825406151E+01  0.28126414910E+02  0.44377707617E+02  0.47000000000E+01 0. -1.
        -11    1    6    6    0    0 -0.57891072651E+02 -0.75431199973E+02 -0.11525602830E+02  0.95781426919E+02  0.00000000000E+00 0.  1.
         12    1    6    6    0    0  0.92518959572E+01 -0.44464298629E+02 -0.50206331628E+02  0.67700422206E+02  0.00000000000E+00 0. -1.
         -5    1    3    3    0  503 -0.39569484355E+02 -0.11096036915E+02 -0.24721765399E+02  0.48188399141E+02  0.47000000000E+01 0.  1.
         11    1    4    4    0    0  0.31555446215E+02  0.39047717230E+02 -0.33360035859E+02  0.60277378835E+02  0.00000000000E+00 0. -1.
        -12    1    4    4    0    0  0.24148682833E+02  0.81961277672E+02 -0.22861770498E+03  0.24406323965E+03  0.00000000000E+00 0.  1.
</event>
<event>
12    1  0.1627564E-001  0.2249574E+03  0.7818608E-02  0.1130336E+00
         21   -1    0    0  501  502  0.00000000000E+00  0.00000000000E+00  0.58522355493E+03  0.58522355493E+03  0.00000000000E+00 0. -1.
         21   -1    0    0  502  503 -0.00000000000E+00 -0.00000000000E+00 -0.10529356628E+03  0.10529356628E+03  0.00000000000E+00 0. -1.
         -6    2    1    2    0  503 -0.14300906554E+03  0.12595004003E+02  0.92974008097E+02  0.24292272861E+03  0.17250234474E+03 0.  0.
        -24    2    3    3    0    0 -0.14690499811E+03 -0.42195449452E+02  0.80108793985E+02  0.18631198922E+03  0.70236771194E+02 0.  0.
          6    2    1    2  501    0  0.14300906554E+03 -0.12595004003E+02  0.38695598056E+03  0.44759439260E+03  0.17319232789E+03 0.  0.
         24    2    5    5    0    0  0.41636724949E+02  0.16427974089E+02  0.95193253343E+02  0.13732634125E+03  0.88279518131E+02 0.  0.
          5    1    5    5  501    0  0.10137234059E+03 -0.29022978092E+02  0.29176272722E+03  0.31026805135E+03  0.47000000000E+01 0. -1.
        -13    1    6    6    0    0  0.40878623796E+02 -0.27380259844E+02  0.26593366694E+02  0.55928057937E+02  0.00000000000E+00 0.  1.
         14    1    6    6    0    0  0.75810115335E+00  0.43808233932E+02  0.68599886649E+02  0.81398283311E+02  0.00000000000E+00 0. -1.
         -5    1    3    3    0  503  0.38959325707E+01  0.54790453455E+02  0.12865214112E+02  0.56610739392E+02  0.47000000000E+01 0.  1.
         11    1    4    4    0    0 -0.12550459599E+03 -0.20777164007E+02  0.34921618805E+02  0.13191896611E+03  0.00000000000E+00 0. -1.
        -12    1    4    4    0    0 -0.21400402124E+02 -0.21418285445E+02  0.45187175181E+02  0.54393023112E+02  0.00000000000E+00 0.  1.
</event>
<event>
12    1  0.1627564E-001  0.2160519E+03  0.7818608E-02  0.1137056E+00
         21   -1    0    0  501  502  0.00000000000E+00  0.00000000000E+00  0.17102505783E+03  0.17102505783E+03  0.00000000000E+00 0. -1.
         21   -1    0    0  502  503 -0.00000000000E+00 -0.00000000000E+00 -0.27221741848E+03  0.27221741848E+03  0.00000000000E+00 0.  1.
         -6    2    1    2    0  503 -0.12652770616E+03  0.30575614116E+02 -0.60599297191E+02  0.22341024129E+03  0.17115996170E+03 0.  0.
        -24    2    3    3    0    0 -0.14991076384E+03 -0.55123781275E+01 -0.38409017079E+02  0.17479327818E+03  0.81079060642E+02 0.  0.
          6    2    1    2  501    0  0.12652770616E+03 -0.30575614116E+02 -0.40593063456E+02  0.21983223502E+03  0.17243632491E+03 0.  0.
         24    2    5    5    0    0  0.12912456203E+02  0.42310992409E+01 -0.58509788866E+02  0.99569891092E+02  0.79411171085E+02 0.  0.
          5    1    5    5  501    0  0.11361524996E+03 -0.34806713357E+02  0.17916725410E+02  0.12026234393E+03  0.47000000000E+01 0. -1.
        -13    1    6    6    0    0  0.30981798647E+02  0.33468658944E+02 -0.39247933769E+02  0.60169953332E+02  0.00000000000E+00 0.  1.
         14    1    6    6    0    0 -0.18069342444E+02 -0.29237559703E+02 -0.19261855097E+02  0.39399937760E+02  0.00000000000E+00 0. -1.
         -5    1    3    3    0  503  0.23383057684E+02  0.36087992244E+02 -0.22190280112E+02  0.48616963112E+02  0.47000000000E+01 0.  1.
         13    1    4    4    0    0 -0.46515214008E+02 -0.16876035741E+02  0.22387645927E+02  0.54310886632E+02  0.00000000000E+00 0. -1.
        -14    1    4    4    0    0 -0.10339554983E+03  0.11363657614E+02 -0.60796663006E+02  0.12048239155E+03  0.00000000000E+00 0.  1.
</event>
<event>
12    1  0.1627564E-001  0.1886151E+03  0.7818608E-02  0.1161780E+00
         21   -1    0    0  503  502  0.00000000000E+00  0.00000000000E+00  0.66891021078E+03  0.66891021078E+03  0.00000000000E+00 0.  1.
         21   -1    0    0  501  503 -0.00000000000E+00 -0.00000000000E+00 -0.96993634962E+02  0.96993634962E+02  0.00000000000E+00 0. -1.
          6    2    1    2  501    0  0.45511025462E+01 -0.77505012338E+02  0.25083228829E+02  0.19027569679E+03  0.17189512194E+03 0.  0.
         24    2    3    3    0    0  0.67588595478E+02 -0.35846467091E+02  0.22604561888E+02  0.11453011146E+03  0.82176595028E+02 0.  0.
         -6    2    1    2    0  502 -0.45511025462E+01  0.77505012338E+02  0.54683334699E+03  0.57562814896E+03  0.16215214158E+03 0.  0.
        -24    2    5    5    0    0  0.47061355099E+02  0.29891989939E+02  0.42334089743E+03  0.43348976293E+03  0.74749962644E+02 0.  0.
          5    1    3    3  501    0 -0.63037492932E+02 -0.41658545247E+02  0.24786669411E+01  0.75745585331E+02  0.47000000000E+01 0. -1.
        -11    1    4    4    0    0  0.38730892684E+02 -0.59715648160E+02  0.28402697677E+02  0.76633895364E+02  0.00000000000E+00 0.  1.
         12    1    4    4    0    0  0.28857702795E+02  0.23869181069E+02 -0.57981357887E+01  0.37896216093E+02  0.00000000000E+00 0. -1.
         -5    1    5    5    0  502 -0.51612457645E+02  0.47613022399E+02  0.12349244956E+03  0.14213838603E+03  0.47000000000E+01 0.  1.
         11    1    6    6    0    0  0.89837342176E+01  0.36073126283E+02  0.82695903609E+02  0.90667471532E+02  0.00000000000E+00 0. -1.
        -12    1    6    6    0    0  0.38077620881E+02 -0.61811363446E+01  0.34064499382E+03  0.34282229139E+03  0.00000000000E+00 0.  1.
</event>
<event>
12    1  0.1627564E-001  0.1884720E+03  0.7818608E-02  0.1159891E+00
         21   -1    0    0  501  502  0.00000000000E+00  0.00000000000E+00  0.19247992581E+03  0.19247992581E+03  0.00000000000E+00 0.  1.
         21   -1    0    0  502  503 -0.00000000000E+00 -0.00000000000E+00 -0.37168056130E+03  0.37168056130E+03  0.00000000000E+00 0.  1.
         -6    2    1    2    0  503 -0.45336161221E+02 -0.63370497510E+02 -0.28983240386E+03  0.34561742063E+03  0.17139834201E+03 0.  0.
        -24    2    3    3    0    0  0.39952657551E+01 -0.78013933191E+02 -0.10476796367E+03  0.15347435695E+03  0.80473076922E+02 0.  0.
          6    2    1    2  501    0  0.45336161221E+02  0.63370497510E+02  0.11063176836E+03  0.21854306648E+03  0.17161146893E+03 0.  0.
         24    2    5    5    0    0  0.81008638185E+02  0.20078876978E+02  0.31766201912E+02  0.12164849701E+03  0.82605716995E+02 0.  0.
          5    1    5    5  501    0 -0.35672476964E+02  0.43291620532E+02  0.78865566451E+02  0.96894569470E+02  0.47000000000E+01 0. -1.
        -11    1    6    6    0    0  0.46709068140E+01 -0.56932504973E+01  0.39986959570E+02  0.40659407365E+02  0.00000000000E+00 0.  1.
         12    1    6    6    0    0  0.76337731371E+02  0.25772127475E+02 -0.82207576574E+01  0.80989089647E+02  0.00000000000E+00 0. -1.
         -5    1    3    3    0  503 -0.49331426977E+02  0.14643435682E+02 -0.18506444019E+03  0.19214306367E+03  0.47000000000E+01 0.  1.
         13    1    4    4    0    0  0.30814398906E+02 -0.20966579152E+01 -0.37308859347E+02  0.48434224885E+02  0.00000000000E+00 0. -1.
        -14    1    4    4    0    0 -0.26819133151E+02 -0.75917275276E+02 -0.67459104327E+02  0.10504013207E+03  0.00000000000E+00 0.  1.
</event>
<event>
12    1  0.1627564E-001  0.1774518E+03  0.7818608E-02  0.1170398E+00
         21   -1    0    0  501  502  0.00000000000E+00  0.00000000000E+00  0.13338407386E+04  0.13338407386E+04  0.00000000000E+00 0. -1.
         21   -1    0    0  502  503 -0.00000000000E+00 -0.00000000000E+00 -0.24022664032E+02  0.24022664032E+02  0.00000000000E+00 0. -1.
         -6    2    1    2    0  503 -0.30496337999E+02  0.16981472204E+02  0.75083357125E+03  0.77151809893E+03  0.17398485061E+03 0.  0.
        -24    2    3    3    0    0 -0.51418543642E+02  0.28474715795E+02  0.25474144743E+03  0.27482974730E+03  0.84755583250E+02 0.  0.
          6    2    1    2  501    0  0.30496337999E+02 -0.16981472204E+02  0.55898450331E+03  0.58634530369E+03  0.17354752428E+03 0.  0.
         24    2    5    5    0    0 -0.19857217640E+01 -0.61102981780E+02  0.20556959571E+03  0.22867789012E+03  0.79354907066E+02 0.  0.
          5    1    5    5  501    0  0.32482059763E+02  0.44121509577E+02  0.35341490761E+03  0.35766741357E+03  0.47000000000E+01 0. -1.
        -11    1    6    6    0    0  0.16370628180E+02 -0.69953767017E+02  0.18970049628E+03  0.20284921808E+03  0.00000000000E+00 0.  1.
         12    1    6    6    0    0 -0.18356349944E+02  0.88507852367E+01  0.15869099430E+02  0.25828672038E+02  0.00000000000E+00 0. -1.
         -5    1    3    3    0  503  0.20922205643E+02 -0.11493243591E+02  0.49609212381E+03  0.49668835163E+03  0.47000000000E+01 0.  1.
         13    1    4    4    0    0 -0.17555538719E+02  0.51753253261E+02  0.19357703595E+03  0.20114339415E+03  0.00000000000E+00 0. -1.
        -14    1    4    4    0    0 -0.33863004923E+02 -0.23278537466E+02  0.61164411488E+02  0.73686353157E+02  0.00000000000E+00 0.  1.
</event>
<event>
12    1  0.1627564E-001  0.1835344E+03  0.7818608E-02  0.1164874E+00
         21   -1    0    0  501  502  0.00000000000E+00  0.00000000000E+00  0.37650260297E+03  0.37650260297E+03  0.00000000000E+00 0.  1.
         21   -1    0    0  502  503 -0.00000000000E+00 -0.00000000000E+00 -0.89438943231E+02  0.89438943231E+02  0.00000000000E+00 0.  1.
         -6    2    1    2    0  503 -0.46305300877E+02 -0.36241073110E+02  0.11955858944E+03  0.21746053111E+03  0.17186398696E+03 0.  0.
        -24    2    3    3    0    0 -0.54520453541E+02 -0.69580520492E+02  0.37855501855E+02  0.12871092826E+03  0.85554283045E+02 0.  0.
          6    2    1    2  501    0  0.46305300877E+02  0.36241073110E+02  0.16750507030E+03  0.24848101509E+03  0.17385991491E+03 0.  0.
         24    2    5    5    0    0  0.76755777825E+02  0.76759268240E+02  0.15135623851E+03  0.19507848283E+03  0.57995420852E+02 0.  0.
          5    1    5    5  501    0 -0.30450476948E+02 -0.40518195130E+02  0.16148831793E+02  0.53402532255E+02  0.47000000000E+01 0. -1.
        -11    1    6    6    0    0  0.34416995509E+02  0.46047602057E+02  0.34488559950E+02  0.67040077584E+02  0.00000000000E+00 0.  1.
         12    1    6    6    0    0  0.42338782316E+02  0.30711666183E+02  0.11686767856E+03  0.12803840525E+03  0.00000000000E+00 0. -1.
         -5    1    3    3    0  503  0.82151526643E+01  0.33339447382E+02  0.81703087584E+02  0.88749602849E+02  0.47000000000E+01 0.  1.
         11    1    4    4    0    0 -0.10018186482E+00  0.29417186642E+00 -0.21880020866E+02  0.21882227642E+02  0.00000000000E+00 0. -1.
        -12    1    4    4    0    0 -0.54420271676E+02 -0.69874692358E+02  0.59735522721E+02  0.10682870062E+03  0.00000000000E+00 0.  1.
</event>
<event>
12    1  0.1627564E-001  0.3083711E+03  0.7818608E-02  0.1081361E+00
         21   -1    0    0  503  502  0.00000000000E+00  0.00000000000E+00  0.84505673014E+03  0.84505673014E+03  0.00000000000E+00 0. -1.
         21   -1    0    0  501  503 -0.00000000000E+00 -0.00000000000E+00 -0.11565864356E+03  0.11565864356E+03  0.00000000000E+00 0.  1.
          6    2    1    2  501    0 -0.12175256931E+03 -0.22391613686E+03  0.27619624244E+03  0.41255060189E+03  0.17015143343E+03 0.  0.
         24    2    3    3    0    0 -0.69761362648E+02 -0.19863724743E+03  0.14090889464E+03  0.26535391613E+03  0.78955559869E+02 0.  0.
         -6    2    1    2    0  502  0.12175256931E+03  0.22391613686E+03  0.45320184414E+03  0.54816477181E+03  0.17358162645E+03 0.  0.
        -24    2    5    5    0    0  0.49314990132E+02  0.19940997705E+03  0.39326515664E+03  0.45089066809E+03  0.80303200114E+02 0.  0.
          5    1    3    3  501    0 -0.51991206658E+02 -0.25278889431E+02  0.13528734781E+03  0.14719668576E+03  0.47000000000E+01 0. -1.
        -11    1    4    4    0    0 -0.31770994391E+02 -0.20860219776E+02  0.49128334661E+01  0.38323371281E+02  0.00000000000E+00 0.  1.
         12    1    4    4    0    0 -0.37990368257E+02 -0.17777702765E+03  0.13599606117E+03  0.22703054485E+03  0.00000000000E+00 0. -1.
         -5    1    5    5    0  502  0.72437579174E+02  0.24506159812E+02  0.59936687501E+02  0.97274103717E+02  0.47000000000E+01 0.  1.
         11    1    6    6    0    0  0.13310597807E+02  0.15918647362E+03  0.23914673228E+03  0.28759114200E+03  0.00000000000E+00 0. -1.
        -12    1    6    6    0    0  0.36004392325E+02  0.40223503428E+02  0.15411842436E+03  0.16329952609E+03  0.00000000000E+00 0.  1.
</event>
<event>
12    1  0.1627564E-001  0.2441013E+03  0.7818608E-02  0.1117257E+00
         21   -1    0    0  503  502  0.00000000000E+00  0.00000000000E+00  0.13035377473E+03  0.13035377473E+03  0.00000000000E+00 0. -1.
         21   -1    0    0  501  503 -0.00000000000E+00 -0.00000000000E+00 -0.59899016202E+03  0.59899016202E+03  0.00000000000E+00 0.  1.
          6    2    1    2  501    0  0.17276850364E+03 -0.97607817978E+01 -0.41336908174E+03  0.48006193356E+03  0.17216629636E+03 0.  0.
         24    2    3    3    0    0  0.18581237792E+03  0.16463723335E+02 -0.39785822655E+03  0.44658740661E+03  0.79698490177E+02 0.  0.
         -6    2    1    2    0  502 -0.17276850364E+03  0.97607817978E+01 -0.55267305551E+02  0.24928200320E+03  0.17071266310E+03 0.  0.
        -24    2    5    5    0    0 -0.66705025189E+02  0.32402107329E+02  0.28004881653E+02  0.11246665959E+03  0.79781070304E+02 0.  0.
          5    1    3    3  501    0 -0.13043874279E+02 -0.26224505133E+02 -0.15510855190E+02  0.33474526948E+02  0.47000000000E+01 0. -1.
        -13    1    4    4    0    0  0.67823295592E+02  0.28604278879E+02 -0.87545338709E+02  0.11437827820E+03  0.00000000000E+00 0.  1.
         14    1    4    4    0    0  0.11798908233E+03 -0.12140555544E+02 -0.31031288784E+03  0.33220912841E+03  0.00000000000E+00 0. -1.
         -5    1    5    5    0  502 -0.10606347845E+03 -0.22641325531E+02 -0.83272187204E+02  0.13681534360E+03  0.47000000000E+01 0.  1.
         11    1    6    6    0    0 -0.37010343427E+02 -0.10133121775E+02  0.43808546487E+02  0.58237740537E+02  0.00000000000E+00 0. -1.
        -12    1    6    6    0    0 -0.29694681762E+02  0.42535229104E+02 -0.15803664834E+02  0.54228919057E+02  0.00000000000E+00 0.  1.
</event>
<event>
12    1  0.1627564E-001  0.1966371E+03  0.7818608E-02  0.1152623E+00
         21   -1    0    0  501  502  0.00000000000E+00  0.00000000000E+00  0.18402455474E+04  0.18402455474E+04  0.00000000000E+00 0. -1.
         21   -1    0    0  502  503 -0.00000000000E+00 -0.00000000000E+00 -0.25880125700E+02  0.25880125700E+02  0.00000000000E+00 0.  1.
         -6    2    1    2    0  503 -0.33602794234E+02  0.90677525711E+02  0.50229501725E+03  0.53941305931E+03  0.17121507747E+03 0.  0.
        -24    2    3    3    0    0 -0.64579319785E+02  0.26024093448E+01  0.28336661374E+03  0.30136157933E+03  0.79654897127E+02 0.  0.
          6    2    1    2  501    0  0.33602794234E+02 -0.90677525711E+02  0.13120704044E+04  0.13267126138E+04  0.17113167999E+03 0.  0.
         24    2    5    5    0    0  0.63147918231E+02 -0.96978951351E+01  0.88485732731E+03  0.89086433950E+03  0.81148462390E+02 0.  0.
          5    1    5    5  501    0 -0.29545123997E+02 -0.80979630576E+02  0.42721307712E+03  0.43584827426E+03  0.47000000000E+01 0. -1.
        -13    1    6    6    0    0  0.12790847287E+02  0.36272634789E+01  0.17666064320E+02  0.22110012285E+02  0.00000000000E+00 0.  1.
         14    1    6    6    0    0  0.50357070944E+02 -0.13325158614E+02  0.86719126299E+03  0.86875432722E+03  0.00000000000E+00 0. -1.
         -5    1    3    3    0  503  0.30976525551E+02  0.88075116366E+02  0.21892840351E+03  0.23805147998E+03  0.47000000000E+01 0.  1.
         13    1    4    4    0    0 -0.79450584949E+02  0.16818961479E+02  0.20970879390E+03  0.22488452849E+03  0.00000000000E+00 0. -1.
        -14    1    4    4    0    0  0.14871265165E+02 -0.14216552134E+02  0.73657819837E+02  0.76477050841E+02  0.00000000000E+00 0.  1.
</event>
<event>
12    1  0.1627564E-001  0.2516883E+03  0.7818608E-02  0.1112301E+00
         21   -1    0    0  501  502  0.00000000000E+00  0.00000000000E+00  0.30298079147E+03  0.30298079147E+03  0.00000000000E+00 0. -1.
         21   -1    0    0  502  503 -0.00000000000E+00 -0.00000000000E+00 -0.24568255780E+03  0.24568255780E+03  0.00000000000E+00 0. -1.
         -6    2    1    2    0  503  0.17996403408E+03 -0.34435831867E+02 -0.77706586208E+02  0.26305292582E+03  0.17200479110E+03 0.  0.
        -24    2    3    3    0    0  0.19701240769E+03 -0.60039800967E+02 -0.70363610353E+02  0.23108075713E+03  0.77644138034E+02 0.  0.
          6    2    1    2  501    0 -0.17996403408E+03  0.34435831867E+02  0.13500481988E+03  0.28561042345E+03  0.17255182558E+03 0.  0.
         24    2    5    5    0    0 -0.13154855629E+03  0.82448917819E+02  0.12475275919E+03  0.21649812598E+03  0.84884279561E+02 0.  0.
          5    1    5    5  501    0 -0.48415477795E+02 -0.48013085951E+02  0.10252060688E+02  0.69112297466E+02  0.47000000000E+01 0. -1.
        -11    1    6    6    0    0 -0.79037920965E+02  0.64046789773E+02  0.29051224955E+02  0.10579677643E+03  0.00000000000E+00 0.  1.
         12    1    6    6    0    0 -0.52510635326E+02  0.18402128046E+02  0.95701534232E+02  0.11070134955E+03  0.00000000000E+00 0. -1.
         -5    1    3    3    0  503 -0.17048373605E+02  0.25603969100E+02 -0.73429758552E+01  0.31972168689E+02  0.47000000000E+01 0.  1.
         11    1    4    4    0    0  0.16361787919E+03 -0.77633975943E+02 -0.48597515277E+02  0.18750883473E+03  0.00000000000E+00 0. -1.
        -12    1    4    4    0    0  0.33394528500E+02  0.17594174976E+02 -0.21766095076E+02  0.43571922400E+02  0.00000000000E+00 0.  1.
</event>
<event>
12    1  0.1627564E-001  0.2594243E+03  0.7818608E-02  0.1107555E+00
         21   -1    0    0  503  502  0.00000000000E+00  0.00000000000E+00  0.50859135260E+02  0.50859135260E+02  0.00000000000E+00 0.  1.
         21   -1    0    0  501  503 -0.00000000000E+00 -0.00000000000E+00 -0.15584029461E+04  0.15584029461E+04  0.00000000000E+00 0.  1.
          6    2    1    2  501    0 -0.15121233692E+02  0.19333989057E+03 -0.10683143649E+04  0.10993618932E+04  0.17231373991E+03 0.  0.
         24    2    3    3    0    0 -0.70842250781E+02  0.87782493741E+02 -0.63262935173E+03  0.64759788791E+03  0.80241741320E+02 0.  0.
         -6    2    1    2    0  502  0.15121233692E+02 -0.19333989057E+03 -0.43922944588E+03  0.50990018811E+03  0.17165876240E+03 0.  0.
        -24    2    5    5    0    0  0.10191892692E+02 -0.29891390230E+02 -0.22201135283E+03  0.23797096824E+03  0.79647793788E+02 0.  0.
          5    1    3    3  501    0  0.55721017088E+02  0.10555739683E+03 -0.43568501319E+03  0.45176400531E+03  0.47000000000E+01 0. -1.
        -11    1    4    4    0    0 -0.42649548084E+01  0.68557310469E+02 -0.28902952895E+03  0.29707972543E+03  0.00000000000E+00 0.  1.
         12    1    4    4    0    0 -0.66577295973E+02  0.19225183273E+02 -0.34359982278E+03  0.35051816248E+03  0.00000000000E+00 0. -1.
         -5    1    5    5    0  502  0.49293410000E+01 -0.16344850034E+03 -0.21721809306E+03  0.27192921987E+03  0.47000000000E+01 0.  1.
         11    1    6    6    0    0 -0.31445672164E+02 -0.17493428343E+01 -0.12257247561E+03  0.12655395006E+03  0.00000000000E+00 0. -1.
        -12    1    6    6    0    0  0.41637564856E+02 -0.28142047396E+02 -0.99438877218E+02  0.11141701818E+03  0.00000000000E+00 0.  1.
</event>
<event>
12    1  0.1627564E-001  0.2766564E+03  0.7818608E-02  0.1097642E+00
         21   -1    0    0  503  502  0.00000000000E+00  0.00000000000E+00  0.23272274800E+03  0.23272274800E+03  0.00000000000E+00 0. -1.
         21   -1    0    0  501  503 -0.00000000000E+00 -0.00000000000E+00 -0.73582506437E+03  0.73582506437E+03  0.00000000000E+00 0. -1.
          6    2    1    2  501    0  0.12344738304E+03  0.17879902928E+03 -0.61227982510E+03  0.67188196077E+03  0.17126130836E+03 0.  0.
         24    2    3    3    0    0  0.44800354253E+02  0.18570985188E+02 -0.26106085914E+03  0.27788293374E+03  0.81940218824E+02 0.  0.
         -6    2    1    2    0  502 -0.12344738304E+03 -0.17879902928E+03  0.10917750872E+03  0.29666585160E+03  0.16994866827E+03 0.  0.
        -24    2    5    5    0    0 -0.67842741394E+02 -0.17943211234E+03  0.41644364428E+02  0.20905824609E+03  0.71920627553E+02 0.  0.
          5    1    3    3  501    0  0.78647028782E+02  0.16022804409E+03 -0.35121896596E+03  0.39399902703E+03  0.47000000000E+01 0. -1.
        -13    1    4    4    0    0  0.60048892134E+01  0.25344610625E+01 -0.21673669237E+03  0.21683467436E+03  0.00000000000E+00 0.  1.
         14    1    4    4    0    0  0.38795465040E+02  0.16036524125E+02 -0.44324166767E+02  0.61048259380E+02  0.00000000000E+00 0. -1.
         -5    1    5    5    0  502 -0.55604641641E+02  0.63308306397E+00  0.67533144296E+02  0.87607605519E+02  0.47000000000E+01 0.  1.
         13    1    6    6    0    0  0.85125557836E+01 -0.73891648434E+02  0.10454301760E+02  0.75111462105E+02  0.00000000000E+00 0. -1.
        -14    1    6    6    0    0 -0.76355297178E+02 -0.10554046391E+03  0.31190062668E+02  0.13394678398E+03  0.00000000000E+00 0.  1.
</event>
<event>
12    1  0.1627564E-001  0.1890644E+03  0.7818608E-02  0.1159435E+00
         21   -1    0    0  503  502  0.00000000000E+00  0.00000000000E+00  0.38619059132E+03  0.38619059132E+03  0.00000000000E+00 0.  1.
         21   -1    0    0  501  503 -0.00000000000E+00 -0.00000000000E+00 -0.36872969393E+03  0.36872969393E+03  0.00000000000E+00 0. -1.
          6    2    1    2  501    0  0.63001759369E+02 -0.48577008830E+02 -0.31810164886E+03  0.36976115349E+03  0.17089676460E+03 0.  0.
         24    2    3    3    0    0  0.64170731152E+02 -0.85382504921E+02 -0.16616731782E+03  0.21335737481E+03  0.80633349112E+02 0.  0.
         -6    2    1    2    0  502 -0.63001759369E+02  0.48577008830E+02  0.33556254625E+03  0.38515913176E+03  0.17151206038E+03 0.  0.
        -24    2    5    5    0    0 -0.30039171645E+02  0.62866482144E+02  0.95235583397E+02  0.14211621309E+03  0.79200096393E+02 0.  0.
          5    1    3    3  501    0 -0.11689717834E+01  0.36805496091E+02 -0.15193433104E+03  0.15640377869E+03  0.47000000000E+01 0. -1.
        -11    1    4    4    0    0  0.50661634173E+02 -0.57978949132E+02 -0.16579707601E+03  0.18280270822E+03  0.00000000000E+00 0.  1.
         12    1    4    4    0    0  0.13509096980E+02 -0.27403555789E+02 -0.37024181054E+00  0.30554666584E+02  0.00000000000E+00 0. -1.
         -5    1    5    5    0  502 -0.32962587724E+02 -0.14289473314E+02  0.24032696286E+03  0.24304291866E+03  0.47000000000E+01 0.  1.
         11    1    6    6    0    0 -0.22102809234E+02 -0.13465579356E+02  0.10881696761E+02  0.28076098871E+02  0.00000000000E+00 0. -1.
        -12    1    6    6    0    0 -0.79363624105E+01  0.76332061499E+02  0.84353886636E+02  0.11404011422E+03  0.00000000000E+00 0.  1.
</event>
<event>
12    1  0.1627564E-001  0.2184461E+03  0.7818608E-02  0.1135305E+00
         21   -1    0    0  501  502  0.00000000000E+00  0.00000000000E+00  0.47622952912E+03  0.47622952912E+03  0.00000000000E+00 0. -1.
         21   -1    0    0  502  503 -0.00000000000E+00 -0.00000000000E+00 -0.11335984655E+03  0.11335984655E+03  0.00000000000E+00 0. -1.
         -6    2    1    2    0  503  0.53706073604E+02  0.12373261022E+03  0.79135701260E+02  0.23233843389E+03  0.17182720237E+03 0.  0.
        -24    2    3    3    0    0  0.19454866455E+02  0.69131083689E+02 -0.26836562023E+02  0.10821477588E+03  0.76371710059E+02 0.  0.
          6    2    1    2  501    0 -0.53706073604E+02 -0.12373261022E+03  0.28373398131E+03  0.35725094178E+03  0.17008574919E+03 0.  0.
         24    2    5    5    0    0 -0.72627282401E+01 -0.14236830365E+03  0.24267601297E+03  0.29235009307E+03  0.79091393606E+02 0.  0.
          5    1    5    5  501    0 -0.46443345364E+02  0.18635693433E+02  0.41057968346E+02  0.64900848707E+02  0.47000000000E+01 0. -1.
        -11    1    6    6    0    0  0.15937431069E+02 -0.74297882585E+00  0.95586774617E+01  0.18598979580E+02  0.00000000000E+00 0.  1.
         12    1    6    6    0    0 -0.23200159309E+02 -0.14162532483E+03  0.23311733551E+03  0.27375111349E+03  0.00000000000E+00 0. -1.
         -5    1    3    3    0  503  0.34251207149E+02  0.54601526532E+02  0.10597226328E+03  0.12412365800E+03  0.47000000000E+01 0.  1.
         11    1    4    4    0    0  0.32356185804E+01  0.72734775796E+02  0.42883584376E+01  0.72932892824E+02  0.00000000000E+00 0. -1.
        -12    1    4    4    0    0  0.16219247875E+02 -0.36036921068E+01 -0.31124920461E+02  0.35281883058E+02  0.00000000000E+00 0.  1.
</event>
<event>
12    1  0.1627564E-001  0.2766837E+03  0.7818608E-02  0.1097940E+00
         21   -1    0    0  501  502  0.00000000000E+00  0.00000000000E+00  0.79664594783E+02  0.79664594783E+02  0.00000000000E+00 0.  1.
         21   -1    0    0  502  503 -0.00000000000E+00 -0.00000000000E+00 -0.10422289203E+04  0.10422289203E+04  0.00000000000E+00 0. -1.
         -6    2    1    2    0  503 -0.21465988378E+03  0.16014056404E+02 -0.65025185059E+03  0.70666919972E+03  0.17383490136E+03 0.  0.
        -24    2    3    3    0    0 -0.18445945572E+03  0.24290181484E+02 -0.64233576572E+03  0.67403004377E+03  0.84296857985E+02 0.  0.
          6    2    1    2  501    0  0.21465988378E+03 -0.16014056404E+02 -0.31231247491E+03  0.41522431534E+03  0.16892848890E+03 0.  0.
         24    2    5    5    0    0  0.78130668925E+02  0.33427598470E+02 -0.18658871170E+03  0.22309608113E+03  0.87947190497E+02 0.  0.
          5    1    5    5  501    0  0.13652921486E+03 -0.49441654874E+02 -0.12572376321E+03  0.19212823421E+03  0.47000000000E+01 0. -1.
        -11    1    6    6    0    0  0.75374919630E+02  0.52921271218E+02 -0.10732425238E+03  0.14142324634E+03  0.00000000000E+00 0.  1.
         12    1    6    6    0    0  0.27557492948E+01 -0.19493672748E+02 -0.79264459325E+02  0.81672834795E+02  0.00000000000E+00 0. -1.
         -5    1    3    3    0  503 -0.30200428057E+02 -0.82761250796E+01 -0.79160848701E+01  0.32639155945E+02  0.47000000000E+01 0.  1.
         13    1    4    4    0    0 -0.16973652500E+03  0.47040288544E+02 -0.57738944566E+03  0.60365706211E+03  0.00000000000E+00 0. -1.
        -14    1    4    4    0    0 -0.14722930727E+02 -0.22750107060E+02 -0.64946320053E+02  0.70372981669E+02  0.00000000000E+00 0.  1.
</event>
<event>
12    1  0.1627564E-001  0.1795735E+03  0.7818608E-02  0.1168736E+00
         21   -1    0    0  503  502  0.00000000000E+00  0.00000000000E+00  0.42462416747E+02  0.42462416747E+02  0.00000000000E+00 0. -1.
         21   -1    0    0  501  503 -0.00000000000E+00 -0.00000000000E+00 -0.75078838660E+03  0.75078838660E+03  0.00000000000E+00 0.  1.
          6    2    1    2  501    0 -0.50739076701E+02 -0.59959479188E+01 -0.36046194599E+03  0.40177154918E+03  0.16993280417E+03 0.  0.
         24    2    3    3    0    0 -0.39742191983E+02  0.60219955360E+02 -0.25335810618E+03  0.27528518699E+03  0.79910696160E+02 0.  0.
         -6    2    1    2    0  502  0.50739076701E+02  0.59959479188E+01 -0.34786402387E+03  0.39147925416E+03  0.17215174133E+03 0.  0.
        -24    2    5    5    0    0 -0.35350122911E+02  0.26586605270E+02 -0.19338766750E+03  0.21337714823E+03  0.78578232846E+02 0.  0.
          5    1    3    3  501    0 -0.10996884719E+02 -0.66215903279E+02 -0.10710383980E+03  0.12648636219E+03  0.47000000000E+01 0. -1.
        -11    1    4    4    0    0 -0.34289801402E+02  0.55454288983E+02 -0.25837575560E+03  0.26647513905E+03  0.00000000000E+00 0.  1.
         12    1    4    4    0    0 -0.54523905805E+01  0.47656663763E+01  0.50176494203E+01  0.88100479430E+01  0.00000000000E+00 0. -1.
         -5    1    5    5    0  502  0.86089199613E+02 -0.20590657351E+02 -0.15447635637E+03  0.17810210593E+03  0.47000000000E+01 0.  1.
         13    1    6    6    0    0  0.11766598055E+02 -0.11603968891E+02 -0.80777979026E+01  0.18394448694E+02  0.00000000000E+00 0. -1.
        -14    1    6    6    0    0 -0.47116720966E+02  0.38190574161E+02 -0.18530986960E+03  0.19498269954E+03  0.00000000000E+00 0.  1.
</event>
<event>
12    1  0.1627564E-001  0.1974859E+03  0.7818608E-02  0.1153863E+00
         21   -1    0    0  503  502  0.00000000000E+00  0.00000000000E+00  0.24585439699E+03  0.24585439699E+03  0.00000000000E+00 0.  1.
         21   -1    0    0  501  503 -0.00000000000E+00 -0.00000000000E+00 -0.17187043363E+03  0.17187043363E+03  0.00000000000E+00 0.  1.
          6    2    1    2  501    0 -0.66873574834E+02  0.39992227431E+02 -0.35726020539E+02  0.19181121748E+03  0.17159178693E+03 0.  0.
         24    2    3    3    0    0 -0.79705203299E+02  0.83975010753E+02 -0.17022439265E+02  0.14210156178E+03  0.80612459069E+02 0.  0.
         -6    2    1    2    0  502  0.66873574834E+02 -0.39992227431E+02  0.10970998390E+03  0.22591361313E+03  0.18146411977E+03 0.  0.
        -24    2    5    5    0    0  0.86653507968E+01  0.36546144010E+02  0.14573321627E+02  0.90564456663E+02  0.81109988047E+02 0.  0.
          5    1    3    3  501    0  0.12831628465E+02 -0.43982783322E+02 -0.18703581274E+02  0.49709655705E+02  0.47000000000E+01 0. -1.
        -13    1    4    4    0    0 -0.50032865702E+02  0.96514654315E+02 -0.15899160615E+02  0.10986878290E+03  0.00000000000E+00 0.  1.
         14    1    4    4    0    0 -0.29672337596E+02 -0.12539643563E+02 -0.11232786498E+01  0.32232778876E+02  0.00000000000E+00 0. -1.
         -5    1    5    5    0  502  0.58208224037E+02 -0.76538371441E+02  0.95136662275E+02  0.13534915647E+03  0.47000000000E+01 0.  1.
         11    1    6    6    0    0 -0.20512955280E+02  0.48879959204E+02 -0.51321558691E+01  0.53257588849E+02  0.00000000000E+00 0. -1.
        -12    1    6    6    0    0  0.29178306077E+02 -0.12333815194E+02  0.19705477496E+02  0.37306867814E+02  0.00000000000E+00 0.  1.
</event>
<event>
12    1  0.1627564E-001  0.2484036E+03  0.7818608E-02  0.1114627E+00
         21   -1    0    0  501  502  0.00000000000E+00  0.00000000000E+00  0.72875806499E+02  0.72875806499E+02  0.00000000000E+00 0. -1.
         21   -1    0    0  502  503 -0.00000000000E+00 -0.00000000000E+00 -0.84968455440E+03  0.84968455440E+03  0.00000000000E+00 0. -1.
         -6    2    1    2    0  503 -0.94211864380E+02  0.14826103164E+03 -0.33800859749E+03  0.41832834967E+03  0.17289183690E+03 0.  0.
        -24    2    3    3    0    0 -0.11442164707E+03  0.16269567998E+03 -0.33341669854E+03  0.39263846986E+03  0.58618047951E+02 0.  0.
          6    2    1    2  501    0  0.94211864380E+02 -0.14826103164E+03 -0.43880015041E+03  0.50423201123E+03  0.17563353966E+03 0.  0.
         24    2    5    5    0    0  0.16509378815E+02 -0.76704121408E+01 -0.12543197101E+03  0.15206002992E+03  0.84009990700E+02 0.  0.
          5    1    5    5  501    0  0.77702485565E+02 -0.14059061950E+03 -0.31336817940E+03  0.35217198131E+03  0.47000000000E+01 0. -1.
        -13    1    6    6    0    0  0.13446070875E+02 -0.23603698492E+02 -0.16454298986E+01  0.27214680671E+02  0.00000000000E+00 0.  1.
         14    1    6    6    0    0  0.30633079400E+01  0.15933286351E+02 -0.12378654111E+03  0.12484534925E+03  0.00000000000E+00 0. -1.
         -5    1    3    3    0  503  0.20209782688E+02 -0.14434648333E+02 -0.45918989451E+01  0.25689879811E+02  0.47000000000E+01 0.  1.
         13    1    4    4    0    0 -0.17374251479E+02  0.34283316094E+02 -0.11546690080E+03  0.12169558561E+03  0.00000000000E+00 0. -1.
        -14    1    4    4    0    0 -0.97047395588E+02  0.12841236388E+03 -0.21794979774E+03  0.27094288424E+03  0.00000000000E+00 0.  1.
</event>
<event>
12    1  0.1627564E-001  0.2173805E+03  0.7818608E-02  0.1136194E+00
         21   -1    0    0  503  502  0.00000000000E+00  0.00000000000E+00  0.23519143464E+03  0.23519143464E+03  0.00000000000E+00 0. -1.
         21   -1    0    0  501  503 -0.00000000000E+00 -0.00000000000E+00 -0.33457189730E+03  0.33457189730E+03  0.00000000000E+00 0.  1.
          6    2    1    2  501    0 -0.12372729591E+03  0.45258038849E+02 -0.23074018713E+03  0.31577579567E+03  0.17063582666E+03 0.  0.
         24    2    3    3    0    0 -0.47970518186E+02  0.85293268120E+02 -0.10821712359E+03  0.16619003414E+03  0.79574301170E+02 0.  0.
         -6    2    1    2    0  502  0.12372729591E+03 -0.45258038849E+02  0.13135972447E+03  0.25398753628E+03  0.17290910196E+03 0.  0.
        -24    2    5    5    0    0  0.19865757892E+02 -0.44919010985E+02  0.11518942359E+03  0.14876917928E+03  0.80319982022E+02 0.  0.
          5    1    3    3  501    0 -0.75756777725E+02 -0.40035229271E+02 -0.12252306353E+03  0.14958576153E+03  0.47000000000E+01 0. -1.
        -13    1    4    4    0    0  0.20640525174E+02  0.35635072658E+02 -0.40390565449E+02  0.57682644358E+02  0.00000000000E+00 0.  1.
         14    1    4    4    0    0 -0.68611043360E+02  0.49658195462E+02 -0.67826558145E+02  0.10850738978E+03  0.00000000000E+00 0. -1.
         -5    1    5    5    0  502  0.10386153802E+03 -0.33902786364E+00  0.16170300880E+02  0.10521835700E+03  0.47000000000E+01 0.  1.
         11    1    6    6    0    0  0.10098747084E+02  0.57592887947E+01  0.91054973384E+02  0.91794129867E+02  0.00000000000E+00 0. -1.
        -12    1    6    6    0    0  0.97670108076E+01 -0.50678299780E+02  0.24134450204E+02  0.56975049411E+02  0.00000000000E+00 0.  1.
</event>
<event>
12    1  0.1627564E-001  0.1925987E+03  0.7818608E-02  0.1156547E+00
         21   -1    0    0  501  502  0.00000000000E+00  0.00000000000E+00  0.10595712450E+04  0.10595712450E+04  0.00000000000E+00 0. -1.
         21   -1    0    0  502  503 -0.00000000000E+00 -0.00000000000E+00 -0.85376643497E+02  0.85376643497E+02  0.00000000000E+00 0. -1.
         -6    2    1    2    0  503  0.80359672006E+02 -0.27017087046E+02  0.46889107384E+02  0.19822425805E+03  0.17293544521E+03 0.  0.
        -24    2    3    3    0    0  0.53603164346E+02  0.48110266120E+02  0.49917637024E+02  0.11827870228E+03  0.79436666547E+02 0.  0.
          6    2    1    2  501    0 -0.80359672006E+02  0.27017087046E+02  0.92730549410E+03  0.94672363043E+03  0.17088754533E+03 0.  0.
         24    2    5    5    0    0 -0.76607809134E+02  0.16516949390E+01  0.90714658373E+03  0.91376985585E+03  0.78669819938E+02 0.  0.
          5    1    5    5  501    0 -0.37518628720E+01  0.25365392107E+02  0.20158910369E+02  0.32953774579E+02  0.47000000000E+01 0. -1.
        -13    1    6    6    0    0  0.15614207825E+02 -0.71374523051E+01  0.14678035346E+03  0.14778098279E+03  0.00000000000E+00 0.  1.
         14    1    6    6    0    0 -0.92222016959E+02  0.87891472441E+01  0.76036623027E+03  0.76598887306E+03  0.00000000000E+00 0. -1.
         -5    1    3    3    0  503  0.26756507661E+02 -0.75127353166E+02 -0.30285296398E+01  0.79945555772E+02  0.47000000000E+01 0.  1.
         11    1    4    4    0    0  0.61054482260E+02  0.29923091967E+01  0.33402891212E+02  0.69658860597E+02  0.00000000000E+00 0. -1.
        -12    1    4    4    0    0 -0.74513179146E+01  0.45117956924E+02  0.16514745812E+02  0.48619841679E+02  0.00000000000E+00 0.  1.
</event>
<event>
12    1  0.1627564E-001  0.1913222E+03  0.7818608E-02  0.1157592E+00
         21   -1    0    0  501  502  0.00000000000E+00  0.00000000000E+00  0.46052887568E+03  0.46052887568E+03  0.00000000000E+00 0.  1.
         21   -1    0    0  502  503 -0.00000000000E+00 -0.00000000000E+00 -0.80019973438E+02  0.80019973438E+02  0.00000000000E+00 0.  1.
         -6    2    1    2    0  503 -0.79002200888E+02  0.18587546211E+02  0.15752322588E+03  0.24673464157E+03  0.17169033765E+03 0.  0.
        -24    2    3    3    0    0  0.14870206975E+02 -0.27115375048E+02  0.53417377206E+02  0.99218867172E+02  0.77682693027E+02 0.  0.
          6    2    1    2  501    0  0.79002200888E+02 -0.18587546211E+02  0.22298567637E+03  0.29381420755E+03  0.17325510691E+03 0.  0.
         24    2    5    5    0    0  0.67627209145E+02 -0.70205693857E+02  0.10552470524E+03  0.16492280620E+03  0.81004874677E+02 0.  0.
          5    1    5    5  501    0  0.11374991743E+02  0.51618147646E+02  0.11746097113E+03  0.12889140135E+03  0.47000000000E+01 0. -1.
        -13    1    6    6    0    0  0.64916632555E+02 -0.29342706938E+02  0.10117477987E+03  0.12373964488E+03  0.00000000000E+00 0.  1.
         14    1    6    6    0    0  0.27105765906E+01 -0.40862986920E+02  0.43499253677E+01  0.41183161318E+02  0.00000000000E+00 0. -1.
         -5    1    3    3    0  503 -0.93872407864E+02  0.45702921259E+02  0.10410584867E+03  0.14751577440E+03  0.47000000000E+01 0.  1.
         13    1    4    4    0    0 -0.26081012957E+01  0.20770485784E+02 -0.51665913350E+01  0.21561747102E+02  0.00000000000E+00 0. -1.
        -14    1    4    4    0    0  0.17478308271E+02 -0.47885860832E+02  0.58583968541E+02  0.77657120070E+02  0.00000000000E+00 0.  1.
</event>
<event>
12    1  0.1627564E-001  0.1979540E+03  0.7818608E-02  0.1151811E+00
         21   -1    0    0  501  502  0.00000000000E+00  0.00000000000E+00  0.68236321715E+02  0.68236321715E+02  0.00000000000E+00 0. -1.
         21   -1    0    0  502  503 -0.00000000000E+00 -0.00000000000E+00 -0.11318532951E+04  0.11318532951E+04  0.00000000000E+00 0. -1.
         -6    2    1    2    0  503 -0.44389779286E+02  0.87070988179E+02 -0.11001041279E+03  0.22646868554E+03  0.17214518617E+03 0.  0.
        -24    2    3    3    0    0  0.11583689839E+02 -0.78853136917E+01 -0.18097954244E+02  0.82873008214E+02  0.79649478971E+02 0.  0.
          6    2    1    2  501    0  0.44389779286E+02 -0.87070988179E+02 -0.95360656054E+03  0.97362093122E+03  0.17035385502E+03 0.  0.
         24    2    5    5    0    0  0.93627755918E+02 -0.49732561743E+02 -0.58572568224E+03  0.60055663776E+03  0.79713336124E+02 0.  0.
          5    1    5    5  501    0 -0.49237976631E+02 -0.37338426436E+02 -0.36788087831E+03  0.37306429346E+03  0.47000000000E+01 0. -1.
        -11    1    6    6    0    0  0.29548378490E+02  0.68564011924E+00 -0.45798385139E+02  0.54507511915E+02  0.00000000000E+00 0.  1.
         12    1    6    6    0    0  0.64079377427E+02 -0.50418201862E+02 -0.53992729710E+03  0.54604912585E+03  0.00000000000E+00 0. -1.
         -5    1    3    3    0  503 -0.55973469125E+02  0.94956301870E+02 -0.91912458551E+02  0.14359567733E+03  0.47000000000E+01 0.  1.
         11    1    4    4    0    0 -0.32285230578E+02 -0.76851594930E+01  0.45578757036E+01  0.33498836112E+02  0.00000000000E+00 0. -1.
        -12    1    4    4    0    0  0.43868920417E+02 -0.20015419869E+00 -0.22655829947E+02  0.49374172103E+02  0.00000000000E+00 0.  1.
</event>
<event>
12    1  0.1627564E-001  0.3634693E+03  0.7818608E-02  0.1057345E+00
         21   -1    0    0  501  502  0.00000000000E+00  0.00000000000E+00  0.85824468285E+02  0.85824468285E+02  0.00000000000E+00 0.  1.
         21   -1    0    0  502  503 -0.00000000000E+00 -0.00000000000E+00 -0.15614699811E+04  0.15614699811E+04  0.00000000000E+00 0.  1.
         -6    2    1    2    0  503 -0.36063595492E+02 -0.31868642967E+03 -0.84607151828E+03  0.92033271982E+03  0.16826668640E+03 0.  0.
        -24    2    3    3    0    0 -0.34412219657E+02 -0.11354984707E+03 -0.48009957646E+03  0.50075996480E+03  0.78658568439E+02 0.  0.
          6    2    1    2  501    0  0.36063595492E+02  0.31868642967E+03 -0.62957399457E+03  0.72696172960E+03  0.17102139716E+03 0.  0.
         24    2    5    5    0    0 -0.15063478806E+02  0.21550228903E+03 -0.30594176598E+03  0.38342009604E+03  0.82112489343E+02 0.  0.
          5    1    5    5  501    0  0.51127074297E+02  0.10318414065E+03 -0.32363222859E+03  0.34354163356E+03  0.47000000000E+01 0. -1.
        -13    1    6    6    0    0 -0.38959677645E+02  0.14493715646E+03 -0.24432771603E+03  0.28674146653E+03  0.00000000000E+00 0.  1.
         14    1    6    6    0    0  0.23896198839E+02  0.70565132565E+02 -0.61614049943E+02  0.96678629507E+02  0.00000000000E+00 0. -1.
         -5    1    3    3    0  503 -0.16513758350E+01 -0.20513658260E+03 -0.36597194181E+03  0.41957275502E+03  0.47000000000E+01 0.  1.
         11    1    4    4    0    0  0.23743338800E+02 -0.15509671891E+02 -0.97132289146E+02  0.10118783353E+03  0.00000000000E+00 0. -1.
        -12    1    4    4    0    0 -0.58155558457E+02 -0.98040175180E+02 -0.38296728732E+03  0.39957213127E+03  0.00000000000E+00 0.  1.
</event>
<event>
12    1  0.1627564E-001  0.2067541E+03  0.7818608E-02  0.1145178E+00
         21   -1    0    0  501  502  0.00000000000E+00  0.00000000000E+00  0.38510723733E+02  0.38510723733E+02  0.00000000000E+00 0.  1.
         21   -1    0    0  502  503 -0.00000000000E+00 -0.00000000000E+00 -0.14972295013E+04  0.14972295013E+04  0.00000000000E+00 0.  1.
         -6    2    1    2    0  503  0.66037659305E+02 -0.91500445709E+02 -0.11265613775E+04  0.11444911971E+04  0.16729094070E+03 0.  0.
        -24    2    3    3    0    0  0.49114939712E+01 -0.99820856922E+02 -0.55221295284E+03  0.56682014858E+03  0.79734617967E+02 0.  0.
          6    2    1    2  501    0 -0.66037659305E+02  0.91500445709E+02 -0.33215740006E+03  0.39124902797E+03  0.17324537357E+03 0.  0.
         24    2    5    5    0    0 -0.36224263137E+02  0.12470709521E+03 -0.29795854803E+03  0.33482942462E+03  0.80420087113E+02 0.  0.
          5    1    5    5  501    0 -0.29813396168E+02 -0.33206649503E+02 -0.34198852023E+02  0.56419603348E+02  0.47000000000E+01 0. -1.
        -11    1    6    6    0    0 -0.62091385822E+02  0.91555435217E+02 -0.21121394150E+03  0.23843042380E+03  0.00000000000E+00 0.  1.
         12    1    6    6    0    0  0.25867122685E+02  0.33151659995E+02 -0.86744606534E+02  0.96399000820E+02  0.00000000000E+00 0. -1.
         -5    1    3    3    0  503  0.61126165334E+02  0.83204112128E+01 -0.57434842467E+03  0.57767104848E+03  0.47000000000E+01 0.  1.
         13    1    4    4    0    0 -0.26237947660E+02 -0.44354836545E+01 -0.14539153030E+03  0.14780663211E+03  0.00000000000E+00 0. -1.
        -14    1    4    4    0    0  0.31149441631E+02 -0.95385373267E+02 -0.40682142254E+03  0.41901351647E+03  0.00000000000E+00 0.  1.
</event>
<event>
12    1  0.1627564E-001  0.2809089E+03  0.7818608E-02  0.1096184E+00
         21   -1    0    0  503  502  0.00000000000E+00  0.00000000000E+00  0.44336327155E+03  0.44336327155E+03  0.00000000000E+00 0.  1.
         21   -1    0    0  501  503 -0.00000000000E+00 -0.00000000000E+00 -0.18866060081E+03  0.18866060081E+03  0.00000000000E+00 0. -1.
          6    2    1    2  501    0 -0.19760593801E+03 -0.80978558408E+02  0.36140693953E+02  0.27610374146E+03  0.17123519681E+03 0.  0.
         24    2    3    3    0    0 -0.18823468098E+03 -0.11735429234E+03  0.32157390309E+02  0.23803838732E+03  0.80148930302E+02 0.  0.
         -6    2    1    2    0  502  0.19760593801E+03  0.80978558408E+02  0.21856197678E+03  0.35592013090E+03  0.18249429642E+03 0.  0.
        -24    2    5    5    0    0  0.83214774832E+02  0.70042014478E+02  0.18921379179E+03  0.23722576638E+03  0.92971085225E+02 0.  0.
          5    1    3    3  501    0 -0.93712570298E+01  0.36375733936E+02  0.39833036440E+01  0.38065354138E+02  0.47000000000E+01 0. -1.
        -13    1    4    4    0    0 -0.34819308327E+02  0.34763255489E+01  0.24286469073E+02  0.42594619985E+02  0.00000000000E+00 0.  1.
         14    1    4    4    0    0 -0.15341537266E+03 -0.12083061789E+03  0.78709212359E+01  0.19544376733E+03  0.00000000000E+00 0. -1.
         -5    1    5    5    0  502  0.11439116318E+03  0.10936543930E+02  0.29348184987E+02  0.11869436452E+03  0.47000000000E+01 0.  1.
         13    1    6    6    0    0  0.90907222560E+02  0.86060375539E+02  0.16213568106E+03  0.20483771729E+03  0.00000000000E+00 0. -1.
        -14    1    6    6    0    0 -0.76924477276E+01 -0.16018361061E+02  0.27078110737E+02  0.32388049095E+02  0.00000000000E+00 0.  1.
</event>
<event>
12    1  0.1627564E-001  0.2075744E+03  0.7818608E-02  0.1143641E+00
         21   -1    0    0  503  502  0.00000000000E+00  0.00000000000E+00  0.56768428665E+02  0.56768428665E+02  0.00000000000E+00 0. -1.
         21   -1    0    0  501  503 -0.00000000000E+00 -0.00000000000E+00 -0.11403663681E+04  0.11403663681E+04  0.00000000000E+00 0.  1.
          6    2    1    2  501    0 -0.11458659160E+03  0.78502076474E+00 -0.88849542136E+03  0.91226265533E+03  0.17224498628E+03 0.  0.
         24    2    3    3    0    0 -0.14075777796E+03  0.28713208231E+02 -0.78460687204E+03  0.80144823691E+03  0.77936720489E+02 0.  0.
         -6    2    1    2    0  502  0.11458659160E+03 -0.78502076474E+00 -0.19510251804E+03  0.28487214140E+03  0.17307929157E+03 0.  0.
        -24    2    5    5    0    0  0.59480740773E+02  0.60030396933E+02 -0.70905343147E+02  0.13593524847E+03  0.79430579821E+02 0.  0.
          5    1    3    3  501    0  0.26171186365E+02 -0.27928187467E+02 -0.10388854932E+03  0.11081441842E+03  0.47000000000E+01 0. -1.
        -11    1    4    4    0    0 -0.48299885915E+02  0.39541373491E+02 -0.44333820434E+03  0.44771102581E+03  0.00000000000E+00 0.  1.
         12    1    4    4    0    0 -0.92457892048E+02 -0.10828165260E+02 -0.34126866770E+03  0.35373721110E+03  0.00000000000E+00 0. -1.
         -5    1    5    5    0  502  0.55105850825E+02 -0.60815417698E+02 -0.12419717489E+03  0.14893689293E+03  0.47000000000E+01 0.  1.
         13    1    6    6    0    0  0.50058300747E+02 -0.45513200522E+01 -0.24970375636E+02  0.56125463448E+02  0.00000000000E+00 0. -1.
        -14    1    6    6    0    0  0.94224400267E+01  0.64581716985E+02 -0.45934967511E+02  0.79809785021E+02  0.00000000000E+00 0.  1.
</event>
<event>
12    1  0.1627564E-001  0.1754211E+03  0.7818608E-02  0.1172970E+00
         21   -1    0    0  501  502  0.00000000000E+00  0.00000000000E+00  0.90176866629E+02  0.90176866629E+02  0.00000000000E+00 0.  1.
         21   -1    0    0  502  503 -0.00000000000E+00 -0.00000000000E+00 -0.53461030325E+03  0.53461030325E+03  0.00000000000E+00 0.  1.
         -6    2    1    2    0  503  0.26980608857E+02  0.42072404051E+01 -0.41359096249E+03  0.44925500492E+03  0.17328277776E+03 0.  0.
        -24    2    3    3    0    0  0.11105299970E+02  0.52917256885E+02 -0.36412543538E+03  0.37788540698E+03  0.85360906484E+02 0.  0.
          6    2    1    2  501    0 -0.26980608857E+02 -0.42072404051E+01 -0.30842474138E+02  0.17553216496E+03  0.17063009289E+03 0.  0.
         24    2    5    5    0    0  0.48125259073E+02 -0.14315773797E+02 -0.30836457655E+02  0.99603488688E+02  0.80305578249E+02 0.  0.
          5    1    5    5  501    0 -0.75105867930E+02  0.10108533392E+02 -0.60164822972E-02  0.75928676276E+02  0.47000000000E+01 0. -1.
        -13    1    6    6    0    0 -0.10711296259E+02 -0.47011577792E+01  0.18723313117E+02  0.22077028924E+02  0.00000000000E+00 0.  1.
         14    1    6    6    0    0  0.58836555332E+02 -0.96146160175E+01 -0.49559770773E+02  0.77526459764E+02  0.00000000000E+00 0. -1.
         -5    1    3    3    0  503  0.15875308887E+02 -0.48710016480E+02 -0.49465527110E+02  0.71369597939E+02  0.47000000000E+01 0.  1.
         11    1    4    4    0    0 -0.31876227051E+02  0.47537681726E+02 -0.18857042793E+03  0.19706529711E+03  0.00000000000E+00 0. -1.
        -12    1    4    4    0    0  0.42981527021E+02  0.53795751596E+01 -0.17555500745E+03  0.18082010987E+03  0.00000000000E+00 0.  1.
</event>
<event>
12    1  0.1627564E-001  0.2494185E+03  0.7818608E-02  0.1114408E+00
         21   -1    0    0  501  502  0.00000000000E+00  0.00000000000E+00  0.28786497773E+03  0.28786497773E+03  0.00000000000E+00 0. -1.
         21   -1    0    0  502  503 -0.00000000000E+00 -0.00000000000E+00 -0.22668084301E+03  0.22668084301E+03  0.00000000000E+00 0. -1.
         -6    2    1    2    0  503  0.12558576714E+03  0.11986265461E+03  0.95999923539E+02  0.26725561922E+03  0.17908305281E+03 0.  0.
        -24    2    3    3    0    0  0.15797602654E+03  0.95160789401E+02  0.10309674206E+03  0.22564112797E+03  0.79202143963E+02 0.  0.
          6    2    1    2  501    0 -0.12558576714E+03 -0.11986265461E+03 -0.34815788816E+02  0.24729020153E+03  0.17263100458E+03 0.  0.
         24    2    5    5    0    0 -0.15525963608E+03 -0.11570892428E+03 -0.13221143925E+02  0.21005835143E+03  0.80346764745E+02 0.  0.
          5    1    5    5  501    0  0.29673868941E+02 -0.41537303295E+01 -0.21594644891E+02  0.37231850096E+02  0.47000000000E+01 0. -1.
        -13    1    6    6    0    0 -0.80957178802E+02 -0.36290319053E+02  0.29081191357E+02  0.93363631824E+02  0.00000000000E+00 0.  1.
         14    1    6    6    0    0 -0.74302457282E+02 -0.79418605226E+02 -0.42302335282E+02  0.11669471961E+03  0.00000000000E+00 0. -1.
         -5    1    3    3    0  503 -0.32390259396E+02  0.24701865209E+02 -0.70968185203E+01  0.41614491246E+02  0.47000000000E+01 0.  1.
         13    1    4    4    0    0  0.13004999400E+03  0.10049642078E+03  0.61982710907E+02  0.17565417154E+03  0.00000000000E+00 0. -1.
        -14    1    4    4    0    0  0.27926032538E+02 -0.53356313757E+01  0.41114031153E+02  0.49986956430E+02  0.00000000000E+00 0.  1.
</event>
<event>
12    1  0.1627564E-001  0.2111566E+03  0.7818608E-02  0.1140971E+00
         21   -1    0    0  501  502  0.00000000000E+00  0.00000000000E+00  0.24130032157E+03  0.24130032157E+03  0.00000000000E+00 0.  1.
         21   -1    0    0  502  503 -0.00000000000E+00 -0.00000000000E+00 -0.31257344845E+03  0.31257344845E+03  0.00000000000E+00 0.  1.
         -6    2    1    2    0  503  0.54790093414E+02  0.10996462801E+03 -0.21376397735E+03  0.30046989434E+03  0.17173510312E+03 0.  0.
        -24    2    3    3    0    0  0.59774080098E+02  0.48175252236E+02 -0.35084030488E+02  0.11128379418E+03  0.72521707600E+02 0.  0.
          6    2    1    2  501    0 -0.54790093414E+02 -0.10996462801E+03  0.14249085047E+03  0.25340387567E+03  0.16975190128E+03 0.  0.
         24    2    5    5    0    0 -0.75315821960E+02 -0.85158305575E+02  0.16415807605E+03  0.21431144892E+03  0.77827457623E+02 0.  0.
          5    1    5    5  501    0  0.20525728546E+02 -0.24806322439E+02 -0.21667225580E+02  0.39092426755E+02  0.47000000000E+01 0. -1.
        -13    1    6    6    0    0 -0.65071077288E+02 -0.53182469206E+02  0.55817650176E+02  0.10088721525E+03  0.00000000000E+00 0.  1.
         14    1    6    6    0    0 -0.10244744673E+02 -0.31975836369E+02  0.10834042587E+03  0.11342423367E+03  0.00000000000E+00 0. -1.
         -5    1    3    3    0  503 -0.49839866837E+01  0.61789375778E+02 -0.17867994686E+03  0.18918610016E+03  0.47000000000E+01 0.  1.
         11    1    4    4    0    0  0.22882829267E+02 -0.20099575711E+00 -0.44194583723E+02  0.49767715489E+02  0.00000000000E+00 0. -1.
        -12    1    4    4    0    0  0.36891250830E+02  0.48376247993E+02  0.91105532353E+01  0.61516078695E+02  0.00000000000E+00 0.  1.
</event>
<event>
12    1  0.1627564E-001  0.1954195E+03  0.7818608E-02  0.1153774E+00
         21   -1    0    0  503  502  0.00000000000E+00  0.00000000000E+00  0.93977332111E+03  0.93977332111E+03  0.00000000000E+00 0.  1.
         21   -1    0    0  501  503 -0.00000000000E+00 -0.00000000000E+00 -0.41190386746E+02  0.41190386746E+02  0.00000000000E+00 0.  1.
          6    2    1    2  501    0  0.97491588464E+01 -0.89639420691E+02  0.51201220258E+03  0.54803767295E+03  0.17337394133E+03 0.  0.
         24    2    3    3    0    0 -0.19168799443E+02  0.17444037137E+02  0.21018775171E+03  0.22644289003E+03  0.80160801973E+02 0.  0.
         -6    2    1    2    0  502 -0.97491588464E+01  0.89639420691E+02  0.38657073178E+03  0.43292603491E+03  0.17279395011E+03 0.  0.
        -24    2    5    5    0    0 -0.27524333958E+02  0.73019017086E+02  0.39187070340E+03  0.40758092956E+03  0.80437554274E+02 0.  0.
          5    1    3    3  501    0  0.28917958289E+02 -0.10708345783E+03  0.30182445088E+03  0.32159478292E+03  0.47000000000E+01 0. -1.
        -11    1    4    4    0    0 -0.31146701960E+02 -0.19409866974E+02  0.52448230085E+02  0.64013098800E+02  0.00000000000E+00 0.  1.
         12    1    4    4    0    0  0.11977902517E+02  0.36853904111E+02  0.15773952162E+03  0.16242979123E+03  0.00000000000E+00 0. -1.
         -5    1    5    5    0  502  0.17775175112E+02  0.16620403604E+02 -0.52999716216E+01  0.25345105354E+02  0.47000000000E+01 0.  1.
         11    1    6    6    0    0 -0.47094968104E+02  0.41078565802E+02  0.32481081135E+03  0.33076796665E+03  0.00000000000E+00 0. -1.
        -12    1    6    6    0    0  0.19570634146E+02  0.31940451284E+02  0.67059892050E+02  0.76812962909E+02  0.00000000000E+00 0.  1.
</event>
<event>
12    1  0.1627564E-001  0.3570443E+03  0.7818608E-02  0.1059981E+00
         21   -1    0    0  503  502  0.00000000000E+00  0.00000000000E+00  0.12761185610E+04  0.12761185610E+04  0.00000000000E+00 0.  1.
         21   -1    0    0  501  503 -0.00000000000E+00 -0.00000000000E+00 -0.15068488514E+03  0.15068488514E+03  0.00000000000E+00 0.  1.
          6    2    1    2  501    0 -0.63032122130E+02 -0.30358579949E+03  0.14719861697E+03  0.38619695233E+03  0.17704029790E+03 0.  0.
         24    2    3    3    0    0 -0.87091135811E+02 -0.17100310800E+03  0.33263967646E+02  0.20967443099E+03  0.77652730711E+02 0.  0.
         -6    2    1    2    0  502  0.63032122130E+02  0.30358579949E+03  0.97823505889E+03  0.10406064938E+04  0.17257073460E+03 0.  0.
        -24    2    5    5    0    0  0.77204603383E+02  0.30330212548E+03  0.81696167686E+03  0.87864312311E+03  0.81453214995E+02 0.  0.
          5    1    3    3  501    0  0.24059013681E+02 -0.13258269149E+03  0.11393464932E+03  0.17652252134E+03  0.47000000000E+01 0. -1.
        -11    1    4    4    0    0 -0.44535765317E+02 -0.58799604050E+02  0.49132306757E+02  0.88627373853E+02  0.00000000000E+00 0.  1.
         12    1    4    4    0    0 -0.42555370494E+02 -0.11220350395E+03 -0.15868339111E+02  0.12104705714E+03  0.00000000000E+00 0. -1.
         -5    1    5    5    0  502 -0.14172481253E+02  0.28367401508E+00  0.16127338203E+03  0.16196337069E+03  0.47000000000E+01 0.  1.
         11    1    6    6    0    0  0.90676046181E+02  0.20749966049E+03  0.58662039439E+03  0.62880978171E+03  0.00000000000E+00 0. -1.
        -12    1    6    6    0    0 -0.13471442798E+02  0.95802464990E+02  0.23034128247E+03  0.24983334141E+03  0.00000000000E+00 0.  1.
</event>
<event>
12    1  0.1627564E-001  0.1813000E+03  0.7818608E-02  0.1166914E+00
         21   -1    0    0  503  502  0.00000000000E+00  0.00000000000E+00  0.23143875650E+03  0.23143875650E+03  0.00000000000E+00 0.  1.
         21   -1    0    0  501  503 -0.00000000000E+00 -0.00000000000E+00 -0.18982466870E+03  0.18982466870E+03  0.00000000000E+00 0.  1.
          6    2    1    2  501    0 -0.30748050460E+01  0.55478505726E+02 -0.86121852970E+02  0.20071533496E+03  0.17257564459E+03 0.  0.
         24    2    3    3    0    0  0.53748481940E+02  0.74359052297E+01 -0.60961072758E+02  0.12202523223E+03  0.90717765141E+02 0.  0.
         -6    2    1    2    0  502  0.30748050460E+01 -0.55478505726E+02  0.12773594077E+03  0.22054809024E+03  0.17099026440E+03 0.  0.
        -24    2    5    5    0    0 -0.14300749270E+02  0.33351537287E+02  0.76823483603E+02  0.11659206720E+03  0.79843760138E+02 0.  0.
          5    1    3    3  501    0 -0.56823286986E+02  0.48042600496E+02 -0.25160780211E+02  0.78690102727E+02  0.47000000000E+01 0. -1.
        -11    1    4    4    0    0  0.25288909812E+02  0.48041649019E+02 -0.43104819370E+02  0.69322106524E+02  0.00000000000E+00 0.  1.
         12    1    4    4    0    0  0.28459572128E+02 -0.40605743790E+02 -0.17856253388E+02  0.52703125709E+02  0.00000000000E+00 0. -1.
         -5    1    5    5    0  502  0.17375554316E+02 -0.88830043013E+02  0.50912457168E+02  0.10395602303E+03  0.47000000000E+01 0.  1.
         13    1    6    6    0    0 -0.34528681788E+02  0.92278571211E+01  0.24435802034E+01  0.35823934699E+02  0.00000000000E+00 0. -1.
        -14    1    6    6    0    0  0.20227932519E+02  0.24123680166E+02  0.74379903400E+02  0.80768132506E+02  0.00000000000E+00 0.  1.
</event>
<event>
12    1  0.1627564E-001  0.2062729E+03  0.7818608E-02  0.1145052E+00
         21   -1    0    0  501  502  0.00000000000E+00  0.00000000000E+00  0.64080629678E+02  0.64080629678E+02  0.00000000000E+00 0. -1.
         21   -1    0    0  502  503 -0.00000000000E+00 -0.00000000000E+00 -0.69287688214E+03  0.69287688214E+03  0.00000000000E+00 0.  1.
         -6    2    1    2    0  503 -0.10757097981E+03 -0.31594843443E+02 -0.40335352167E+03  0.45303703742E+03  0.17314370911E+03 0.  0.
        -24    2    3    3    0    0 -0.14811708637E+02 -0.51932651297E+02 -0.27633820694E+03  0.29437737338E+03  0.85900211652E+02 0.  0.
          6    2    1    2  501    0  0.10757097981E+03  0.31594843443E+02 -0.22544273079E+03  0.30392047440E+03  0.17021598063E+03 0.  0.
         24    2    5    5    0    0  0.34096033039E+02  0.71532955670E+02 -0.16953999765E+03  0.20321880517E+03  0.79212175563E+02 0.  0.
          5    1    5    5  501    0  0.73474946773E+02 -0.39938112227E+02 -0.55902733144E+02  0.10070166922E+03  0.47000000000E+01 0. -1.
        -13    1    6    6    0    0  0.33830828642E+01  0.72305751985E+02 -0.76860617767E+02  0.10557992983E+03  0.00000000000E+00 0.  1.
         14    1    6    6    0    0  0.30712950175E+02 -0.77279631573E+00 -0.92679379883E+02  0.97638875342E+02  0.00000000000E+00 0. -1.
         -5    1    3    3    0  503 -0.92759271175E+02  0.20337807855E+02 -0.12701531474E+03  0.15865966404E+03  0.47000000000E+01 0.  1.
         11    1    4    4    0    0 -0.33587483401E+02  0.89891470150E+01 -0.66106234919E+02  0.74692423314E+02  0.00000000000E+00 0. -1.
        -12    1    4    4    0    0  0.18775774764E+02 -0.60921798312E+02 -0.21023197202E+03  0.21968495007E+03  0.00000000000E+00 0.  1.
</event>
<event>
12    1  0.1627564E-001  0.1782187E+03  0.7818608E-02  0.1169597E+00
         21   -1    0    0  503  502  0.00000000000E+00  0.00000000000E+00  0.46952357411E+03  0.46952357411E+03  0.00000000000E+00 0. -1.
         21   -1    0    0  501  503 -0.00000000000E+00 -0.00000000000E+00 -0.73670873727E+02  0.73670873727E+02  0.00000000000E+00 0. -1.
          6    2    1    2  501    0  0.13161685986E+02 -0.40805510202E+02  0.11955705152E+03  0.21440700226E+03  0.17273724095E+03 0.  0.
         24    2    3    3    0    0  0.17235870407E+02  0.12378938416E+02 -0.18937698703E+01  0.81675782991E+02  0.78848169401E+02 0.  0.
         -6    2    1    2    0  502 -0.13161685986E+02  0.40805510202E+02  0.27629564887E+03  0.32878744557E+03  0.17298433208E+03 0.  0.
        -24    2    5    5    0    0  0.47139477291E+01 -0.29449988306E+02  0.22087131978E+03  0.23741283419E+03  0.81799699391E+02 0.  0.
          5    1    3    3  501    0 -0.40741844210E+01 -0.53184448618E+02  0.12145082139E+03  0.13273121927E+03  0.47000000000E+01 0. -1.
        -13    1    4    4    0    0 -0.11622640950E+02 -0.14445248054E+02  0.27045132552E+02  0.32790092540E+02  0.00000000000E+00 0.  1.
         14    1    4    4    0    0  0.28858511357E+02  0.26824186470E+02 -0.28938902422E+02  0.48885690452E+02  0.00000000000E+00 0. -1.
         -5    1    5    5    0  502 -0.17875633715E+02  0.70255498508E+02  0.55424329083E+02  0.91374611384E+02  0.47000000000E+01 0.  1.
         13    1    6    6    0    0 -0.29357206614E+02 -0.15054968234E+02  0.35809758081E+02  0.48691235583E+02  0.00000000000E+00 0. -1.
        -14    1    6    6    0    0  0.34071154343E+02 -0.14395020072E+02  0.18506156170E+03  0.18872159861E+03  0.00000000000E+00 0.  1.
</event>
<event>
12    1  0.1627564E-001  0.1859684E+03  0.7818608E-02  0.1162169E+00
         21   -1    0    0  503  502  0.00000000000E+00  0.00000000000E+00  0.23680831801E+03  0.23680831801E+03  0.00000000000E+00 0.  1.
         21   -1    0    0  501  503 -0.00000000000E+00 -0.00000000000E+00 -0.15414450001E+03  0.15414450001E+03  0.00000000000E+00 0.  1.
          6    2    1    2  501    0  0.16689997297E+02  0.69049564134E+02  0.86343252182E+02  0.20503508459E+03  0.17186573364E+03 0.  0.
         24    2    3    3    0    0  0.47583401724E+02  0.10294996715E+03  0.69763031954E+02  0.15603882489E+03  0.81353293663E+02 0.  0.
         -6    2    1    2    0  502 -0.16689997297E+02 -0.69049564134E+02 -0.36794341795E+01  0.18591773343E+03  0.17177155484E+03 0.  0.
        -24    2    5    5    0    0 -0.92938603810E+01  0.24994661026E+02 -0.28273955360E+02  0.88316505982E+02  0.79304979394E+02 0.  0.
          5    1    3    3  501    0 -0.30893404427E+02 -0.33900403019E+02  0.16580220227E+02  0.48996259702E+02  0.47000000000E+01 0. -1.
        -13    1    4    4    0    0  0.45681481445E+01  0.81173699177E+02  0.70808695375E+02  0.10781423262E+03  0.00000000000E+00 0.  1.
         14    1    4    4    0    0  0.43015253580E+02  0.21776267977E+02 -0.10456634207E+01  0.48224592269E+02  0.00000000000E+00 0. -1.
         -5    1    5    5    0  502 -0.73961369156E+01 -0.94044225160E+02  0.24594521180E+02  0.97601227448E+02  0.47000000000E+01 0.  1.
         11    1    6    6    0    0 -0.43802939912E+02  0.11712635161E+02 -0.76677884764E+01  0.45985631968E+02  0.00000000000E+00 0. -1.
        -12    1    6    6    0    0  0.34509079531E+02  0.13282025865E+02 -0.20606166883E+02  0.42330874014E+02  0.00000000000E+00 0.  1.
</event>
<event>
12    1  0.1627564E-001  0.1762901E+03  0.7818608E-02  0.1171446E+00
         21   -1    0    0  501  502  0.00000000000E+00  0.00000000000E+00  0.47760237087E+03  0.47760237087E+03  0.00000000000E+00 0. -1.
         21   -1    0    0  502  503 -0.00000000000E+00 -0.00000000000E+00 -0.11387912572E+03  0.11387912572E+03  0.00000000000E+00 0. -1.
         -6    2    1    2    0  503  0.31288347080E+02  0.20637097272E+02 -0.11766533136E+02  0.17666733662E+03  0.17224414672E+03 0.  0.
        -24    2    3    3    0    0  0.11753634190E+02 -0.47121974779E+02  0.23044086124E+02  0.97884305029E+02  0.81802682365E+02 0.  0.
          6    2    1    2  501    0 -0.31288347080E+02 -0.20637097272E+02  0.37548977829E+03  0.41481415997E+03  0.17225958106E+03 0.  0.
         24    2    5    5    0    0  0.91633644590E+01  0.32565983171E+02  0.30727614921E+03  0.31919984134E+03  0.79532360277E+02 0.  0.
          5    1    5    5  501    0 -0.40451711539E+02 -0.53203080443E+02  0.68213629077E+02  0.95614318629E+02  0.47000000000E+01 0. -1.
        -13    1    6    6    0    0  0.39494563044E+02  0.76282922495E+01  0.92557493777E+02  0.10092027055E+03  0.00000000000E+00 0.  1.
         14    1    6    6    0    0 -0.30331198585E+02  0.24937690922E+02  0.21471865543E+03  0.21827957080E+03  0.00000000000E+00 0. -1.
         -5    1    3    3    0  503  0.19534712890E+02  0.67759072050E+02 -0.34810619261E+02  0.78783031587E+02  0.47000000000E+01 0.  1.
         13    1    4    4    0    0  0.41700309977E+02 -0.49888509330E+02  0.14474424890E+02  0.66612973145E+02  0.00000000000E+00 0. -1.
        -14    1    4    4    0    0 -0.29946675787E+02  0.27665345511E+01  0.85696612342E+01  0.31271331884E+02  0.00000000000E+00 0.  1.
</event>
<event>
12    1  0.1627564E-001  0.2386340E+03  0.7818608E-02  0.1120854E+00
         21   -1    0    0  503  502  0.00000000000E+00  0.00000000000E+00  0.11566321742E+04  0.11566321742E+04  0.00000000000E+00 0. -1.
         21   -1    0    0  501  503 -0.00000000000E+00 -0.00000000000E+00 -0.41021518280E+03  0.41021518280E+03  0.00000000000E+00 0.  1.
          6    2    1    2  501    0  0.14711854747E+03 -0.73925229025E+02 -0.36180110846E+03  0.43341232837E+03  0.17273505087E+03 0.  0.
         24    2    3    3    0    0  0.29206121710E+01 -0.38817987381E+02 -0.16016138412E+03  0.18300020527E+03  0.79511257354E+02 0.  0.
         -6    2    1    2    0  502 -0.14711854747E+03  0.73925229025E+02  0.11082180999E+04  0.11334350286E+04  0.17151909745E+03 0.  0.
        -24    2    5    5    0    0 -0.15304128326E+03  0.99713176209E+02  0.82138922654E+03  0.84534998982E+03  0.81067823019E+02 0.  0.
          5    1    3    3  501    0  0.14419793530E+03 -0.35107241644E+02 -0.20163972435E+03  0.25041212310E+03  0.47000000000E+01 0. -1.
        -13    1    4    4    0    0  0.14710859537E+02 -0.61297135672E+02 -0.11818828579E+03  0.13394856897E+03  0.00000000000E+00 0.  1.
         14    1    4    4    0    0 -0.11790247366E+02  0.22479148290E+02 -0.41973098322E+02  0.49051636298E+02  0.00000000000E+00 0. -1.
         -5    1    5    5    0  502  0.59227357817E+01 -0.25787947184E+02  0.28682887332E+03  0.28808503881E+03  0.47000000000E+01 0.  1.
         11    1    6    6    0    0 -0.61702897651E+01 -0.12828497533E+02  0.77315919919E+02  0.78615483828E+02  0.00000000000E+00 0. -1.
        -12    1    6    6    0    0 -0.14687099349E+03  0.11254167374E+03  0.74407330662E+03  0.76673450599E+03  0.00000000000E+00 0.  1.
</event>
<event>
12    1  0.1627564E-001  0.2992762E+03  0.7818608E-02  0.1085628E+00
         21   -1    0    0  503  502  0.00000000000E+00  0.00000000000E+00  0.95172064545E+03  0.95172064545E+03  0.00000000000E+00 0. -1.
         21   -1    0    0  501  503 -0.00000000000E+00 -0.00000000000E+00 -0.96552811612E+02  0.96552811612E+02  0.00000000000E+00 0.  1.
          6    2    1    2  501    0 -0.93574708760E+02  0.22615740950E+03  0.34328711031E+03  0.45542540788E+03  0.17222909757E+03 0.  0.
         24    2    3    3    0    0  0.13349203908E+02  0.63638156536E+02  0.13485068402E+03  0.17027095064E+03  0.81113953408E+02 0.  0.
         -6    2    1    2    0  502  0.93574708760E+02 -0.22615740950E+03  0.51188072353E+03  0.59284804918E+03  0.17188232691E+03 0.  0.
        -24    2    5    5    0    0  0.12377225302E+03 -0.21817617939E+03  0.48517859911E+03  0.55148761928E+03  0.76288303897E+02 0.  0.
          5    1    3    3  501    0 -0.10692391267E+03  0.16251925296E+03  0.20843642628E+03  0.28515445724E+03  0.47000000000E+01 0. -1.
        -13    1    4    4    0    0  0.82201417043E+01  0.54264581443E+01 -0.10024669635E+02  0.14053867045E+02  0.00000000000E+00 0.  1.
         14    1    4    4    0    0  0.51290622032E+01  0.58211698392E+02  0.14487535366E+03  0.15621708359E+03  0.00000000000E+00 0. -1.
         -5    1    5    5    0  502 -0.30197544255E+02 -0.79812301050E+01  0.26702124418E+02  0.41360429899E+02  0.47000000000E+01 0.  1.
         11    1    6    6    0    0  0.70857233580E+02 -0.10865856831E+03  0.32816853905E+03  0.35287678025E+03  0.00000000000E+00 0. -1.
        -12    1    6    6    0    0  0.52915019436E+02 -0.10951761108E+03  0.15701006006E+03  0.19861083903E+03  0.00000000000E+00 0.  1.
</event>
<event>
12    1  0.1627564E-001  0.1911863E+03  0.7818608E-02  0.1157447E+00
         21   -1    0    0  503  502  0.00000000000E+00  0.00000000000E+00  0.58350660512E+03  0.58350660512E+03  0.00000000000E+00 0.  1.
         21   -1    0    0  501  503 -0.00000000000E+00 -0.00000000000E+00 -0.16152988275E+03  0.16152988275E+03  0.00000000000E+00 0.  1.
          6    2    1    2  501    0 -0.75783046447E+02  0.31246736153E+02 -0.80541354960E+02  0.20745870389E+03  0.17272167007E+03 0.  0.
         24    2    3    3    0    0  0.16353257369E+00  0.24231154132E+02 -0.99209117618E+02  0.12879691763E+03  0.78479432961E+02 0.  0.
         -6    2    1    2    0  502  0.75783046447E+02 -0.31246736153E+02  0.50251807733E+03  0.53757778398E+03  0.17247036596E+03 0.  0.
        -24    2    5    5    0    0  0.56290560144E+02 -0.52604645834E+02  0.49487445402E+03  0.50730184790E+03  0.80737622669E+02 0.  0.
          5    1    3    3  501    0 -0.75946579020E+02  0.70155820217E+01  0.18667762657E+02  0.78661786266E+02  0.47000000000E+01 0. -1.
        -11    1    4    4    0    0 -0.35849585607E+02  0.25683806354E+02 -0.40322972271E+02  0.59756110899E+02  0.00000000000E+00 0.  1.
         12    1    4    4    0    0  0.36013118181E+02 -0.14526522224E+01 -0.58886145347E+02  0.69040806726E+02  0.00000000000E+00 0. -1.
         -5    1    5    5    0  502  0.19492486303E+02  0.21357909680E+02  0.76436233097E+01  0.30275936079E+02  0.47000000000E+01 0.  1.
         13    1    6    6    0    0  0.20835284890E+02 -0.46492417553E+02  0.11565270419E+03  0.12637722094E+03  0.00000000000E+00 0. -1.
        -14    1    6    6    0    0  0.35455275254E+02 -0.61122282801E+01  0.37922174983E+03  0.38092462695E+03  0.00000000000E+00 0.  1.
</event>
<event>
12    1  0.1627564E-001  0.1843570E+03  0.7818608E-02  0.1164512E+00
         21   -1    0    0  503  502  0.00000000000E+00  0.00000000000E+00  0.92941843846E+03  0.92941843846E+03  0.00000000000E+00 0.  1.
         21   -1    0    0  501  503 -0.00000000000E+00 -0.00000000000E+00 -0.36244619555E+02  0.36244619555E+02  0.00000000000E+00 0. -1.
          6    2    1    2  501    0 -0.52076574243E+02  0.19583354021E+02  0.50122442322E+03  0.53405375883E+03  0.17576125155E+03 0.  0.
         24    2    3    3    0    0 -0.29822132442E+02  0.66156978646E+02  0.44536512070E+03  0.45785195853E+03  0.77538505196E+02 0.  0.
         -6    2    1    2    0  502  0.52076574243E+02 -0.19583354021E+02  0.39194939569E+03  0.43160929919E+03  0.17194993756E+03 0.  0.
        -24    2    5    5    0    0  0.38108984407E+02 -0.79296166513E+02  0.19464508937E+03  0.22494098320E+03  0.70509278762E+02 0.  0.
          5    1    3    3  501    0 -0.22254441801E+02 -0.46573624625E+02  0.55859302521E+02  0.76201800298E+02  0.47000000000E+01 0. -1.
        -13    1    4    4    0    0 -0.31686839260E+02  0.55934225227E+00  0.24433601729E+03  0.24638274694E+03  0.00000000000E+00 0.  1.
         14    1    4    4    0    0  0.18647068183E+01  0.65597636393E+02  0.20102910341E+03  0.21146921158E+03  0.00000000000E+00 0. -1.
         -5    1    5    5    0  502  0.13967589836E+02  0.59712812492E+02  0.19730430632E+03  0.20666831599E+03  0.47000000000E+01 0.  1.
         13    1    6    6    0    0  0.22602987466E+02 -0.66394623507E+02  0.71507552760E+02  0.10016222429E+03  0.00000000000E+00 0. -1.
        -14    1    6    6    0    0  0.15505996941E+02 -0.12901543005E+02  0.12313753661E+03  0.12477875891E+03  0.00000000000E+00 0.  1.
</event>
<event>
12    1  0.1627564E-001  0.1822105E+03  0.7818608E-02  0.1168892E+00
         21   -1    0    0  503  502  0.00000000000E+00  0.00000000000E+00  0.22251053419E+03  0.22251053419E+03  0.00000000000E+00 0.  1.
         21   -1    0    0  501  503 -0.00000000000E+00 -0.00000000000E+00 -0.22515117714E+03  0.22515117714E+03  0.00000000000E+00 0. -1.
          6    2    1    2  501    0  0.43852586718E+01 -0.48668487787E+02 -0.13986325254E+03  0.21955926543E+03  0.16203916017E+03 0.  0.
         24    2    3    3    0    0 -0.20550598380E+02 -0.38322823607E+02 -0.13010868737E+02  0.89780811862E+02  0.77461897538E+02 0.  0.
         -6    2    1    2    0  502 -0.43852586718E+01  0.48668487787E+02  0.13722260959E+03  0.22810244590E+03  0.17553583407E+03 0.  0.
        -24    2    5    5    0    0  0.56037948142E+02  0.57878202624E+02  0.59311183192E+02  0.12896585763E+03  0.81389421992E+02 0.  0.
          5    1    3    3  501    0  0.24935857052E+02 -0.10345664180E+02 -0.12685238381E+03  0.12977845357E+03  0.47000000000E+01 0. -1.
        -11    1    4    4    0    0 -0.42497971314E+02 -0.50446121324E+01  0.97274565861E+01  0.43887915068E+02  0.00000000000E+00 0.  1.
         12    1    4    4    0    0  0.21947372933E+02 -0.33278211475E+02 -0.22738325323E+02  0.45892896794E+02  0.00000000000E+00 0. -1.
         -5    1    5    5    0  502 -0.60423206814E+02 -0.92097148364E+01  0.77911426403E+02  0.99136588267E+02  0.47000000000E+01 0.  1.
         13    1    6    6    0    0  0.52486446992E+02  0.62623420896E+02  0.13554140516E+02  0.82826533717E+02  0.00000000000E+00 0. -1.
        -14    1    6    6    0    0  0.35515011502E+01 -0.47452182721E+01  0.45757042676E+02  0.46139323915E+02  0.00000000000E+00 0.  1.
</event>
<event>
12    1  0.1627564E-001  0.1764729E+03  0.7818608E-02  0.1171566E+00
         21   -1    0    0  501  502  0.00000000000E+00  0.00000000000E+00  0.47914325621E+03  0.47914325621E+03  0.00000000000E+00 0. -1.
         21   -1    0    0  502  503 -0.00000000000E+00 -0.00000000000E+00 -0.10102033150E+03  0.10102033150E+03  0.00000000000E+00 0. -1.
         -6    2    1    2    0  503  0.98762365384E+01  0.38525663072E+02  0.15179807549E+02  0.17712454823E+03  0.17193287139E+03 0.  0.
        -24    2    3    3    0    0 -0.11656561914E+02 -0.13107379756E+02 -0.53762015371E+02  0.88216182657E+02  0.67705699509E+02 0.  0.
          6    2    1    2  501    0 -0.98762365384E+01 -0.38525663072E+02  0.36294311716E+03  0.40303903948E+03  0.17067804279E+03 0.  0.
         24    2    5    5    0    0 -0.65333371023E+02 -0.46037408006E+02  0.29225837496E+03  0.31275979017E+03  0.77561822487E+02 0.  0.
          5    1    5    5  501    0  0.55457134484E+02  0.75117449333E+01  0.70684742201E+02  0.90279249317E+02  0.47000000000E+01 0. -1.
        -11    1    6    6    0    0 -0.43254244306E+02 -0.41214276903E+02  0.82904055646E+02  0.10218918100E+03  0.00000000000E+00 0.  1.
         12    1    6    6    0    0 -0.22079126717E+02 -0.48231311022E+01  0.20935431931E+03  0.21057060916E+03  0.00000000000E+00 0. -1.
         -5    1    3    3    0  503  0.21532798453E+02  0.51633042829E+02  0.68941822920E+02  0.88908365571E+02  0.47000000000E+01 0.  1.
         11    1    4    4    0    0  0.20150092276E+02 -0.45208408778E+01 -0.51157135134E+02  0.55168076784E+02  0.00000000000E+00 0. -1.
        -12    1    4    4    0    0 -0.31806654190E+02 -0.85865388786E+01 -0.26048802371E+01  0.33048105872E+02  0.00000000000E+00 0.  1.
</event>
<event>
12    1  0.1627564E-001  0.1756607E+03  0.7818608E-02  0.1172127E+00
         21   -1    0    0  503  502  0.00000000000E+00  0.00000000000E+00  0.15196437549E+03  0.15196437549E+03  0.00000000000E+00 0.  1.
         21   -1    0    0  501  503 -0.00000000000E+00 -0.00000000000E+00 -0.33373803052E+03  0.33373803052E+03  0.00000000000E+00 0.  1.
          6    2    1    2  501    0 -0.12212722586E+02  0.34872331419E+02 -0.24297174793E+03  0.29968660689E+03  0.17149799405E+03 0.  0.
         24    2    3    3    0    0  0.13966185307E+02 -0.43402914580E+02 -0.13747197084E+03  0.16565436330E+03  0.80398743700E+02 0.  0.
         -6    2    1    2    0  502  0.12212722586E+02 -0.34872331419E+02  0.61198092897E+02  0.18601579912E+03  0.17173072194E+03 0.  0.
        -24    2    5    5    0    0  0.27497989342E+01 -0.92049545566E+02  0.45264804414E+02  0.12572699068E+03  0.72647735227E+02 0.  0.
          5    1    3    3  501    0 -0.26178907893E+02  0.78275245998E+02 -0.10549977710E+03  0.13403224359E+03  0.47000000000E+01 0. -1.
        -11    1    4    4    0    0 -0.31591653022E+02 -0.10578981138E+02 -0.72449013299E+02  0.79742127577E+02  0.00000000000E+00 0.  1.
         12    1    4    4    0    0  0.45557838330E+02 -0.32823933441E+02 -0.65022957536E+02  0.85912235721E+02  0.00000000000E+00 0. -1.
         -5    1    5    5    0  502  0.94629236515E+01  0.57177214147E+02  0.15933288483E+02  0.60288808443E+02  0.47000000000E+01 0.  1.
         13    1    6    6    0    0  0.14129683577E+02 -0.20938905984E+02 -0.17064643696E+02  0.30484222251E+02  0.00000000000E+00 0. -1.
        -14    1    6    6    0    0 -0.11379884643E+02 -0.71110639581E+02  0.62329448110E+02  0.95242768428E+02  0.00000000000E+00 0.  1.
</event>
<event>
12    1  0.1627564E-001  0.1838224E+03  0.7818608E-02  0.1164219E+00
         21   -1    0    0  503  502  0.00000000000E+00  0.00000000000E+00  0.39845490105E+03  0.39845490105E+03  0.00000000000E+00 0. -1.
         21   -1    0    0  501  503 -0.00000000000E+00 -0.00000000000E+00 -0.11518380738E+03  0.11518380738E+03  0.00000000000E+00 0. -1.
          6    2    1    2  501    0 -0.30575071456E+02  0.57857063675E+02  0.93915044520E+01  0.18378919133E+03  0.17148758463E+03 0.  0.
         24    2    3    3    0    0 -0.52119240734E+02  0.36567098339E+02  0.64780783785E+02  0.12048456181E+03  0.79160670476E+02 0.  0.
         -6    2    1    2    0  502  0.30575071456E+02 -0.57857063675E+02  0.27387958921E+03  0.32984951710E+03  0.17178009119E+03 0.  0.
        -24    2    5    5    0    0  0.24918792196E+02  0.28562678136E+02  0.10289407426E+03  0.13812444937E+03  0.83990476899E+02 0.  0.
          5    1    3    3  501    0  0.21544169278E+02  0.21289965336E+02 -0.55389279333E+02  0.63304629522E+02  0.47000000000E+01 0. -1.
        -13    1    4    4    0    0  0.18502061123E+02  0.18280674604E+02  0.57394103988E+01  0.26635505655E+02  0.00000000000E+00 0.  1.
         14    1    4    4    0    0 -0.70621301858E+02  0.18286423735E+02  0.59041373386E+02  0.93849056151E+02  0.00000000000E+00 0. -1.
         -5    1    5    5    0  502  0.56562792608E+01 -0.86419741811E+02  0.17098551495E+03  0.19172506772E+03  0.47000000000E+01 0.  1.
         11    1    6    6    0    0  0.34723309075E+02 -0.93293343679E+01  0.89998653943E+02  0.96914923435E+02  0.00000000000E+00 0. -1.
        -12    1    6    6    0    0 -0.98045168799E+01  0.37892012504E+02  0.12895420320E+02  0.41209525939E+02  0.00000000000E+00 0.  1.
</event>
<event>
12    1  0.1627564E-001  0.1824228E+03  0.7818608E-02  0.1166067E+00
         21   -1    0    0  503  502  0.00000000000E+00  0.00000000000E+00  0.30371309931E+03  0.30371309931E+03  0.00000000000E+00 0.  1.
         21   -1    0    0  501  503 -0.00000000000E+00 -0.00000000000E+00 -0.15929250635E+03  0.15929250635E+03  0.00000000000E+00 0. -1.
          6    2    1    2  501    0 -0.33831468869E+02 -0.57624183049E+02 -0.58693539342E+02  0.19163244598E+03  0.16974377171E+03 0.  0.
         24    2    3    3    0    0  0.20721406746E+02  0.58431410673E+01  0.76799492068E+01  0.84713563408E+02  0.81571362686E+02 0.  0.
         -6    2    1    2    0  502  0.33831468869E+02  0.57624183049E+02  0.20311413230E+03  0.27137315968E+03  0.16710154487E+03 0.  0.
        -24    2    5    5    0    0 -0.31276986915E+01 -0.20037326827E+02  0.52424462407E+02  0.97802549283E+02  0.80035850855E+02 0.  0.
          5    1    3    3  501    0 -0.54552875615E+02 -0.63467324117E+02 -0.66373488549E+02  0.10691888257E+03  0.47000000000E+01 0. -1.
        -11    1    4    4    0    0  0.21849309024E+02 -0.30224270471E+02 -0.17009571760E+02  0.40990539906E+02  0.00000000000E+00 0.  1.
         12    1    4    4    0    0 -0.11279022780E+01  0.36067411538E+02  0.24689520967E+02  0.43723023502E+02  0.00000000000E+00 0. -1.
         -5    1    5    5    0  502  0.36959167561E+02  0.77661509876E+02  0.15068966989E+03  0.17357061040E+03  0.47000000000E+01 0.  1.
         11    1    6    6    0    0 -0.40920616838E+02 -0.39831007605E+01  0.30974710175E+02  0.51476156077E+02  0.00000000000E+00 0. -1.
        -12    1    6    6    0    0  0.37792918146E+02 -0.16054226066E+02  0.21449752233E+02  0.46326393206E+02  0.00000000000E+00 0.  1.
</event>
<event>
12    1  0.1627564E-001  0.2605094E+03  0.7818608E-02  0.1106891E+00
         21   -1    0    0  503  502  0.00000000000E+00  0.00000000000E+00  0.24092744961E+03  0.24092744961E+03  0.00000000000E+00 0.  1.
         21   -1    0    0  501  503 -0.00000000000E+00 -0.00000000000E+00 -0.28408684081E+03  0.28408684081E+03  0.00000000000E+00 0. -1.
          6    2    1    2  501    0 -0.18400999206E+03  0.66490029349E+02  0.44443092537E+01  0.26019119089E+03  0.17146166555E+03 0.  0.
         24    2    3    3    0    0 -0.12666854111E+03 -0.16684404034E+02  0.35214074649E+02  0.15447980632E+03  0.79376891244E+02 0.  0.
         -6    2    1    2    0  502  0.18400999206E+03 -0.66490029349E+02 -0.47603700450E+02  0.26482309953E+03  0.17200162955E+03 0.  0.
        -24    2    5    5    0    0  0.13008667354E+03 -0.58564469762E+02  0.34066509092E+02  0.16652431062E+03  0.78850993866E+02 0.  0.
          5    1    3    3  501    0 -0.57341450946E+02  0.83174433383E+02 -0.30769765395E+02  0.10571138457E+03  0.47000000000E+01 0. -1.
        -11    1    4    4    0    0 -0.13735467810E+03 -0.15542573523E+02  0.38035446554E+02  0.14336866597E+03  0.00000000000E+00 0.  1.
         12    1    4    4    0    0  0.10686136986E+02 -0.11418305112E+01 -0.28213719051E+01  0.11111140357E+02  0.00000000000E+00 0. -1.
         -5    1    5    5    0  502  0.53923318514E+02 -0.79255595871E+01 -0.81670209542E+02  0.98298788909E+02  0.47000000000E+01 0.  1.
         13    1    6    6    0    0 -0.42153126343E+01 -0.19806905706E+01 -0.12653506210E+02  0.13483442259E+02  0.00000000000E+00 0. -1.
        -14    1    6    6    0    0  0.13430198618E+03 -0.56583779191E+02  0.46720015302E+02  0.15304086836E+03  0.00000000000E+00 0.  1.
</event>
<event>
12    1  0.1627564E-001  0.2211185E+03  0.7818608E-02  0.1133166E+00
         21   -1    0    0  503  502  0.00000000000E+00  0.00000000000E+00  0.70914510645E+02  0.70914510645E+02  0.00000000000E+00 0. -1.
         21   -1    0    0  501  503 -0.00000000000E+00 -0.00000000000E+00 -0.79398147318E+03  0.79398147318E+03  0.00000000000E+00 0. -1.
          6    2    1    2  501    0  0.11764699784E+03  0.73751053180E+02 -0.52029087249E+03  0.56532821064E+03  0.17208532709E+03 0.  0.
         24    2    3    3    0    0 -0.11401335065E+02  0.31158567555E+02 -0.18094438412E+03  0.19975233448E+03  0.77841365694E+02 0.  0.
         -6    2    1    2    0  502 -0.11764699784E+03 -0.73751053180E+02 -0.20277609004E+03  0.29956777318E+03  0.17129703468E+03 0.  0.
        -24    2    5    5    0    0 -0.30651792850E+02 -0.24499821425E+02 -0.17444951497E+03  0.19555655082E+03  0.79183064102E+02 0.  0.
          5    1    3    3  501    0  0.12904833291E+03  0.42592485625E+02 -0.33934648838E+03  0.36557587616E+03  0.47000000000E+01 0. -1.
        -13    1    4    4    0    0 -0.12973398333E+02 -0.24536756352E+02 -0.45527402825E+02  0.53320782858E+02  0.00000000000E+00 0.  1.
         14    1    4    4    0    0  0.15720632679E+01  0.55695323907E+02 -0.13541698129E+03  0.14643155162E+03  0.00000000000E+00 0. -1.
         -5    1    5    5    0  502 -0.86995204994E+02 -0.49251231755E+02 -0.28326575064E+02  0.10401122236E+03  0.47000000000E+01 0.  1.
         13    1    6    6    0    0 -0.11956333124E+02 -0.47165334203E+02 -0.59246699234E+02  0.76666120434E+02  0.00000000000E+00 0. -1.
        -14    1    6    6    0    0 -0.18695459726E+02  0.22665512778E+02 -0.11520281574E+03  0.11889043039E+03  0.00000000000E+00 0.  1.
</event>
<event>
12    1  0.1627564E-001  0.1816371E+03  0.7818608E-02  0.1166586E+00
         21   -1    0    0  503  502  0.00000000000E+00  0.00000000000E+00  0.12131035704E+04  0.12131035704E+04  0.00000000000E+00 0. -1.
         21   -1    0    0  501  503 -0.00000000000E+00 -0.00000000000E+00 -0.37220779647E+02  0.37220779647E+02  0.00000000000E+00 0.  1.
          6    2    1    2  501    0  0.39516321064E+02 -0.35232357039E+02  0.26167773044E+03  0.31853925961E+03  0.17375029983E+03 0.  0.
         24    2    3    3    0    0 -0.37347991430E+02 -0.15921338284E+00  0.18312151922E+03  0.20307750723E+03  0.79448633272E+02 0.  0.
         -6    2    1    2    0  502 -0.39516321064E+02  0.35232357039E+02  0.91420506035E+03  0.93178509048E+03  0.17219089363E+03 0.  0.
        -24    2    5    5    0    0  0.30869052082E+02  0.56542808999E+02  0.62259150613E+03  0.63100478673E+03  0.79980433521E+02 0.  0.
          5    1    3    3  501    0  0.76864312493E+02 -0.35073143656E+02  0.78556211217E+02  0.11546175238E+03  0.47000000000E+01 0. -1.
        -11    1    4    4    0    0 -0.12675377773E+02 -0.36494276032E+02  0.12085643999E+03  0.12688095394E+03  0.00000000000E+00 0.  1.
         12    1    4    4    0    0 -0.24672613657E+02  0.36335062649E+02  0.62265079228E+02  0.76196553292E+02  0.00000000000E+00 0. -1.
         -5    1    5    5    0  502 -0.70385373146E+02 -0.21310451960E+02  0.29161355423E+03  0.30078030375E+03  0.47000000000E+01 0.  1.
         13    1    6    6    0    0  0.23020174196E+02  0.68091197028E+01  0.46382763948E+03  0.46444845965E+03  0.00000000000E+00 0. -1.
        -14    1    6    6    0    0  0.78488778853E+01  0.49733689296E+02  0.15876386665E+03  0.16655632707E+03  0.00000000000E+00 0.  1.
</event>
<event>
12    1  0.1627564E-001  0.1803867E+03  0.7818608E-02  0.1169402E+00
         21   -1    0    0  503  502  0.00000000000E+00  0.00000000000E+00  0.23473436332E+02  0.23473436332E+02  0.00000000000E+00 0.  1.
         21   -1    0    0  501  503 -0.00000000000E+00 -0.00000000000E+00 -0.15052780807E+04  0.15052780807E+04  0.00000000000E+00 0.  1.
          6    2    1    2  501    0 -0.10168341366E+02  0.30008419429E+02 -0.46209586720E+03  0.49321041851E+03  0.16946983817E+03 0.  0.
         24    2    3    3    0    0 -0.53780034231E+02 -0.24328778853E+01 -0.39742341658E+03  0.40859934717E+03  0.78165487790E+02 0.  0.
         -6    2    1    2    0  502  0.10168341366E+02 -0.30008419429E+02 -0.10197087772E+04  0.10355410985E+04  0.17758230789E+03 0.  0.
        -24    2    5    5    0    0 -0.62555582604E+02 -0.22397608623E+02 -0.70132452664E+03  0.70883432702E+03  0.78582171654E+02 0.  0.
          5    1    3    3  501    0  0.43611692865E+02  0.32441297314E+02 -0.64672450614E+02  0.84611071347E+02  0.47000000000E+01 0. -1.
        -11    1    4    4    0    0 -0.10414595090E+02 -0.20392724063E+02 -0.27838984316E+02  0.36046304018E+02  0.00000000000E+00 0.  1.
         12    1    4    4    0    0 -0.43365439142E+02  0.17959846178E+02 -0.36958443227E+03  0.37255304315E+03  0.00000000000E+00 0. -1.
         -5    1    5    5    0  502  0.72723923970E+02 -0.76108108060E+01 -0.31838425053E+03  0.32670677150E+03  0.47000000000E+01 0.  1.
         13    1    6    6    0    0 -0.67355289052E+02  0.26859009595E+01 -0.34057256972E+03  0.34717952744E+03  0.00000000000E+00 0. -1.
        -14    1    6    6    0    0  0.47997064483E+01 -0.25083509583E+02 -0.36075195693E+03  0.36165479958E+03  0.00000000000E+00 0.  1.
</event>
<event>
12    1  0.1627564E-001  0.5107297E+03  0.7818608E-02  0.1011047E+00
         21   -1    0    0  503  502  0.00000000000E+00  0.00000000000E+00  0.13854134222E+04  0.13854134222E+04  0.00000000000E+00 0. -1.
         21   -1    0    0  501  503 -0.00000000000E+00 -0.00000000000E+00 -0.27665628090E+03  0.27665628090E+03  0.00000000000E+00 0.  1.
          6    2    1    2  501    0 -0.18158456298E+03 -0.44487607468E+03  0.10243756311E+04  0.11444162429E+04  0.17162583798E+03 0.  0.
         24    2    3    3    0    0 -0.16352801927E+03 -0.25103006571E+03  0.54669747789E+03  0.62856663115E+03  0.80376429962E+02 0.  0.
         -6    2    1    2    0  502  0.18158456298E+03  0.44487607468E+03  0.84381510283E+02  0.51765346021E+03  0.17308145554E+03 0.  0.
        -24    2    5    5    0    0  0.59667473444E+02  0.94940722946E+02  0.42233616455E+02  0.14466946314E+03  0.81065571886E+02 0.  0.
          5    1    3    3  501    0 -0.18056543713E+02 -0.19384600898E+03  0.47767815317E+03  0.51584961179E+03  0.47000000000E+01 0. -1.
        -13    1    4    4    0    0 -0.14616708292E+03 -0.15706411485E+03  0.38471877314E+03  0.44050253882E+03  0.00000000000E+00 0.  1.
         14    1    4    4    0    0 -0.17360936344E+02 -0.93965950855E+02  0.16197870475E+03  0.18806409233E+03  0.00000000000E+00 0. -1.
         -5    1    5    5    0  502  0.12191708954E+03  0.34993535174E+03  0.42147893828E+02  0.37298399707E+03  0.47000000000E+01 0.  1.
         13    1    6    6    0    0  0.61061521500E+02  0.92380980605E+02  0.60490185340E+02  0.12618168452E+03  0.00000000000E+00 0. -1.
        -14    1    6    6    0    0 -0.13940480566E+01  0.25597423412E+01 -0.18256568885E+02  0.18487778620E+02  0.00000000000E+00 0.  1.
</event>
<event>
12    1  0.1627564E-001  0.1825040E+03  0.7818608E-02  0.1165868E+00
         21   -1    0    0  503  502  0.00000000000E+00  0.00000000000E+00  0.25592489949E+02  0.25592489949E+02  0.00000000000E+00 0. -1.
         21   -1    0    0  501  503 -0.00000000000E+00 -0.00000000000E+00 -0.14477326999E+04  0.14477326999E+04  0.00000000000E+00 0. -1.
          6    2    1    2  501    0  0.46854569670E+02  0.31851061600E+02 -0.95948930096E+03  0.97669209006E+03  0.17348740385E+03 0.  0.
         24    2    3    3    0    0  0.78017670429E+02 -0.11266144884E+02 -0.81481533127E+03  0.82247510056E+03  0.79546112678E+02 0.  0.
         -6    2    1    2    0  502 -0.46854569670E+02 -0.31851061600E+02 -0.46265090898E+03  0.49663309978E+03  0.17143141893E+03 0.  0.
        -24    2    5    5    0    0 -0.35005473157E+02 -0.84329269112E+02 -0.37292774726E+03  0.39191109111E+03  0.78628174837E+02 0.  0.
          5    1    3    3  501    0 -0.31163100760E+02  0.43117206484E+02 -0.14467396969E+03  0.15421698950E+03  0.47000000000E+01 0. -1.
        -13    1    4    4    0    0  0.18565604062E+02 -0.27895582297E+02 -0.11074543694E+03  0.11570391942E+03  0.00000000000E+00 0.  1.
         14    1    4    4    0    0  0.59452066367E+02  0.16629437412E+02 -0.70406989433E+03  0.70677118114E+03  0.00000000000E+00 0. -1.
         -5    1    5    5    0  502 -0.11849096513E+02  0.52478207512E+02 -0.89723161716E+02  0.10472200867E+03  0.47000000000E+01 0.  1.
         13    1    6    6    0    0 -0.92439643698E+01 -0.85019914713E+02 -0.20663502328E+03  0.22363333745E+03  0.00000000000E+00 0. -1.
        -14    1    6    6    0    0 -0.25761508787E+02  0.69064560139E+00 -0.16629272399E+03  0.16827775366E+03  0.00000000000E+00 0.  1.
</event>
<event>
12    1  0.1627564E-001  0.1863385E+03  0.7818608E-02  0.1162427E+00
         21   -1    0    0  503  502  0.00000000000E+00  0.00000000000E+00  0.16441793458E+03  0.16441793458E+03  0.00000000000E+00 0.  1.
         21   -1    0    0  501  503 -0.00000000000E+00 -0.00000000000E+00 -0.20818296745E+03  0.20818296745E+03  0.00000000000E+00 0.  1.
          6    2    1    2  501    0 -0.24973086607E+02  0.63957110895E+02 -0.20782707504E+02  0.18749386776E+03  0.17322777614E+03 0.  0.
         24    2    3    3    0    0 -0.51932129150E+01  0.86530104761E+02  0.36688710003E+02  0.12248742742E+03  0.78375250840E+02 0.  0.
         -6    2    1    2    0  502  0.24973086607E+02 -0.63957110895E+02 -0.22982325363E+02  0.18510703427E+03  0.17035920805E+03 0.  0.
        -24    2    5    5    0    0  0.62607327593E+02 -0.67730853881E+02  0.25101183357E+02  0.12374995610E+03  0.78592850775E+02 0.  0.
          5    1    3    3  501    0 -0.19779873692E+02 -0.22572993866E+02 -0.57471417507E+02  0.65006440340E+02  0.47000000000E+01 0. -1.
        -11    1    4    4    0    0  0.19346855842E+02  0.81866723572E+02  0.80809791403E+01  0.84508955048E+02  0.00000000000E+00 0.  1.
         12    1    4    4    0    0 -0.24540068757E+02  0.46633811895E+01  0.28607730863E+02  0.37978472374E+02  0.00000000000E+00 0. -1.
         -5    1    5    5    0  502 -0.37634240986E+02  0.37737429856E+01 -0.48083508721E+02  0.61357078170E+02  0.47000000000E+01 0.  1.
         13    1    6    6    0    0 -0.12259682074E+02 -0.16902670248E+01  0.20334300671E+02  0.23804213722E+02  0.00000000000E+00 0. -1.
        -14    1    6    6    0    0  0.74867009667E+02 -0.66040586856E+02  0.47668826865E+01  0.99945742377E+02  0.00000000000E+00 0.  1.
</event>
<event>
12    1  0.1627564E-001  0.1876742E+03  0.7818608E-02  0.1160623E+00
         21   -1    0    0  501  502  0.00000000000E+00  0.00000000000E+00  0.30034923620E+02  0.30034923620E+02  0.00000000000E+00 0. -1.
         21   -1    0    0  502  503 -0.00000000000E+00 -0.00000000000E+00 -0.12067295160E+04  0.12067295160E+04  0.00000000000E+00 0. -1.
         -6    2    1    2    0  503  0.74847857805E+02 -0.12772068474E+02 -0.48284760912E+03  0.51803803377E+03  0.17162827056E+03 0.  0.
        -24    2    3    3    0    0  0.96003559191E+02  0.19980847780E+02 -0.44922808466E+03  0.46634006816E+03  0.77789905924E+02 0.  0.
          6    2    1    2  501    0 -0.74847857805E+02  0.12772068474E+02 -0.69384698328E+03  0.71872640586E+03  0.17140210829E+03 0.  0.
         24    2    5    5    0    0 -0.20238344687E+02  0.69495790605E+02 -0.38883373607E+03  0.40367886889E+03  0.80781801041E+02 0.  0.
          5    1    5    5  501    0 -0.54609513119E+02 -0.56723722131E+02 -0.30501324721E+03  0.31504753697E+03  0.47000000000E+01 0. -1.
        -13    1    6    6    0    0 -0.33369041853E+02  0.60748656466E+02 -0.16081916864E+03  0.17511909439E+03  0.00000000000E+00 0.  1.
         14    1    6    6    0    0  0.13130697166E+02  0.87471341395E+01 -0.22801456743E+03  0.22855977451E+03  0.00000000000E+00 0. -1.
         -5    1    3    3    0  503 -0.21155701386E+02 -0.32752916254E+02 -0.33619524453E+02  0.51697965615E+02  0.47000000000E+01 0.  1.
         11    1    4    4    0    0  0.34754460024E+02  0.37917150473E+02 -0.11365491873E+03  0.12475184705E+03  0.00000000000E+00 0. -1.
        -12    1    4    4    0    0  0.61249099168E+02 -0.17936302693E+02 -0.33557316594E+03  0.34158822111E+03  0.00000000000E+00 0.  1.
</event>
<event>
12    1  0.1627564E-001  0.2328264E+03  0.7818608E-02  0.1124732E+00
         21   -1    0    0  501  502  0.00000000000E+00  0.00000000000E+00  0.15716266663E+04  0.15716266663E+04  0.00000000000E+00 0.  1.
         21   -1    0    0  502  503 -0.00000000000E+00 -0.00000000000E+00 -0.50854530504E+02  0.50854530504E+02  0.00000000000E+00 0.  1.
         -6    2    1    2    0  503 -0.70791561405E+02  0.14026434544E+03  0.29984860121E+03  0.37962784795E+03  0.17182138262E+03 0.  0.
        -24    2    3    3    0    0 -0.18374209480E+02  0.65111758040E+02  0.55752878118E+02  0.11885917229E+03  0.80261863980E+02 0.  0.
          6    2    1    2  501    0  0.70791561405E+02 -0.14026434544E+03  0.12209235346E+04  0.12428533488E+04  0.17130276610E+03 0.  0.
         24    2    5    5    0    0  0.19653064474E+02 -0.14075981975E+03  0.11040187860E+04  0.11151654418E+04  0.67356610341E+02 0.  0.
          5    1    5    5  501    0  0.51138496930E+02  0.49547430320E+00  0.11690474855E+03  0.12768790701E+03  0.47000000000E+01 0. -1.
        -13    1    6    6    0    0  0.19957385371E+02 -0.14492839035E+03  0.95974156901E+03  0.97082769575E+03  0.00000000000E+00 0.  1.
         14    1    6    6    0    0 -0.30432089676E+00  0.41685706054E+01  0.14427721700E+03  0.14433774605E+03  0.00000000000E+00 0. -1.
         -5    1    3    3    0  503 -0.52417351924E+02  0.75152587405E+02  0.24409572309E+03  0.26076867566E+03  0.47000000000E+01 0.  1.
         11    1    4    4    0    0  0.18034894661E+02 -0.10585227777E+02  0.94980732692E+01  0.22967757147E+02  0.00000000000E+00 0. -1.
        -12    1    4    4    0    0 -0.36409104142E+02  0.75696985817E+02  0.46254804848E+02  0.95891415141E+02  0.00000000000E+00 0.  1.
</event>
<event>
12    1  0.1627564E-001  0.2301054E+03  0.7818608E-02  0.1126590E+00
         21   -1    0    0  501  502  0.00000000000E+00  0.00000000000E+00  0.28622022123E+03  0.28622022123E+03  0.00000000000E+00 0.  1.
         21   -1    0    0  502  503 -0.00000000000E+00 -0.00000000000E+00 -0.21941860785E+03  0.21941860785E+03  0.00000000000E+00 0.  1.
         -6    2    1    2    0  503 -0.14595438708E+03 -0.45043790028E+02 -0.66914542736E+02  0.23950257540E+03  0.17190782840E+03 0.  0.
        -24    2    3    3    0    0 -0.86480285894E+02 -0.93256949320E+02 -0.25644049038E+02  0.15239906748E+03  0.79950985447E+02 0.  0.
          6    2    1    2  501    0  0.14595438708E+03  0.45043790028E+02  0.13371615612E+03  0.26613625368E+03  0.17209552285E+03 0.  0.
         24    2    5    5    0    0  0.16030285434E+03  0.13865979250E+01  0.79053820317E+02  0.19456887361E+03  0.76867498382E+02 0.  0.
          5    1    5    5  501    0 -0.14348467253E+02  0.43657192103E+02  0.54662335808E+02  0.71567380075E+02  0.47000000000E+01 0. -1.
        -11    1    6    6    0    0  0.94342045734E+02  0.17530760368E+02  0.82538844934E+02  0.12657175860E+03  0.00000000000E+00 0.  1.
         12    1    6    6    0    0  0.65960808601E+02 -0.16144162443E+02 -0.34850246174E+01  0.67997115004E+02  0.00000000000E+00 0. -1.
         -5    1    3    3    0  503 -0.59474101188E+02  0.48213159292E+02 -0.41270493699E+02  0.87103507915E+02  0.47000000000E+01 0.  1.
         11    1    4    4    0    0 -0.49186056142E+02 -0.59602447399E+02 -0.54411305009E+02  0.94510898670E+02  0.00000000000E+00 0. -1.
        -12    1    4    4    0    0 -0.37294229753E+02 -0.33654501920E+02  0.28767255971E+02  0.57888168813E+02  0.00000000000E+00 0.  1.
</event>
<event>
12    1  0.1627564E-001  0.2285222E+03  0.7818608E-02  0.1127959E+00
         21   -1    0    0  503  502  0.00000000000E+00  0.00000000000E+00  0.16523925499E+03  0.16523925499E+03  0.00000000000E+00 0.  1.
         21   -1    0    0  501  503 -0.00000000000E+00 -0.00000000000E+00 -0.39309770362E+03  0.39309770362E+03  0.00000000000E+00 0. -1.
          6    2    1    2  501    0  0.10667614192E+03  0.10201463972E+03 -0.23953405266E+03  0.33105734826E+03  0.17445807371E+03 0.  0.
         24    2    3    3    0    0  0.11076290909E+03  0.60345588566E+02 -0.85929827249E+02  0.17177973039E+03  0.78831012125E+02 0.  0.
         -6    2    1    2    0  502 -0.10667614192E+03 -0.10201463972E+03  0.11675604025E+02  0.22727961035E+03  0.17243235073E+03 0.  0.
        -24    2    5    5    0    0 -0.71120792970E+02  0.10074025724E+01  0.45492298340E+02  0.11307197991E+03  0.75209981915E+02 0.  0.
          5    1    3    3  501    0 -0.40867671757E+01  0.41669051149E+02 -0.15360422541E+03  0.15927761787E+03  0.47000000000E+01 0. -1.
        -11    1    4    4    0    0  0.59004860467E+02  0.35096443095E+00 -0.61289115882E+01  0.59323353681E+02  0.00000000000E+00 0.  1.
         12    1    4    4    0    0  0.51758048625E+02  0.59994624135E+02 -0.79800915661E+02  0.11245637671E+03  0.00000000000E+00 0. -1.
         -5    1    5    5    0  502 -0.35555348946E+02 -0.10302204229E+03 -0.33816694316E+02  0.11420763044E+03  0.47000000000E+01 0.  1.
         11    1    6    6    0    0 -0.41074569131E+01  0.17593237336E+02  0.39913165784E+02  0.43811573872E+02  0.00000000000E+00 0. -1.
        -12    1    6    6    0    0 -0.67013336057E+02 -0.16585834763E+02  0.55791325560E+01  0.69260406037E+02  0.00000000000E+00 0.  1.
</event>
<event>
12    1  0.1627564E-001  0.2279427E+03  0.7818608E-02  0.1128122E+00
         21   -1    0    0  501  502  0.00000000000E+00  0.00000000000E+00  0.90831989486E+03  0.90831989486E+03  0.00000000000E+00 0. -1.
         21   -1    0    0  502  503 -0.00000000000E+00 -0.00000000000E+00 -0.31400190573E+03  0.31400190573E+03  0.00000000000E+00 0.  1.
         -6    2    1    2    0  503  0.57809369465E+02  0.13724663247E+03 -0.25559352717E+03  0.34237438680E+03  0.17237635651E+03 0.  0.
        -24    2    3    3    0    0  0.83167409898E+02  0.53536346383E+02 -0.20489832457E+03  0.24116897302E+03  0.79976194479E+02 0.  0.
          6    2    1    2  501    0 -0.57809369465E+02 -0.13724663247E+03  0.84991151630E+03  0.87994741380E+03  0.17256681079E+03 0.  0.
         24    2    5    5    0    0  0.27662917875E+02 -0.67714633913E+02  0.23942361788E+03  0.25957835038E+03  0.68605703237E+02 0.  0.
          5    1    5    5  501    0 -0.85472287340E+02 -0.69531998555E+02  0.61048789842E+03  0.62036906342E+03  0.47000000000E+01 0. -1.
        -11    1    6    6    0    0 -0.19284224273E+02 -0.24396396224E+01  0.56939407937E+02  0.60165848482E+02  0.00000000000E+00 0.  1.
         12    1    6    6    0    0  0.46947142148E+02 -0.65274994291E+02  0.18248420994E+03  0.19941250190E+03  0.00000000000E+00 0. -1.
         -5    1    3    3    0  503 -0.25358040433E+02  0.83710286085E+02 -0.50695202596E+02  0.10120541377E+03  0.47000000000E+01 0.  1.
         13    1    4    4    0    0 -0.90683321275E+01  0.43755817118E+01 -0.68977620931E+02  0.69708626096E+02  0.00000000000E+00 0. -1.
        -14    1    4    4    0    0  0.92235742026E+02  0.49160764671E+02 -0.13592070364E+03  0.17146034693E+03  0.00000000000E+00 0.  1.
</event>
<event>
12    1  0.1627564E-001  0.1883814E+03  0.7818608E-02  0.1160751E+00
         21   -1    0    0  503  502  0.00000000000E+00  0.00000000000E+00  0.96772854913E+03  0.96772854913E+03  0.00000000000E+00 0.  1.
         21   -1    0    0  501  503 -0.00000000000E+00 -0.00000000000E+00 -0.44435252222E+02  0.44435252222E+02  0.00000000000E+00 0.  1.
          6    2    1    2  501    0 -0.18839468635E+02  0.64089814712E+02  0.24446436146E+03  0.30862662050E+03  0.17613953823E+03 0.  0.
         24    2    3    3    0    0 -0.49609002483E+02  0.99747638707E+01  0.51794181335E+02  0.10609491619E+03  0.77543181387E+02 0.  0.
         -6    2    1    2    0  502  0.18839468635E+02 -0.64089814712E+02  0.67882893545E+03  0.70353718085E+03  0.17231776261E+03 0.  0.
        -24    2    5    5    0    0 -0.27626594352E+02 -0.75049004067E+02  0.22805195571E+03  0.25021480737E+03  0.64839598979E+02 0.  0.
          5    1    3    3  501    0  0.30769533848E+02  0.54115050841E+02  0.19267018013E+03  0.20253170431E+03  0.47000000000E+01 0. -1.
        -13    1    4    4    0    0 -0.65011065568E+02 -0.11261058669E+02  0.32627323452E+02  0.73605654159E+02  0.00000000000E+00 0.  1.
         14    1    4    4    0    0  0.15402063084E+02  0.21235822540E+02  0.19166857883E+02  0.32489262031E+02  0.00000000000E+00 0. -1.
         -5    1    5    5    0  502  0.46466062986E+02  0.10959189355E+02  0.45077697974E+03  0.45332237348E+03  0.47000000000E+01 0.  1.
         13    1    6    6    0    0  0.12169393186E+02 -0.58383758329E+02  0.13939879348E+03  0.15162051639E+03  0.00000000000E+00 0. -1.
        -14    1    6    6    0    0 -0.39795987538E+02 -0.16665245738E+02  0.88653162231E+02  0.98594290976E+02  0.00000000000E+00 0.  1.
</event>
<event>
12    1  0.1627564E-001  0.2441751E+03  0.7818608E-02  0.1117123E+00
         21   -1    0    0  501  502  0.00000000000E+00  0.00000000000E+00  0.14248857038E+03  0.14248857038E+03  0.00000000000E+00 0.  1.
         21   -1    0    0  502  503 -0.00000000000E+00 -0.00000000000E+00 -0.75633633922E+03  0.75633633922E+03  0.00000000000E+00 0.  1.
         -6    2    1    2    0  503 -0.16714623556E+03 -0.43766439249E+02 -0.60786488990E+03  0.65507344888E+03  0.17253444229E+03 0.  0.
        -24    2    3    3    0    0 -0.17902717327E+03 -0.75475212710E+02 -0.51792951654E+03  0.55885980963E+03  0.79536571541E+02 0.  0.
          6    2    1    2  501    0  0.16714623556E+03  0.43766439249E+02 -0.59828789274E+01  0.24375146072E+03  0.17183019088E+03 0.  0.
         24    2    5    5    0    0  0.95832510525E+01  0.16165026390E+02 -0.96130490804E+01  0.83678976471E+02  0.80972919002E+02 0.  0.
          5    1    5    5  501    0  0.15756298451E+03  0.27601412859E+02  0.36301701531E+01  0.16007248425E+03  0.47000000000E+01 0. -1.
        -13    1    6    6    0    0  0.34059142116E+02  0.27482174312E+02  0.15893966523E+02  0.46560855216E+02  0.00000000000E+00 0.  1.
         14    1    6    6    0    0 -0.24475891064E+02 -0.11317147922E+02 -0.25507015604E+02  0.37118121255E+02  0.00000000000E+00 0. -1.
         -5    1    3    3    0  503  0.11880937705E+02  0.31708773461E+02 -0.89935373360E+02  0.96213639244E+02  0.47000000000E+01 0.  1.
         11    1    4    4    0    0  0.51751665858E+01  0.64218010194E+01 -0.23966488710E+02  0.25345896287E+02  0.00000000000E+00 0. -1.
        -12    1    4    4    0    0 -0.18420233985E+03 -0.81897013729E+02 -0.49396302783E+03  0.53351391334E+03  0.00000000000E+00 0.  1.
</event>
<event>
12    1  0.1627564E-001  0.2257963E+03  0.7818608E-02  0.1130276E+00
         21   -1    0    0  503  502  0.00000000000E+00  0.00000000000E+00  0.45741979038E+03  0.45741979038E+03  0.00000000000E+00 0. -1.
         21   -1    0    0  501  503 -0.00000000000E+00 -0.00000000000E+00 -0.10975030177E+03  0.10975030177E+03  0.00000000000E+00 0. -1.
          6    2    1    2  501    0  0.12105753025E+03  0.70769627331E+02  0.17070644933E+03  0.28306301989E+03  0.17697659620E+03 0.  0.
         24    2    3    3    0    0  0.50854430294E+02 -0.23228369566E+02  0.38745364754E+02  0.10642803890E+03  0.81853490711E+02 0.  0.
         -6    2    1    2    0  502 -0.12105753025E+03 -0.70769627331E+02  0.17696303927E+03  0.28410707226E+03  0.17244606537E+03 0.  0.
        -24    2    5    5    0    0 -0.12902979791E+03 -0.29643853954E+02  0.71339032398E+02  0.17038193382E+03  0.80083075624E+02 0.  0.
          5    1    3    3  501    0  0.70203099954E+02  0.93997996897E+02  0.13196108458E+03  0.17663498099E+03  0.47000000000E+01 0. -1.
        -13    1    4    4    0    0  0.25856052642E+02 -0.50727379098E+01 -0.24538144519E+02  0.36005397714E+02  0.00000000000E+00 0.  1.
         14    1    4    4    0    0  0.24998377652E+02 -0.18155631657E+02  0.63283509273E+02  0.70422641188E+02  0.00000000000E+00 0. -1.
         -5    1    5    5    0  502  0.79722676628E+01 -0.41125773377E+02  0.10562400687E+03  0.11372513845E+03  0.47000000000E+01 0.  1.
         13    1    6    6    0    0 -0.69898952850E+02 -0.27099339355E+02  0.81049598707E+02  0.11040505085E+03  0.00000000000E+00 0. -1.
        -14    1    6    6    0    0 -0.59130845061E+02 -0.25445145994E+01 -0.97105663090E+01  0.59976882965E+02  0.00000000000E+00 0.  1.
</event>
<event>
12    1  0.1627564E-001  0.2940355E+03  0.7818608E-02  0.1088299E+00
         21   -1    0    0  501  502  0.00000000000E+00  0.00000000000E+00  0.18183506911E+03  0.18183506911E+03  0.00000000000E+00 0.  1.
         21   -1    0    0  502  503 -0.00000000000E+00 -0.00000000000E+00 -0.51612735944E+03  0.51612735944E+03  0.00000000000E+00 0. -1.
         -6    2    1    2    0  503 -0.21269130620E+03 -0.10695533999E+03 -0.26560084366E+03  0.39600976444E+03  0.17205490080E+03 0.  0.
        -24    2    3    3    0    0 -0.19991023049E+03 -0.33560529577E+02 -0.20612867790E+03  0.30056772657E+03  0.82228443990E+02 0.  0.
          6    2    1    2  501    0  0.21269130620E+03  0.10695533999E+03 -0.68691446667E+02  0.30195266411E+03  0.17256842131E+03 0.  0.
         24    2    5    5    0    0  0.16305967112E+03  0.12498873028E+03 -0.77093731691E+01  0.22114792629E+03  0.81463684080E+02 0.  0.
          5    1    5    5  501    0  0.49631635081E+02 -0.18033390290E+02 -0.60982073498E+02  0.80804737821E+02  0.47000000000E+01 0. -1.
        -13    1    6    6    0    0  0.15279501908E+03  0.79401740591E+02 -0.18513303158E+02  0.17318688362E+03  0.00000000000E+00 0.  1.
         14    1    6    6    0    0  0.10264652042E+02  0.45586989694E+02  0.10803929989E+02  0.47961042671E+02  0.00000000000E+00 0. -1.
         -5    1    3    3    0  503 -0.12781075709E+02 -0.73394810418E+02 -0.59472165757E+02  0.95442037868E+02  0.47000000000E+01 0.  1.
         11    1    4    4    0    0 -0.91123911270E+02 -0.53219056670E+02 -0.12415638969E+03  0.16294368444E+03  0.00000000000E+00 0. -1.
        -12    1    4    4    0    0 -0.10878631922E+03  0.19658527094E+02 -0.81972288210E+02  0.13762404213E+03  0.00000000000E+00 0.  1.
</event>
<event>
12    1  0.1627564E-001  0.1853094E+03  0.7818608E-02  0.1163767E+00
         21   -1    0    0  501  502  0.00000000000E+00  0.00000000000E+00  0.52031491203E+03  0.52031491203E+03  0.00000000000E+00 0.  1.
         21   -1    0    0  502  503 -0.00000000000E+00 -0.00000000000E+00 -0.14884155385E+03  0.14884155385E+03  0.00000000000E+00 0.  1.
         -6    2    1    2    0  503 -0.29701115428E+02 -0.57843730408E+02 -0.65196085082E+02  0.19644363918E+03  0.17352671396E+03 0.  0.
        -24    2    3    3    0    0  0.20390995502E+02 -0.93066728085E+02 -0.46151886729E+02  0.13214239009E+03  0.79084802821E+02 0.  0.
          6    2    1    2  501    0  0.29701115428E+02  0.57843730408E+02  0.43666944327E+03  0.47271282670E+03  0.16896496808E+03 0.  0.
         24    2    5    5    0    0 -0.15074247861E+02  0.90498309314E+02  0.27498336391E+03  0.30172852058E+03  0.83708259855E+02 0.  0.
          5    1    5    5  501    0  0.44775363289E+02 -0.32654578906E+02  0.16168607936E+03  0.17098430612E+03  0.47000000000E+01 0. -1.
        -11    1    6    6    0    0 -0.43519380107E+02  0.31955765788E+02  0.16839468877E+03  0.17683856655E+03  0.00000000000E+00 0.  1.
         12    1    6    6    0    0  0.28445132245E+02  0.58542543527E+02  0.10658867514E+03  0.12488995403E+03  0.00000000000E+00 0. -1.
         -5    1    3    3    0  503 -0.50092110930E+02  0.35222997677E+02 -0.19044198353E+02  0.64301249083E+02  0.47000000000E+01 0.  1.
         11    1    4    4    0    0  0.30772721189E+02 -0.56311580098E+01 -0.28544840097E+02  0.42349477046E+02  0.00000000000E+00 0. -1.
        -12    1    4    4    0    0 -0.10381725687E+02 -0.87435570075E+02 -0.17607046631E+02  0.89792913048E+02  0.00000000000E+00 0.  1.
</event>
<event>
12    1  0.1627564E-001  0.1827511E+03  0.7818608E-02  0.1165482E+00
         21   -1    0    0  503  502  0.00000000000E+00  0.00000000000E+00  0.20799687287E+03  0.20799687287E+03  0.00000000000E+00 0. -1.
         21   -1    0    0  501  503 -0.00000000000E+00 -0.00000000000E+00 -0.19154148416E+03  0.19154148416E+03  0.00000000000E+00 0. -1.
          6    2    1    2  501    0 -0.19252661946E+02  0.56325533963E+02  0.90076557753E+02  0.20374435499E+03  0.17278525738E+03 0.  0.
         24    2    3    3    0    0 -0.32211518139E+02 -0.28795351101E+02  0.25102631088E+02  0.95775849519E+02  0.81707509555E+02 0.  0.
         -6    2    1    2    0  502  0.19252661946E+02 -0.56325533963E+02 -0.73621169038E+02  0.19579400204E+03  0.17138256602E+03 0.  0.
        -24    2    5    5    0    0 -0.12457826903E+01 -0.31105473370E+02 -0.11680025908E+03  0.14154677625E+03  0.73648400522E+02 0.  0.
          5    1    3    3  501    0  0.12958856193E+02  0.85120885064E+02  0.64973926665E+02  0.10796850547E+03  0.47000000000E+01 0. -1.
        -13    1    4    4    0    0  0.18289682206E+02  0.16446196213E+02  0.56312780754E+01  0.25232937559E+02  0.00000000000E+00 0.  1.
         14    1    4    4    0    0 -0.50501200345E+02 -0.45241547314E+02  0.19471353013E+02  0.70542911960E+02  0.00000000000E+00 0. -1.
         -5    1    5    5    0  502  0.20498444636E+02 -0.25220060593E+02  0.43179090038E+02  0.54247225784E+02  0.47000000000E+01 0.  1.
         11    1    6    6    0    0  0.15412411551E+02 -0.35884916596E+02 -0.21297415430E+02  0.44484262081E+02  0.00000000000E+00 0. -1.
        -12    1    6    6    0    0 -0.16658194241E+02  0.47794432260E+01 -0.95502843646E+02  0.97062514172E+02  0.00000000000E+00 0.  1.
</event>
<event>
12    1  0.1627564E-001  0.3100843E+03  0.7818608E-02  0.1080643E+00
         21   -1    0    0  503  502  0.00000000000E+00  0.00000000000E+00  0.41883480559E+03  0.41883480559E+03  0.00000000000E+00 0. -1.
         21   -1    0    0  501  503 -0.00000000000E+00 -0.00000000000E+00 -0.11284142798E+04  0.11284142798E+04  0.00000000000E+00 0. -1.
          6    2    1    2  501    0  0.21353227668E+02 -0.25512160684E+03 -0.10463674733E+04  0.10913464921E+04  0.17495508576E+03 0.  0.
         24    2    3    3    0    0 -0.46333237140E+02 -0.10249553342E+03 -0.57354202837E+03  0.58988645663E+03  0.79771361840E+02 0.  0.
         -6    2    1    2    0  502 -0.21353227668E+02  0.25512160684E+03  0.33678799916E+03  0.45590259321E+03  0.16993535096E+03 0.  0.
        -24    2    5    5    0    0 -0.10698996176E+02  0.13071570087E+03  0.27856912258E+03  0.31805532382E+03  0.79733117217E+02 0.  0.
          5    1    3    3  501    0  0.67686464807E+02 -0.15262607342E+03 -0.47282544497E+03  0.50146003551E+03  0.47000000000E+01 0. -1.
        -13    1    4    4    0    0 -0.33709288903E+02 -0.10000067950E+03 -0.34024085690E+03  0.35623067353E+03  0.00000000000E+00 0.  1.
         14    1    4    4    0    0 -0.12623948237E+02 -0.24948539170E+01 -0.23330117148E+03  0.23365578310E+03  0.00000000000E+00 0. -1.
         -5    1    5    5    0  502 -0.10654231491E+02  0.12440590597E+03  0.58218876585E+02  0.13784726939E+03  0.47000000000E+01 0.  1.
         13    1    6    6    0    0 -0.34588047860E+02  0.70140723560E+02  0.93667797560E+02  0.12202340126E+03  0.00000000000E+00 0. -1.
        -14    1    6    6    0    0  0.23889051684E+02  0.60574977314E+02  0.18490132502E+03  0.19603192255E+03  0.00000000000E+00 0.  1.
</event>
<event>
12    1  0.1627564E-001  0.3141088E+03  0.7818608E-02  0.1078422E+00
         21   -1    0    0  501  502  0.00000000000E+00  0.00000000000E+00  0.40552934795E+03  0.40552934795E+03  0.00000000000E+00 0. -1.
         21   -1    0    0  502  503 -0.00000000000E+00 -0.00000000000E+00 -0.27284788317E+03  0.27284788317E+03  0.00000000000E+00 0.  1.
         -6    2    1    2    0  503 -0.23592863229E+03 -0.11588365829E+03 -0.45669472138E+02  0.31716621071E+03  0.17151490529E+03 0.  0.
        -24    2    3    3    0    0 -0.10752339137E+03 -0.20080968543E+02  0.29555559109E+02  0.14011549316E+03  0.82427515793E+02 0.  0.
          6    2    1    2  501    0  0.23592863229E+03  0.11588365829E+03  0.17835093692E+03  0.36121102041E+03  0.17196802836E+03 0.  0.
         24    2    5    5    0    0  0.19030207556E+03  0.53578743733E+02  0.61037646524E+02  0.22068279137E+03  0.76744630872E+02 0.  0.
          5    1    5    5  501    0  0.45626556721E+02  0.62304914560E+02  0.11731329039E+03  0.14052822905E+03  0.47000000000E+01 0. -1.
        -11    1    6    6    0    0  0.66592891689E+02  0.54245790389E+02  0.86103893879E+01  0.86321247696E+02  0.00000000000E+00 0.  1.
         12    1    6    6    0    0  0.12370918388E+03 -0.66704665599E+00  0.52427257136E+02  0.13436154367E+03  0.00000000000E+00 0. -1.
         -5    1    3    3    0  503 -0.12840524092E+03 -0.95802689750E+02 -0.75225031247E+02  0.17705071755E+03  0.47000000000E+01 0.  1.
         13    1    4    4    0    0 -0.29469857837E+02 -0.43137985050E+02  0.26716418898E+02  0.58678150225E+02  0.00000000000E+00 0. -1.
        -14    1    4    4    0    0 -0.78053533533E+02  0.23057016506E+02  0.28391402111E+01  0.81437342935E+02  0.00000000000E+00 0.  1.
</event>
<event>
12    1  0.1627564E-001  0.2051214E+03  0.7818608E-02  0.1147132E+00
         21   -1    0    0  501  502  0.00000000000E+00  0.00000000000E+00  0.22953816162E+03  0.22953816162E+03  0.00000000000E+00 0.  1.
         21   -1    0    0  502  503 -0.00000000000E+00 -0.00000000000E+00 -0.17722946444E+03  0.17722946444E+03  0.00000000000E+00 0.  1.
         -6    2    1    2    0  503 -0.10880084128E+03  0.38286583415E+02  0.41193192872E+02  0.20921678061E+03  0.16962103825E+03 0.  0.
        -24    2    3    3    0    0 -0.31574538319E+02 -0.39398869024E+02  0.84537171922E+01  0.94792593229E+02  0.79780624505E+02 0.  0.
          6    2    1    2  501    0  0.10880084128E+03 -0.38286583415E+02  0.11115504307E+02  0.19755084545E+03  0.15999780177E+03 0.  0.
         24    2    5    5    0    0  0.95254157208E+02 -0.34528333272E+02  0.59957957939E+02  0.14650858482E+03  0.87202341951E+02 0.  0.
          5    1    5    5  501    0  0.13546684070E+02 -0.37582501424E+01 -0.48842453632E+02  0.51042260630E+02  0.47000000000E+01 0. -1.
        -11    1    6    6    0    0  0.36576941944E+02 -0.42448441160E+02  0.66476238025E+02  0.86941549680E+02  0.00000000000E+00 0.  1.
         12    1    6    6    0    0  0.58677215263E+02  0.79201078876E+01 -0.65182800858E+01  0.59567035139E+02  0.00000000000E+00 0. -1.
         -5    1    3    3    0  503 -0.77226302959E+02  0.77685452438E+02  0.32739475680E+02  0.11442418738E+03  0.47000000000E+01 0.  1.
         11    1    4    4    0    0  0.20997476982E+02 -0.16792087708E+02  0.23403641504E+02  0.35645458124E+02  0.00000000000E+00 0. -1.
        -12    1    4    4    0    0 -0.52572015301E+02 -0.22606781316E+02 -0.14949924312E+02  0.59147135105E+02  0.00000000000E+00 0.  1.
</event>
<event>
12    1  0.1627564E-001  0.1853699E+03  0.7818608E-02  0.1163300E+00
         21   -1    0    0  501  502  0.00000000000E+00  0.00000000000E+00  0.59261781934E+02  0.59261781934E+02  0.00000000000E+00 0. -1.
         21   -1    0    0  502  503 -0.00000000000E+00 -0.00000000000E+00 -0.80152754483E+03  0.80152754483E+03  0.00000000000E+00 0.  1.
         -6    2    1    2    0  503  0.62798074858E+02 -0.79897692069E+01 -0.60330919590E+03  0.63114498577E+03  0.17422563697E+03 0.  0.
        -24    2    3    3    0    0  0.17396011292E+02 -0.25465071858E+02 -0.13071457139E+03  0.15602973375E+03  0.79422210662E+02 0.  0.
          6    2    1    2  501    0 -0.62798074858E+02  0.79897692069E+01 -0.13895656699E+03  0.22964434099E+03  0.17152306324E+03 0.  0.
         24    2    5    5    0    0 -0.10585282755E+03  0.43484721887E+01 -0.78386280305E+02  0.15509355024E+03  0.81767169913E+02 0.  0.
          5    1    5    5  501    0  0.43054752690E+02  0.36412970182E+01 -0.60570286684E+02  0.74550790755E+02  0.47000000000E+01 0. -1.
        -13    1    6    6    0    0 -0.81580928972E+00 -0.24737950818E+02 -0.16691616208E+02  0.29853673260E+02  0.00000000000E+00 0.  1.
         14    1    6    6    0    0 -0.10503701826E+03  0.29086423006E+02 -0.61694664097E+02  0.12523987698E+03  0.00000000000E+00 0. -1.
         -5    1    3    3    0  503  0.45402063566E+02  0.17475302651E+02 -0.47259462452E+03  0.47511525202E+03  0.47000000000E+01 0.  1.
         11    1    4    4    0    0 -0.13881096187E+02 -0.45643565896E+02 -0.67209800951E+02  0.82420733331E+02  0.00000000000E+00 0. -1.
        -12    1    4    4    0    0  0.31277107479E+02  0.20178494038E+02 -0.63504770437E+02  0.73609000416E+02  0.00000000000E+00 0.  1.
</event>
<event>
12    1  0.1627564E-001  0.1904355E+03  0.7818608E-02  0.1158584E+00
         21   -1    0    0  503  502  0.00000000000E+00  0.00000000000E+00  0.38750831400E+03  0.38750831400E+03  0.00000000000E+00 0. -1.
         21   -1    0    0  501  503 -0.00000000000E+00 -0.00000000000E+00 -0.98481072060E+02  0.98481072060E+02  0.00000000000E+00 0.  1.
          6    2    1    2  501    0  0.70209335994E+02 -0.26135918844E+02  0.85309561725E+02  0.20867055938E+03  0.17508067830E+03 0.  0.
         24    2    3    3    0    0  0.10275196645E+03 -0.58121509346E+02  0.72907931136E+02  0.16115223409E+03  0.81965844547E+02 0.  0.
         -6    2    1    2    0  502 -0.70209335994E+02  0.26135918844E+02  0.20371768022E+03  0.27731882669E+03  0.17260475453E+03 0.  0.
        -24    2    5    5    0    0 -0.49014508322E+02 -0.50256473762E+02  0.13515238175E+03  0.17239834002E+03  0.80789146352E+02 0.  0.
          5    1    3    3  501    0 -0.32542630455E+02  0.31985590502E+02  0.12401630589E+02  0.47518325286E+02  0.47000000000E+01 0. -1.
        -11    1    4    4    0    0  0.39276774246E+02 -0.68651885090E+02  0.35181774152E+02  0.86565025004E+02  0.00000000000E+00 0.  1.
         12    1    4    4    0    0  0.63475192204E+02  0.10530375744E+02  0.37726156984E+02  0.74587209087E+02  0.00000000000E+00 0. -1.
         -5    1    5    5    0  502 -0.21194827672E+02  0.76392392606E+02  0.68565298471E+02  0.10492048667E+03  0.47000000000E+01 0.  1.
         13    1    6    6    0    0 -0.49088942802E+02  0.71574032398E+01  0.61721256250E+02  0.79186275324E+02  0.00000000000E+00 0. -1.
        -14    1    6    6    0    0  0.74434480392E-01 -0.57413877002E+02  0.73431125495E+02  0.93212064693E+02  0.00000000000E+00 0.  1.
</event>
<event>
12    1  0.1627564E-001  0.2159422E+03  0.7818608E-02  0.1137632E+00
         21   -1    0    0  503  502  0.00000000000E+00  0.00000000000E+00  0.35444104539E+03  0.35444104539E+03  0.00000000000E+00 0. -1.
         21   -1    0    0  501  503 -0.00000000000E+00 -0.00000000000E+00 -0.13243191867E+03  0.13243191867E+03  0.00000000000E+00 0. -1.
          6    2    1    2  501    0  0.95845760120E+01 -0.12848544306E+03  0.14694226233E+03  0.25825527057E+03  0.16882944987E+03 0.  0.
         24    2    3    3    0    0 -0.28666737210E+02 -0.14468432091E+03  0.10362486418E+03  0.19805515771E+03  0.82051194257E+02 0.  0.
         -6    2    1    2    0  502 -0.95845760120E+01  0.12848544306E+03  0.75066864392E+02  0.22861769349E+03  0.17329351537E+03 0.  0.
        -24    2    5    5    0    0  0.50332072519E+02  0.11345017171E+03  0.49528480901E+02  0.16160752122E+03  0.90882679925E+02 0.  0.
          5    1    3    3  501    0  0.38251313222E+02  0.16198877848E+02  0.43317398144E+02  0.60200112863E+02  0.47000000000E+01 0. -1.
        -13    1    4    4    0    0 -0.64559544547E+00 -0.40399993033E+02 -0.96664205546E+01  0.41545347716E+02  0.00000000000E+00 0.  1.
         14    1    4    4    0    0 -0.28021141764E+02 -0.10428432788E+03  0.11329128474E+03  0.15650980999E+03  0.00000000000E+00 0. -1.
         -5    1    5    5    0  502 -0.59916648531E+02  0.15035271356E+02  0.25538383491E+02  0.67010172267E+02  0.47000000000E+01 0.  1.
         13    1    6    6    0    0  0.30140919865E+02  0.90682998248E+02 -0.86495436731E+01  0.95951528530E+02  0.00000000000E+00 0. -1.
        -14    1    6    6    0    0  0.20191152654E+02  0.22767173459E+02  0.58178024574E+02  0.65655992690E+02  0.00000000000E+00 0.  1.
</event>
<event>
12    1  0.1627564E-001  0.2359458E+03  0.7818608E-02  0.1122718E+00
         21   -1    0    0  501  502  0.00000000000E+00  0.00000000000E+00  0.27650179745E+03  0.27650179745E+03  0.00000000000E+00 0.  1.
         21   -1    0    0  502  503 -0.00000000000E+00 -0.00000000000E+00 -0.20440149132E+03  0.20440149132E+03  0.00000000000E+00 0.  1.
         -6    2    1    2    0  503 -0.17022792369E+02 -0.15809953658E+03  0.23543501969E+01  0.23595752163E+03  0.17431342496E+03 0.  0.
        -24    2    3    3    0    0  0.52723471148E+01 -0.82261429258E+02 -0.63961999642E+02  0.13266938086E+03  0.81946853708E+02 0.  0.
          6    2    1    2  501    0  0.17022792369E+02  0.15809953658E+03  0.69745955929E+02  0.24494576714E+03  0.17276773873E+03 0.  0.
         24    2    5    5    0    0  0.41654482203E+02  0.17689120889E+03  0.76356963150E+02  0.21292011322E+03  0.80492192927E+02 0.  0.
          5    1    5    5  501    0 -0.24631689834E+02 -0.18791672315E+02 -0.66110072211E+01  0.32025653920E+02  0.47000000000E+01 0. -1.
        -13    1    6    6    0    0 -0.13316208140E+01  0.44365577984E+02  0.57024322284E+02  0.72262376489E+02  0.00000000000E+00 0.  1.
         14    1    6    6    0    0  0.42986103018E+02  0.13252563091E+03  0.19332640867E+02  0.14065773674E+03  0.00000000000E+00 0. -1.
         -5    1    3    3    0  503 -0.22295139484E+02 -0.75838107321E+02  0.66316349839E+02  0.10328814076E+03  0.47000000000E+01 0.  1.
         13    1    4    4    0    0  0.41402086928E+01  0.10084255334E+02  0.96578887202E+01  0.14563939995E+02  0.00000000000E+00 0. -1.
        -14    1    4    4    0    0  0.11321384220E+01 -0.92345684592E+02 -0.73619888362E+02  0.11810544087E+03  0.00000000000E+00 0.  1.
</event>
<event>
12    1  0.1627564E-001  0.2010961E+03  0.7818608E-02  0.1149588E+00
         21   -1    0    0  501  502  0.00000000000E+00  0.00000000000E+00  0.16262725302E+03  0.16262725302E+03  0.00000000000E+00 0.  1.
         21   -1    0    0  502  503 -0.00000000000E+00 -0.00000000000E+00 -0.44020511714E+03  0.44020511714E+03  0.00000000000E+00 0. -1.
         -6    2    1    2    0  503 -0.56360024422E+02 -0.76134313194E+02 -0.34062683167E+03  0.39555820657E+03  0.17738875480E+03 0.  0.
        -24    2    3    3    0    0 -0.73316494481E+02 -0.83401787829E+02 -0.34897752545E+03  0.37476969649E+03  0.79598024885E+02 0.  0.
          6    2    1    2  501    0  0.56360024422E+02  0.76134313194E+02  0.63048967555E+02  0.20727416359E+03  0.17324699300E+03 0.  0.
         24    2    5    5    0    0  0.69981659818E+02  0.55606814229E+02  0.10536433212E+03  0.15808466021E+03  0.76808637615E+02 0.  0.
          5    1    5    5  501    0 -0.13621635396E+02  0.20527498965E+02 -0.42315364564E+02  0.49189503380E+02  0.47000000000E+01 0. -1.
        -11    1    6    6    0    0  0.11179554839E+02  0.21080078700E+02  0.82938031792E+02  0.86302197434E+02  0.00000000000E+00 0.  1.
         12    1    6    6    0    0  0.58802104979E+02  0.34526735529E+02  0.22426300326E+02  0.71782462779E+02  0.00000000000E+00 0. -1.
         -5    1    3    3    0  503  0.16956470059E+02  0.72674746348E+01  0.83506937808E+01  0.20788510073E+02  0.47000000000E+01 0.  1.
         13    1    4    4    0    0 -0.62179707906E+02 -0.60213707627E+02 -0.33393515252E+03  0.34497056795E+03  0.00000000000E+00 0. -1.
        -14    1    4    4    0    0 -0.11136786575E+02 -0.23188080202E+02 -0.15042372924E+02  0.29799128542E+02  0.00000000000E+00 0.  1.
</event>
<event>
12    1  0.1627564E-001  0.3231874E+03  0.7818608E-02  0.1074857E+00
         21   -1    0    0  501  502  0.00000000000E+00  0.00000000000E+00  0.51825678486E+03  0.51825678486E+03  0.00000000000E+00 0. -1.
         21   -1    0    0  502  503 -0.00000000000E+00 -0.00000000000E+00 -0.22248991706E+03  0.22248991706E+03  0.00000000000E+00 0.  1.
         -6    2    1    2    0  503  0.24233369687E+03  0.12691124555E+03  0.27209596774E+03  0.42247636791E+03  0.17209875334E+03 0.  0.
        -24    2    3    3    0    0  0.13242028148E+03  0.14400022035E+03  0.19106030166E+03  0.28477429415E+03  0.79505756581E+02 0.  0.
          6    2    1    2  501    0 -0.24233369687E+03 -0.12691124555E+03  0.23670900064E+02  0.31827033402E+03  0.16094598201E+03 0.  0.
         24    2    5    5    0    0 -0.20256340538E+03 -0.40892888051E+02  0.29503981168E+02  0.22320746668E+03  0.79037502398E+02 0.  0.
          5    1    5    5  501    0 -0.39770291481E+02 -0.86018357495E+02 -0.58330811044E+01  0.95062867335E+02  0.47000000000E+01 0. -1.
        -11    1    6    6    0    0 -0.95154889143E+02  0.20290336652E+01 -0.20227701952E+02  0.97302260158E+02  0.00000000000E+00 0.  1.
         12    1    6    6    0    0 -0.10740851624E+03 -0.42921921716E+02  0.49731683120E+02  0.12590520653E+03  0.00000000000E+00 0. -1.
         -5    1    3    3    0  503  0.10991341539E+03 -0.17088974803E+02  0.81035666079E+02  0.13770207376E+03  0.47000000000E+01 0.  1.
         13    1    4    4    0    0  0.89241893638E+02  0.39487677698E+02  0.98308724191E+02  0.13852074762E+03  0.00000000000E+00 0. -1.
        -14    1    4    4    0    0  0.43178387841E+02  0.10451254265E+03  0.92751577465E+02  0.14625354652E+03  0.00000000000E+00 0.  1.
</event>
<event>
12    1  0.1627564E-001  0.2082170E+03  0.7818608E-02  0.1143401E+00
         21   -1    0    0  501  502  0.00000000000E+00  0.00000000000E+00  0.36877825114E+03  0.36877825114E+03  0.00000000000E+00 0.  1.
         21   -1    0    0  502  503 -0.00000000000E+00 -0.00000000000E+00 -0.13841361851E+03  0.13841361851E+03  0.00000000000E+00 0.  1.
         -6    2    1    2    0  503  0.73445301640E+02 -0.90741644154E+02  0.13567608118E+02  0.20660031024E+03  0.16991571406E+03 0.  0.
        -24    2    3    3    0    0  0.55059588915E+02 -0.10745037291E+02  0.56827880269E+02  0.11369695891E+03  0.80935630794E+02 0.  0.
          6    2    1    2  501    0 -0.73445301640E+02  0.90741644154E+02  0.21679702451E+03  0.30059155941E+03  0.17241252111E+03 0.  0.
         24    2    5    5    0    0 -0.81869238560E+02  0.82788526131E+02  0.23753514341E+03  0.27637639113E+03  0.80027826034E+02 0.  0.
          5    1    5    5  501    0  0.84239369198E+01  0.79531180228E+01 -0.20738118896E+02  0.24215168281E+02  0.47000000000E+01 0. -1.
        -11    1    6    6    0    0 -0.41312535126E+02  0.80143059312E+02  0.10840379719E+03  0.14100006652E+03  0.00000000000E+00 0.  1.
         12    1    6    6    0    0 -0.40556703434E+02  0.26454668192E+01  0.12913134622E+03  0.13537632461E+03  0.00000000000E+00 0. -1.
         -5    1    3    3    0  503  0.18385712725E+02 -0.79996606862E+02 -0.43260272152E+02  0.92903351331E+02  0.47000000000E+01 0.  1.
         11    1    4    4    0    0 -0.19630659816E+02 -0.13317942829E+02  0.14674353581E+02  0.27893853428E+02  0.00000000000E+00 0. -1.
        -12    1    4    4    0    0  0.74690248732E+02  0.25729055379E+01  0.42153526688E+02  0.85803105484E+02  0.00000000000E+00 0.  1.
</event>
<event>
12    1  0.1627564E-001  0.2210293E+03  0.7818608E-02  0.1133249E+00
         21   -1    0    0  503  502  0.00000000000E+00  0.00000000000E+00  0.31160193205E+04  0.31160193205E+04  0.00000000000E+00 0. -1.
         21   -1    0    0  501  503 -0.00000000000E+00 -0.00000000000E+00 -0.25176542655E+02  0.25176542655E+02  0.00000000000E+00 0. -1.
          6    2    1    2  501    0 -0.88809700344E+02  0.10627186704E+03  0.57664750019E+03  0.61730365782E+03  0.17134933290E+03 0.  0.
         24    2    3    3    0    0 -0.83755313860E+02  0.81706516951E+02  0.57442872262E+03  0.59169084419E+03  0.80242072634E+02 0.  0.
         -6    2    1    2    0  502  0.88809700344E+02 -0.10627186704E+03  0.25141952777E+04  0.25238922053E+04  0.17225880923E+03 0.  0.
        -24    2    5    5    0    0  0.61380925746E+02 -0.20274537630E+01  0.16273653486E+04  0.16305229376E+04  0.80717679334E+02 0.  0.
          5    1    3    3  501    0 -0.50543864844E+01  0.24565350094E+02  0.22187775689E+01  0.25612813627E+02  0.47000000000E+01 0. -1.
        -13    1    4    4    0    0 -0.14625706604E+02 -0.16214562650E+02  0.99749060551E+02  0.10211120613E+03  0.00000000000E+00 0.  1.
         14    1    4    4    0    0 -0.69129607255E+02  0.97921079601E+02  0.47467966207E+03  0.48957963807E+03  0.00000000000E+00 0. -1.
         -5    1    5    5    0  502  0.27428774598E+02 -0.10424441328E+03  0.88682992908E+03  0.89336926771E+03  0.47000000000E+01 0.  1.
         13    1    6    6    0    0  0.55631158333E+02 -0.22854120531E+02  0.61648673235E+03  0.61941345463E+03  0.00000000000E+00 0. -1.
        -14    1    6    6    0    0  0.57497674131E+01  0.20826666768E+02  0.10108786162E+04  0.10111094830E+04  0.00000000000E+00 0.  1.
</event>
<event>
12    1  0.1627564E-001  0.1866980E+03  0.7818608E-02  0.1161479E+00
         21   -1    0    0  501  502  0.00000000000E+00  0.00000000000E+00  0.85008677626E+03  0.85008677626E+03  0.00000000000E+00 0. -1.
         21   -1    0    0  502  503 -0.00000000000E+00 -0.00000000000E+00 -0.47159160518E+02  0.47159160518E+02  0.00000000000E+00 0. -1.
         -6    2    1    2    0  503  0.43659669663E+02  0.57778297578E+02  0.23929179673E+03  0.30349390452E+03  0.17205664088E+03 0.  0.
        -24    2    3    3    0    0 -0.30790410037E+02 -0.82476036117E+01  0.96657554879E+02  0.12951444900E+03  0.80095176311E+02 0.  0.
          6    2    1    2  501    0 -0.43659669663E+02 -0.57778297578E+02  0.56363581902E+03  0.59375203227E+03  0.17208033272E+03 0.  0.
         24    2    5    5    0    0 -0.70758856200E+00  0.30658556412E+02  0.30376017734E+03  0.31586105085E+03  0.80978456037E+02 0.  0.
          5    1    5    5  501    0 -0.42952081101E+02 -0.88436853990E+02  0.25987564168E+03  0.27789098142E+03  0.47000000000E+01 0. -1.
        -13    1    6    6    0    0  0.13164658792E+02  0.44493864862E+02  0.28494207224E+03  0.28869533558E+03  0.00000000000E+00 0.  1.
         14    1    6    6    0    0 -0.13872247354E+02 -0.13835308451E+02  0.18818105098E+02  0.27165715269E+02  0.00000000000E+00 0. -1.
         -5    1    3    3    0  503  0.74450079700E+02  0.66025901190E+02  0.14263424185E+03  0.17397945552E+03  0.47000000000E+01 0.  1.
         11    1    4    4    0    0  0.14001867393E+02 -0.21197934023E+02  0.72867592669E+02  0.77169234535E+02  0.00000000000E+00 0. -1.
        -12    1    4    4    0    0 -0.44792277430E+02  0.12950330412E+02  0.23789962210E+02  0.52345214463E+02  0.00000000000E+00 0.  1.
</event>
<event>
12    1  0.1627564E-001  0.2273204E+03  0.7818608E-02  0.1131359E+00
         21   -1    0    0  501  502  0.00000000000E+00  0.00000000000E+00  0.81467735622E+03  0.81467735622E+03  0.00000000000E+00 0.  1.
         21   -1    0    0  502  503 -0.00000000000E+00 -0.00000000000E+00 -0.10446599519E+03  0.10446599519E+03  0.00000000000E+00 0. -1.
         -6    2    1    2    0  503 -0.40458169971E+01  0.14862938944E+03  0.45912875833E+02  0.21702723772E+03  0.15128042075E+03 0.  0.
        -24    2    3    3    0    0  0.14016489146E+02  0.14724500199E+03  0.73767114928E+02  0.18346964443E+03  0.79636490402E+02 0.  0.
          6    2    1    2  501    0  0.40458169971E+01 -0.14862938944E+03  0.66429848519E+03  0.70211611369E+03  0.17195201551E+03 0.  0.
         24    2    5    5    0    0  0.49210108120E+00 -0.85389455338E+02  0.60216632617E+03  0.61326560245E+03  0.78732544337E+02 0.  0.
          5    1    5    5  501    0  0.35537159159E+01 -0.63239934105E+02  0.62132159024E+02  0.88850511238E+02  0.47000000000E+01 0. -1.
        -11    1    6    6    0    0 -0.28312100979E+02 -0.66081116035E+02  0.50511210816E+03  0.51020244096E+03  0.00000000000E+00 0.  1.
         12    1    6    6    0    0  0.28804202060E+02 -0.19308339303E+02  0.97054218012E+02  0.10306316149E+03  0.00000000000E+00 0. -1.
         -5    1    3    3    0  503 -0.18062306143E+02  0.13843874535E+01 -0.27854239095E+02  0.33557593290E+02  0.47000000000E+01 0.  1.
         13    1    4    4    0    0 -0.98437671144E+01  0.90763598698E+02  0.80589466037E+02  0.12177681485E+03  0.00000000000E+00 0. -1.
        -14    1    4    4    0    0  0.23860256260E+02  0.56481403291E+02 -0.68223511087E+01  0.61692829577E+02  0.00000000000E+00 0.  1.
</event>
<event>
12    1  0.1627564E-001  0.1959725E+03  0.7818608E-02  0.1153438E+00
         21   -1    0    0  503  502  0.00000000000E+00  0.00000000000E+00  0.23386206764E+02  0.23386206764E+02  0.00000000000E+00 0. -1.
         21   -1    0    0  501  503 -0.00000000000E+00 -0.00000000000E+00 -0.16949133361E+04  0.16949133361E+04  0.00000000000E+00 0. -1.
          6    2    1    2  501    0 -0.29570031961E+02 -0.89593616778E+02 -0.10032078316E+04  0.10221698411E+04  0.17176678244E+03 0.  0.
         24    2    3    3    0    0 -0.15054162625E+02 -0.94860064031E+02 -0.99725304793E+03  0.10049653248E+04  0.78845437252E+02 0.  0.
         -6    2    1    2    0  502  0.29570031961E+02  0.89593616778E+02 -0.66831929767E+03  0.69612970178E+03  0.17042439704E+03 0.  0.
        -24    2    5    5    0    0 -0.30472764267E+02  0.74436696737E+02 -0.56181827941E+03  0.57284374762E+03  0.77722383643E+02 0.  0.
          5    1    3    3  501    0 -0.14515869336E+02  0.52664472532E+01 -0.59547837161E+01  0.17204516220E+02  0.47000000000E+01 0. -1.
        -13    1    4    4    0    0 -0.45462357631E+02 -0.37851840374E+02 -0.43201963531E+03  0.43605108998E+03  0.00000000000E+00 0.  1.
         14    1    4    4    0    0  0.30408195006E+02 -0.57008223657E+02 -0.56523341262E+03  0.56891423486E+03  0.00000000000E+00 0. -1.
         -5    1    5    5    0  502  0.60042796228E+02  0.15156920040E+02 -0.10650101826E+03  0.12328595416E+03  0.47000000000E+01 0.  1.
         13    1    6    6    0    0 -0.25028075022E+02  0.81638389469E+02 -0.55499966581E+03  0.56152992817E+03  0.00000000000E+00 0. -1.
        -14    1    6    6    0    0 -0.54446892443E+01 -0.72016927319E+01 -0.68186136030E+01  0.11313819454E+02  0.00000000000E+00 0.  1.
</event>
<event>
12    1  0.1627564E-001  0.3566935E+03  0.7818608E-02  0.1059943E+00
         21   -1    0    0  501  502  0.00000000000E+00  0.00000000000E+00  0.50105964399E+03  0.50105964399E+03  0.00000000000E+00 0. -1.
         21   -1    0    0  502  503 -0.00000000000E+00 -0.00000000000E+00 -0.26012959142E+03  0.26012959142E+03  0.00000000000E+00 0.  1.
         -6    2    1    2    0  503  0.19430483636E+03  0.24507179751E+03  0.60336114615E+02  0.36176060096E+03  0.17151014638E+03 0.  0.
        -24    2    3    3    0    0  0.94386408280E+02  0.58786357756E+02  0.62129071698E+02  0.15031022373E+03  0.79802956597E+02 0.  0.
          6    2    1    2  501    0 -0.19430483636E+03 -0.24507179751E+03  0.18059393796E+03  0.39942863446E+03  0.17062974017E+03 0.  0.
         24    2    5    5    0    0 -0.77857879378E+02 -0.17760753006E+03  0.15803255962E+03  0.26289136129E+03  0.80816420509E+02 0.  0.
          5    1    5    5  501    0 -0.11644695698E+03 -0.67464267448E+02  0.22561378337E+02  0.13653727317E+03  0.47000000000E+01 0. -1.
        -11    1    6    6    0    0  0.11028440605E+02 -0.10712741114E+02 -0.15623438956E+01  0.15454133519E+02  0.00000000000E+00 0.  1.
         12    1    6    6    0    0 -0.88886319983E+02 -0.16689478895E+03  0.15959490352E+03  0.24743722777E+03  0.00000000000E+00 0. -1.
         -5    1    3    3    0  503  0.99918428075E+02  0.18628543976E+03 -0.17929570829E+01  0.21145037723E+03  0.47000000000E+01 0.  1.
         13    1    4    4    0    0  0.79691218002E+02  0.59767120499E+02  0.14755601135E+02  0.10070018215E+03  0.00000000000E+00 0. -1.
        -14    1    4    4    0    0  0.14695190279E+02 -0.98076274244E+00  0.47373470563E+02  0.49610041585E+02  0.00000000000E+00 0.  1.
</event>
<event>
12    1  0.1627564E-001  0.2027472E+03  0.7818608E-02  0.1147486E+00
         21   -1    0    0  503  502  0.00000000000E+00  0.00000000000E+00  0.14367284560E+04  0.14367284560E+04  0.00000000000E+00 0. -1.
         21   -1    0    0  501  503 -0.00000000000E+00 -0.00000000000E+00 -0.35325917598E+02  0.35325917598E+02  0.00000000000E+00 0. -1.
          6    2    1    2  501    0 -0.37628255706E+02  0.10019905017E+03  0.37879803016E+03  0.42954470260E+03  0.17194466727E+03 0.  0.
         24    2    3    3    0    0  0.34757050174E+02  0.74177427752E+02  0.14542459535E+03  0.18377650406E+03  0.76909994067E+02 0.  0.
         -6    2    1    2    0  502  0.37628255706E+02 -0.10019905017E+03  0.10226045083E+04  0.10425096710E+04  0.17219378198E+03 0.  0.
        -24    2    5    5    0    0 -0.28237454867E+02 -0.10190983712E+03  0.55680394618E+03  0.57204875631E+03  0.77628450728E+02 0.  0.
          5    1    3    3  501    0 -0.72385305880E+02  0.26021622418E+02  0.23337343481E+03  0.24576819855E+03  0.47000000000E+01 0. -1.
        -13    1    4    4    0    0  0.13613453900E+02 -0.14433972792E+02  0.15912053666E+02  0.25433425831E+02  0.00000000000E+00 0.  1.
         14    1    4    4    0    0  0.21143596274E+02  0.88611400544E+02  0.12951254168E+03  0.15834307823E+03  0.00000000000E+00 0. -1.
         -5    1    5    5    0  502  0.65865710573E+02  0.17107869462E+01  0.46580056207E+03  0.47046091469E+03  0.47000000000E+01 0.  1.
         11    1    6    6    0    0  0.11012881063E+02 -0.70984436710E+02  0.21675634909E+03  0.22834926905E+03  0.00000000000E+00 0. -1.
        -12    1    6    6    0    0 -0.39250335930E+02 -0.30925400407E+02  0.34004759709E+03  0.34369948727E+03  0.00000000000E+00 0.  1.
</event>
<event>
12    1  0.1627564E-001  0.1762172E+03  0.7818608E-02  0.1171771E+00
         21   -1    0    0  501  502  0.00000000000E+00  0.00000000000E+00  0.15915514030E+03  0.15915514030E+03  0.00000000000E+00 0.  1.
         21   -1    0    0  502  503 -0.00000000000E+00 -0.00000000000E+00 -0.20400800167E+03  0.20400800167E+03  0.00000000000E+00 0.  1.
         -6    2    1    2    0  503 -0.24434871192E+02  0.25332762112E+02 -0.62629392579E+02  0.18605153889E+03  0.17162145129E+03 0.  0.
        -24    2    3    3    0    0 -0.69848382683E+01 -0.51713137386E+02 -0.37557627122E+02  0.10303793939E+03  0.80518352288E+02 0.  0.
          6    2    1    2  501    0  0.24434871192E+02 -0.25332762112E+02  0.17776531209E+02  0.17711160307E+03  0.17266645046E+03 0.  0.
         24    2    5    5    0    0 -0.28957952319E+02 -0.55061923949E+02 -0.25226897709E+02  0.10223836644E+03  0.77109718791E+02 0.  0.
          5    1    5    5  501    0  0.53392823511E+02  0.29729161837E+02  0.43003428918E+02  0.74873236638E+02  0.47000000000E+01 0. -1.
        -13    1    6    6    0    0  0.14619831561E+02 -0.37410153338E+02 -0.36073184687E+02  0.53986421452E+02  0.00000000000E+00 0.  1.
         14    1    6    6    0    0 -0.43577783880E+02 -0.17651770610E+02  0.10846286978E+02  0.48251944985E+02  0.00000000000E+00 0. -1.
         -5    1    3    3    0  503 -0.17450032924E+02  0.77045899497E+02 -0.25071765458E+02  0.83013599498E+02  0.47000000000E+01 0.  1.
         11    1    4    4    0    0 -0.34643181413E+02 -0.11907211984E+02  0.68874865434E+01  0.37274242937E+02  0.00000000000E+00 0. -1.
        -12    1    4    4    0    0  0.27658343145E+02 -0.39805925402E+02 -0.44445113665E+02  0.65763696454E+02  0.00000000000E+00 0.  1.
</event>
<event>
12    1  0.1627564E-001  0.1967783E+03  0.7818608E-02  0.1152856E+00
         21   -1    0    0  501  502  0.00000000000E+00  0.00000000000E+00  0.32882806299E+03  0.32882806299E+03  0.00000000000E+00 0.  1.
         21   -1    0    0  502  503 -0.00000000000E+00 -0.00000000000E+00 -0.17630579730E+03  0.17630579730E+03  0.00000000000E+00 0.  1.
         -6    2    1    2    0  503  0.19371968761E+02 -0.90011006693E+02 -0.70327617180E+02  0.20896810446E+03  0.17390928797E+03 0.  0.
        -24    2    3    3    0    0 -0.89315622274E+01 -0.12614941628E+03 -0.45868771677E+02  0.15674359262E+03  0.80443530373E+02 0.  0.
          6    2    1    2  501    0 -0.19371968761E+02  0.90011006693E+02  0.22284988287E+03  0.29616575583E+03  0.17197334134E+03 0.  0.
         24    2    5    5    0    0 -0.19039942405E+02  0.88534352304E+02  0.24554460211E+03  0.27294010125E+03  0.77480941522E+02 0.  0.
          5    1    5    5  501    0 -0.33202635621E+00  0.14766543891E+01 -0.22694719235E+02  0.23225654584E+02  0.47000000000E+01 0. -1.
        -13    1    6    6    0    0 -0.15749948998E+02  0.10469540070E+02  0.14184190804E+03  0.14309716643E+03  0.00000000000E+00 0.  1.
         14    1    6    6    0    0 -0.32899934071E+01  0.78064812233E+02  0.10370269407E+03  0.12984293482E+03  0.00000000000E+00 0. -1.
         -5    1    3    3    0  503  0.28303530988E+02  0.36138409588E+02 -0.24458845503E+02  0.52224511843E+02  0.47000000000E+01 0.  1.
         11    1    4    4    0    0  0.83510028012E+01 -0.15860906650E+02  0.20213500951E+02  0.27016536200E+02  0.00000000000E+00 0. -1.
        -12    1    4    4    0    0 -0.17282565029E+02 -0.11028850963E+03 -0.66082272628E+02  0.12972705642E+03  0.00000000000E+00 0.  1.
</event>
<event>
12    1  0.1627564E-001  0.1828928E+03  0.7818608E-02  0.1165851E+00
         21   -1    0    0  501  502  0.00000000000E+00  0.00000000000E+00  0.16718376114E+04  0.16718376114E+04  0.00000000000E+00 0. -1.
         21   -1    0    0  502  503 -0.00000000000E+00 -0.00000000000E+00 -0.20590016604E+02  0.20590016604E+02  0.00000000000E+00 0. -1.
         -6    2    1    2    0  503  0.41773812494E+02  0.39947120267E+02  0.63598781380E+03  0.66082585556E+03  0.16991023585E+03 0.  0.
        -24    2    3    3    0    0  0.30475817102E+01 -0.21370265906E+01  0.55240947125E+03  0.55944427088E+03  0.88361833756E+02 0.  0.
          6    2    1    2  501    0 -0.41773812494E+02 -0.39947120267E+02  0.10152597810E+04  0.10316017725E+04  0.17351936541E+03 0.  0.
         24    2    5    5    0    0 -0.20811610485E+02  0.43358792631E+02  0.65759439181E+03  0.66373507151E+03  0.76162674436E+02 0.  0.
          5    1    5    5  501    0 -0.20962202010E+02 -0.83305912898E+02  0.35766538919E+03  0.36786670094E+03  0.47000000000E+01 0. -1.
        -13    1    6    6    0    0 -0.11800486294E+02  0.49699442945E+02  0.21430222810E+03  0.22030599419E+03  0.00000000000E+00 0.  1.
         14    1    6    6    0    0 -0.90111241907E+01 -0.63406503137E+01  0.44329216371E+03  0.44342907732E+03  0.00000000000E+00 0. -1.
         -5    1    3    3    0  503  0.38726230784E+02  0.42084146858E+02  0.83578342549E+02  0.10138158467E+03  0.47000000000E+01 0.  1.
         11    1    4    4    0    0  0.50217343428E+01  0.23927487470E+02  0.43784160451E+02  0.50147733536E+02  0.00000000000E+00 0. -1.
        -12    1    4    4    0    0 -0.19741526326E+01 -0.26064514061E+02  0.50862531080E+03  0.50929653735E+03  0.00000000000E+00 0.  1.
</event>
<event>
12    1  0.1627564E-001  0.2181193E+03  0.7818608E-02  0.1135368E+00
         21   -1    0    0  501  502  0.00000000000E+00  0.00000000000E+00  0.71331680365E+03  0.71331680365E+03  0.00000000000E+00 0.  1.
         21   -1    0    0  502  503 -0.00000000000E+00 -0.00000000000E+00 -0.10343576326E+03  0.10343576326E+03  0.00000000000E+00 0. -1.
         -6    2    1    2    0  503  0.11619913566E+03 -0.67640452204E+02  0.60975085103E+02  0.22609718537E+03  0.17124399647E+03 0.  0.
        -24    2    3    3    0    0  0.94359102622E+02 -0.10048478905E+03  0.79279332861E+01  0.15982631830E+03  0.80503209982E+02 0.  0.
          6    2    1    2  501    0 -0.11619913566E+03  0.67640452204E+02  0.54890595529E+03  0.59065538154E+03  0.17175145440E+03 0.  0.
         24    2    5    5    0    0 -0.10572925391E+02  0.78743961602E+02  0.29566982488E+03  0.31600867764E+03  0.78284358345E+02 0.  0.
          5    1    5    5  501    0 -0.10562621027E+03 -0.11103509398E+02  0.25323613041E+03  0.27464670390E+03  0.47000000000E+01 0. -1.
        -13    1    6    6    0    0 -0.43275323955E+02  0.33176674813E+02  0.16605355047E+03  0.17477765028E+03  0.00000000000E+00 0.  1.
         14    1    6    6    0    0  0.32702398564E+02  0.45567286790E+02  0.12961627441E+03  0.14123102736E+03  0.00000000000E+00 0. -1.
         -5    1    3    3    0  503  0.21840033036E+02  0.32844336846E+02  0.53047151817E+02  0.66270867067E+02  0.47000000000E+01 0.  1.
         13    1    4    4    0    0  0.40783023531E+02 -0.94795677863E+02 -0.83773834856E+01  0.10353577210E+03  0.00000000000E+00 0. -1.
        -14    1    4    4    0    0  0.53576079091E+02 -0.56891111874E+01  0.16305316772E+02  0.56290546204E+02  0.00000000000E+00 0.  1.
</event>
<event>
12    1  0.1627564E-001  0.2043014E+03  0.7818608E-02  0.1147275E+00
         21   -1    0    0  501  502  0.00000000000E+00  0.00000000000E+00  0.36736498878E+02  0.36736498878E+02  0.00000000000E+00 0.  1.
         21   -1    0    0  502  503 -0.00000000000E+00 -0.00000000000E+00 -0.21538184980E+04  0.21538184980E+04  0.00000000000E+00 0.  1.
         -6    2    1    2    0  503  0.10409941200E+03  0.12920690714E+02 -0.18294692349E+04  0.18408413185E+04  0.17531527761E+03 0.  0.
        -24    2    3    3    0    0  0.31371669167E+02 -0.40544653863E+02 -0.13203730305E+04  0.13237833885E+04  0.79934156358E+02 0.  0.
          6    2    1    2  501    0 -0.10409941200E+03 -0.12920690714E+02 -0.28761276416E+03  0.34971367833E+03  0.16904118693E+03 0.  0.
         24    2    5    5    0    0 -0.40985076435E+02 -0.14871362029E+02 -0.26860438691E+03  0.28360291614E+03  0.79883436826E+02 0.  0.
          5    1    5    5  501    0 -0.63114335561E+02  0.19506713145E+01 -0.19008377254E+02  0.66110762193E+02  0.47000000000E+01 0. -1.
        -13    1    6    6    0    0  0.89371874773E+01 -0.12503641479E+02 -0.63510682221E+01  0.16629805705E+02  0.00000000000E+00 0.  1.
         14    1    6    6    0    0 -0.49922263912E+02 -0.23677205502E+01 -0.26225331868E+03  0.26697311044E+03  0.00000000000E+00 0. -1.
         -5    1    3    3    0  503  0.72727742828E+02  0.53465344578E+02 -0.50909620441E+03  0.51705793001E+03  0.47000000000E+01 0.  1.
         13    1    4    4    0    0 -0.25265707462E+02 -0.43407782241E+01 -0.50208589290E+03  0.50273993493E+03  0.00000000000E+00 0. -1.
        -14    1    4    4    0    0  0.56637376630E+02 -0.36203875639E+02 -0.81828713765E+03  0.82104345359E+03  0.00000000000E+00 0.  1.
</event>
<event>
12    1  0.1627564E-001  0.1942919E+03  0.7818608E-02  0.1155335E+00
         21   -1    0    0  501  502  0.00000000000E+00  0.00000000000E+00  0.98192708372E+02  0.98192708372E+02  0.00000000000E+00 0.  1.
         21   -1    0    0  502  503 -0.00000000000E+00 -0.00000000000E+00 -0.38884562702E+03  0.38884562702E+03  0.00000000000E+00 0. -1.
         -6    2    1    2    0  503 -0.39005253735E+02  0.75360973297E+02 -0.10408469213E+03  0.21767419418E+03  0.17131183719E+03 0.  0.
        -24    2    3    3    0    0 -0.16567241978E+02 -0.22691043572E+02 -0.25809646154E+02  0.90133082354E+02  0.81660747823E+02 0.  0.
          6    2    1    2  501    0  0.39005253735E+02 -0.75360973297E+02 -0.18656822652E+03  0.26936414121E+03  0.17478172476E+03 0.  0.
         24    2    5    5    0    0  0.80357482876E+02 -0.40154666384E+02 -0.67052217025E+02  0.13800335015E+03  0.80493493894E+02 0.  0.
          5    1    5    5  501    0 -0.41352229141E+02 -0.35206306913E+02 -0.11951600949E+03  0.13136079106E+03  0.47000000000E+01 0. -1.
        -11    1    6    6    0    0  0.23638429229E+02 -0.55186482110E+02 -0.21681184396E+02  0.63831002663E+02  0.00000000000E+00 0.  1.
         12    1    6    6    0    0  0.56719053648E+02  0.15031815726E+02 -0.45371032629E+02  0.74172347492E+02  0.00000000000E+00 0. -1.
         -5    1    3    3    0  503 -0.22438011757E+02  0.98052016869E+02 -0.78275045975E+02  0.12754111183E+03  0.47000000000E+01 0.  1.
         11    1    4    4    0    0  0.13703970850E+02 -0.18652757224E+02 -0.47388699942E+02  0.52739103626E+02  0.00000000000E+00 0. -1.
        -12    1    4    4    0    0 -0.30271212828E+02 -0.40382863486E+01  0.21579053788E+02  0.37393978728E+02  0.00000000000E+00 0.  1.
</event>
<event>
12    1  0.1627564E-001  0.1890012E+03  0.7818608E-02  0.1160256E+00
         21   -1    0    0  501  502  0.00000000000E+00  0.00000000000E+00  0.18343096407E+03  0.18343096407E+03  0.00000000000E+00 0.  1.
         21   -1    0    0  502  503 -0.00000000000E+00 -0.00000000000E+00 -0.20363263068E+03  0.20363263068E+03  0.00000000000E+00 0.  1.
         -6    2    1    2    0  503  0.66935349446E+02 -0.16500457346E+02  0.38644055337E+02  0.18911342781E+03  0.17180779804E+03 0.  0.
        -24    2    3    3    0    0  0.49343584910E+02 -0.33026366175E+02  0.88647012075E+02  0.13339124619E+03  0.80058738289E+02 0.  0.
          6    2    1    2  501    0 -0.66935349446E+02  0.16500457346E+02 -0.58845721942E+02  0.19795016694E+03  0.17597966786E+03 0.  0.
         24    2    5    5    0    0 -0.99290580921E+02 -0.30577631384E+02 -0.46257359682E+02  0.13926657207E+03  0.80385469898E+02 0.  0.
          5    1    5    5  501    0  0.32355231475E+02  0.47078088730E+02 -0.12588362260E+02  0.58683594868E+02  0.47000000000E+01 0. -1.
        -13    1    6    6    0    0 -0.90611786199E+02  0.75039557861E+01 -0.22915598483E+02  0.93765291043E+02  0.00000000000E+00 0.  1.
         14    1    6    6    0    0 -0.86787947220E+01 -0.38081587170E+02 -0.23341761199E+02  0.45501281027E+02  0.00000000000E+00 0. -1.
         -5    1    3    3    0  503  0.17591764536E+02  0.16525908829E+02 -0.50002956738E+02  0.55722181622E+02  0.47000000000E+01 0.  1.
         13    1    4    4    0    0 -0.19765375099E+01 -0.37390997047E+02  0.68539007862E+02  0.78099865297E+02  0.00000000000E+00 0. -1.
        -14    1    4    4    0    0  0.51320122420E+02  0.43646308720E+01  0.20108004212E+02  0.55291380895E+02  0.00000000000E+00 0.  1.
</event>
<event>
12    1  0.1627564E-001  0.1885776E+03  0.7818608E-02  0.1160131E+00
         21   -1    0    0  501  502  0.00000000000E+00  0.00000000000E+00  0.24949749362E+03  0.24949749362E+03  0.00000000000E+00 0. -1.
         21   -1    0    0  502  503 -0.00000000000E+00 -0.00000000000E+00 -0.14398674519E+03  0.14398674519E+03  0.00000000000E+00 0. -1.
         -6    2    1    2    0  503  0.60988030878E+02  0.48022323258E+02  0.79514768354E+02  0.20312325113E+03  0.17003168329E+03 0.  0.
        -24    2    3    3    0    0  0.81158212487E+02  0.18291519117E+02  0.10799877953E+03  0.15703436056E+03  0.77941124513E+02 0.  0.
          6    2    1    2  501    0 -0.60988030878E+02 -0.48022323258E+02  0.25995980072E+02  0.19036098768E+03  0.17185991740E+03 0.  0.
         24    2    5    5    0    0 -0.46651485478E+02 -0.34713002608E+01 -0.47738749166E+02  0.10290110842E+03  0.78238346857E+02 0.  0.
          5    1    5    5  501    0 -0.14336545400E+02 -0.44551022997E+02  0.73734729238E+02  0.87459879258E+02  0.47000000000E+01 0. -1.
        -11    1    6    6    0    0  0.12646830837E+02 -0.25041117381E+02 -0.14233918325E+02  0.31457977061E+02  0.00000000000E+00 0.  1.
         12    1    6    6    0    0 -0.59298316316E+02  0.21569817120E+02 -0.33504830841E+02  0.71443131357E+02  0.00000000000E+00 0. -1.
         -5    1    3    3    0  503 -0.20170181608E+02  0.29730804140E+02 -0.28484011179E+02  0.46088890568E+02  0.47000000000E+01 0.  1.
         11    1    4    4    0    0  0.72008422486E+02  0.38594971351E+02  0.52189809036E+02  0.96946175220E+02  0.00000000000E+00 0. -1.
        -12    1    4    4    0    0  0.91497900005E+01 -0.20303452233E+02  0.55808970496E+02  0.60088185340E+02  0.00000000000E+00 0.  1.
</event>
<event>
12    1  0.1627564E-001  0.2667717E+03  0.7818608E-02  0.1103220E+00
         21   -1    0    0  503  502  0.00000000000E+00  0.00000000000E+00  0.14567057521E+03  0.14567057521E+03  0.00000000000E+00 0.  1.
         21   -1    0    0  501  503 -0.00000000000E+00 -0.00000000000E+00 -0.51069827498E+03  0.51069827498E+03  0.00000000000E+00 0. -1.
          6    2    1    2  501    0  0.54814887780E+02 -0.19616052691E+03 -0.25218962108E+03  0.36671466478E+03  0.17145383094E+03 0.  0.
         24    2    3    3    0    0  0.69274314067E+02 -0.12721320226E+03 -0.25061185980E+03  0.29609322387E+03  0.62311824994E+02 0.  0.
         -6    2    1    2    0  502 -0.54814887780E+02  0.19616052691E+03 -0.11283807869E+03  0.28965418542E+03  0.17228897495E+03 0.  0.
        -24    2    5    5    0    0 -0.76380807766E+02  0.52739198701E+02 -0.48867132669E+02  0.13106938721E+03  0.78585855809E+02 0.  0.
          5    1    3    3  501    0 -0.14459426287E+02 -0.68947324651E+02 -0.15777612833E+01  0.70621440907E+02  0.47000000000E+01 0. -1.
        -11    1    4    4    0    0  0.55688835867E+02 -0.38413251559E+02 -0.10030990810E+03  0.12099133026E+03  0.00000000000E+00 0.  1.
         12    1    4    4    0    0  0.13585478200E+02 -0.88799950697E+02 -0.15030195169E+03  0.17510189361E+03  0.00000000000E+00 0. -1.
         -5    1    5    5    0  502  0.21565919986E+02  0.14342132821E+03 -0.63970946024E+02  0.15858479821E+03  0.47000000000E+01 0.  1.
         13    1    6    6    0    0  0.14341756739E+01 -0.45267044625E+01 -0.32781927230E+02  0.33124049663E+02  0.00000000000E+00 0. -1.
        -14    1    6    6    0    0 -0.77814983439E+02  0.57265903163E+02 -0.16085205438E+02  0.97945337545E+02  0.00000000000E+00 0.  1.
</event>
<event>
12    1  0.1627564E-001  0.2788962E+03  0.7818608E-02  0.1096635E+00
         21   -1    0    0  503  502  0.00000000000E+00  0.00000000000E+00  0.53984639784E+03  0.53984639784E+03  0.00000000000E+00 0. -1.
         21   -1    0    0  501  503 -0.00000000000E+00 -0.00000000000E+00 -0.20856831646E+03  0.20856831646E+03  0.00000000000E+00 0.  1.
          6    2    1    2  501    0 -0.21794095908E+03  0.16809798949E+02 -0.43976860395E+02  0.28234208095E+03  0.17321159152E+03 0.  0.
         24    2    3    3    0    0 -0.13582671598E+03  0.62016673330E+02 -0.73009708321E+02  0.18410050792E+03  0.79168269931E+02 0.  0.
         -6    2    1    2    0  502  0.21794095908E+03 -0.16809798949E+02  0.37525494177E+03  0.46607263336E+03  0.16919396342E+03 0.  0.
        -24    2    5    5    0    0  0.23991580777E+03 -0.72924336890E+01  0.33651267855E+03  0.42028478371E+03  0.76064066285E+02 0.  0.
          5    1    3    3  501    0 -0.82114243100E+02 -0.45206874380E+02  0.29032847926E+02  0.98241573022E+02  0.47000000000E+01 0. -1.
        -11    1    4    4    0    0 -0.13893469859E+02  0.35336783146E+02 -0.39656420135E+02  0.54903081933E+02  0.00000000000E+00 0.  1.
         12    1    4    4    0    0 -0.12193324612E+03  0.26679890183E+02 -0.33353288186E+02  0.12919742599E+03  0.00000000000E+00 0. -1.
         -5    1    5    5    0  502 -0.21974848695E+02 -0.95173652605E+01  0.38742263220E+02  0.45787849655E+02  0.47000000000E+01 0.  1.
         13    1    6    6    0    0  0.17258755499E+03 -0.13754893002E+02  0.17984217287E+03  0.24963747387E+03  0.00000000000E+00 0. -1.
        -14    1    6    6    0    0  0.67328252787E+02  0.64624593128E+01  0.15667050568E+03  0.17064730983E+03  0.00000000000E+00 0.  1.
</event>
<event>
12    1  0.1627564E-001  0.1934099E+03  0.7818608E-02  0.1155849E+00
         21   -1    0    0  501  502  0.00000000000E+00  0.00000000000E+00  0.16829343085E+03  0.16829343085E+03  0.00000000000E+00 0. -1.
         21   -1    0    0  502  503 -0.00000000000E+00 -0.00000000000E+00 -0.49537891778E+03  0.49537891778E+03  0.00000000000E+00 0. -1.
         -6    2    1    2    0  503  0.59058387324E+01 -0.88771069121E+02 -0.41056093467E+03  0.45301729649E+03  0.16955591467E+03 0.  0.
        -24    2    3    3    0    0  0.41148509430E+02 -0.93481715672E+02 -0.39347211395E+03  0.41328879511E+03  0.74533836003E+02 0.  0.
          6    2    1    2  501    0 -0.59058387324E+01  0.88771069121E+02  0.83475447750E+02  0.21065505214E+03  0.17173298743E+03 0.  0.
         24    2    5    5    0    0 -0.32499957981E+01  0.33832159309E+02 -0.24447125293E+02  0.89433316938E+02  0.79028341544E+02 0.  0.
          5    1    5    5  501    0 -0.26558429343E+01  0.54938909812E+02  0.10792257304E+03  0.12122173520E+03  0.47000000000E+01 0. -1.
        -13    1    6    6    0    0 -0.13175303452E+01  0.48919000155E+02 -0.43207566933E+02  0.65281684282E+02  0.00000000000E+00 0.  1.
         14    1    6    6    0    0 -0.19324654529E+01 -0.15086840845E+02  0.18760441641E+02  0.24151632656E+02  0.00000000000E+00 0. -1.
         -5    1    3    3    0  503 -0.35242670697E+02  0.47106465511E+01 -0.17088820721E+02  0.39728501387E+02  0.47000000000E+01 0.  1.
         13    1    4    4    0    0  0.54474604781E+01 -0.29328946726E+02 -0.29384060951E+02  0.41872245936E+02  0.00000000000E+00 0. -1.
        -14    1    4    4    0    0  0.35701048951E+02 -0.64152768946E+02 -0.36408805300E+03  0.37141654917E+03  0.00000000000E+00 0.  1.
</event>
<event>
12    1  0.1627564E-001  0.1754236E+03  0.7818608E-02  0.1172728E+00
         21   -1    0    0  503  502  0.00000000000E+00  0.00000000000E+00  0.19262557796E+03  0.19262557796E+03  0.00000000000E+00 0. -1.
         21   -1    0    0  501  503 -0.00000000000E+00 -0.00000000000E+00 -0.15862602134E+03  0.15862602134E+03  0.00000000000E+00 0. -1.
          6    2    1    2  501    0 -0.98265956655E+01  0.33124187682E+02  0.83777785830E+01  0.17562352621E+03  0.17198738905E+03 0.  0.
         24    2    3    3    0    0  0.13682130099E+02 -0.44211541984E+02  0.19975225215E+02  0.93830702332E+02  0.79141202601E+02 0.  0.
         -6    2    1    2    0  502  0.98265956655E+01 -0.33124187682E+02  0.25621778037E+02  0.17562807308E+03  0.17027909664E+03 0.  0.
        -24    2    5    5    0    0 -0.39537104688E+02  0.25211077475E+02 -0.72372813910E+01  0.92311893020E+02  0.79185391812E+02 0.  0.
          5    1    3    3  501    0 -0.23508725764E+02  0.77335729666E+02 -0.11597446632E+02  0.81792823881E+02  0.47000000000E+01 0. -1.
        -11    1    4    4    0    0  0.38332578384E+00 -0.18816193815E+02 -0.30467377786E+02  0.35811411554E+02  0.00000000000E+00 0.  1.
         12    1    4    4    0    0  0.13298804315E+02 -0.25395348170E+02  0.50442603001E+02  0.58019290778E+02  0.00000000000E+00 0. -1.
         -5    1    5    5    0  502  0.49363700354E+02 -0.58335265157E+02  0.32859059428E+02  0.83316180062E+02  0.47000000000E+01 0.  1.
         13    1    6    6    0    0 -0.37571195370E+02 -0.15320965144E+02 -0.25382421692E+02  0.47860150704E+02  0.00000000000E+00 0. -1.
        -14    1    6    6    0    0 -0.19659093182E+01  0.40532042620E+02  0.18145140301E+02  0.44451742316E+02  0.00000000000E+00 0.  1.
</event>
<event>
12    1  0.1627564E-001  0.1894282E+03  0.7818608E-02  0.1158990E+00
         21   -1    0    0  503  502  0.00000000000E+00  0.00000000000E+00  0.38869416418E+03  0.38869416418E+03  0.00000000000E+00 0.  1.
         21   -1    0    0  501  503 -0.00000000000E+00 -0.00000000000E+00 -0.13684898379E+03  0.13684898379E+03  0.00000000000E+00 0.  1.
          6    2    1    2  501    0  0.77522841786E+02 -0.11173966009E+02 -0.24028964975E+02  0.19089469934E+03  0.17242026146E+03 0.  0.
         24    2    3    3    0    0  0.96723480838E+02 -0.55422310808E+02 -0.34711646954E+02  0.14126819179E+03  0.79528229552E+02 0.  0.
         -6    2    1    2    0  502 -0.77522841786E+02  0.11173966009E+02  0.27587414536E+03  0.33464844864E+03  0.17247722047E+03 0.  0.
        -24    2    5    5    0    0  0.19306275774E+00 -0.24443243284E+02  0.62572718654E+02  0.10480516278E+03  0.80444189417E+02 0.  0.
          5    1    3    3  501    0 -0.19200639053E+02  0.44248344798E+02  0.10682681978E+02  0.49626507551E+02  0.47000000000E+01 0. -1.
        -11    1    4    4    0    0  0.57413498628E+02 -0.43517307472E+02 -0.59377130610E+02  0.93357964384E+02  0.00000000000E+00 0.  1.
         12    1    4    4    0    0  0.39309982210E+02 -0.11905003335E+02  0.24665483656E+02  0.47910227403E+02  0.00000000000E+00 0. -1.
         -5    1    5    5    0  502 -0.77715904543E+02  0.35617209293E+02  0.21330142671E+03  0.22984328585E+03  0.47000000000E+01 0.  1.
         13    1    6    6    0    0 -0.12156103217E+02  0.27817011493E+02  0.21521805489E+02  0.37212163137E+02  0.00000000000E+00 0. -1.
        -14    1    6    6    0    0  0.12349165974E+02 -0.52260254777E+02  0.41050913166E+02  0.67592999647E+02  0.00000000000E+00 0.  1.
</event>
<event>
12    1  0.1627564E-001  0.1764031E+03  0.7818608E-02  0.1171350E+00
         21   -1    0    0  501  502  0.00000000000E+00  0.00000000000E+00  0.38999680673E+03  0.38999680673E+03  0.00000000000E+00 0.  1.
         21   -1    0    0  502  503 -0.00000000000E+00 -0.00000000000E+00 -0.49519121910E+03  0.49519121910E+03  0.00000000000E+00 0.  1.
         -6    2    1    2    0  503 -0.20016775619E+02 -0.29430858525E+02 -0.45798345712E+03  0.49075403261E+03  0.17269576367E+03 0.  0.
        -24    2    3    3    0    0 -0.43898146678E+02 -0.25234714365E+02 -0.12871766596E+03  0.16056321091E+03  0.81538144915E+02 0.  0.
          6    2    1    2  501    0  0.20016775619E+02  0.29430858525E+02  0.35278904475E+03  0.39443399322E+03  0.17277505079E+03 0.  0.
         24    2    5    5    0    0  0.32513003071E+02 -0.35818454483E+02  0.12019594540E+03  0.15249336329E+03  0.80418303300E+02 0.  0.
          5    1    5    5  501    0 -0.12496227452E+02  0.65249313008E+02  0.23259309935E+03  0.24194062993E+03  0.47000000000E+01 0. -1.
        -11    1    6    6    0    0  0.52753711317E+02 -0.26251639475E+01  0.84867368187E+02  0.99961571249E+02  0.00000000000E+00 0.  1.
         12    1    6    6    0    0 -0.20240708246E+02 -0.33193290536E+02  0.35328577215E+02  0.52531792040E+02  0.00000000000E+00 0. -1.
         -5    1    3    3    0  503  0.23881371059E+02 -0.41961441602E+01 -0.32926579116E+03  0.33019082170E+03  0.47000000000E+01 0.  1.
         11    1    4    4    0    0  0.21872363191E+02 -0.20601757277E+02 -0.40406780259E+02  0.50354151421E+02  0.00000000000E+00 0. -1.
        -12    1    4    4    0    0 -0.65770509868E+02 -0.46329570881E+01 -0.88310885706E+02  0.11020905949E+03  0.00000000000E+00 0.  1.
</event>
<event>
12    1  0.1627564E-001  0.2205071E+03  0.7818608E-02  0.1133672E+00
         21   -1    0    0  503  502  0.00000000000E+00  0.00000000000E+00  0.38846432692E+02  0.38846432692E+02  0.00000000000E+00 0.  1.
         21   -1    0    0  501  503 -0.00000000000E+00 -0.00000000000E+00 -0.17232948216E+04  0.17232948216E+04  0.00000000000E+00 0.  1.
          6    2    1    2  501    0  0.11613957104E+03 -0.72379645538E+02 -0.13068448733E+04  0.13253176680E+04  0.17290513317E+03 0.  0.
         24    2    3    3    0    0  0.31537090994E+02 -0.92896478016E+02 -0.58111488816E+03  0.59436991238E+03  0.77179892263E+02 0.  0.
         -6    2    1    2    0  502 -0.11613957104E+03  0.72379645538E+02 -0.37760351556E+03  0.43682358629E+03  0.17176500670E+03 0.  0.
        -24    2    5    5    0    0 -0.89771197380E+02  0.45384892017E+02 -0.11929043765E+03  0.17572639353E+03  0.80813987443E+02 0.  0.
          5    1    3    3  501    0  0.84602480045E+02  0.20516832478E+02 -0.72572998516E+03  0.73094775559E+03  0.47000000000E+01 0. -1.
        -13    1    4    4    0    0  0.48498936018E+02 -0.95190052904E+02 -0.47350833038E+03  0.48541058076E+03  0.00000000000E+00 0.  1.
         14    1    4    4    0    0 -0.16961845024E+02  0.22935748882E+01 -0.10760655777E+03  0.10895933163E+03  0.00000000000E+00 0. -1.
         -5    1    5    5    0  502 -0.26368373658E+02  0.26994753521E+02 -0.25831307790E+03  0.26109719275E+03  0.47000000000E+01 0.  1.
         13    1    6    6    0    0  0.14155799658E+02  0.15003156938E+02 -0.22054102703E+02  0.30197099663E+02  0.00000000000E+00 0. -1.
        -14    1    6    6    0    0 -0.10392699704E+03  0.30381735079E+02 -0.97236334952E+02  0.14552929387E+03  0.00000000000E+00 0.  1.
</event>
<event>
12    1  0.1627564E-001  0.2263080E+03  0.7818608E-02  0.1131231E+00
         21   -1    0    0  503  502  0.00000000000E+00  0.00000000000E+00  0.16046335053E+03  0.16046335053E+03  0.00000000000E+00 0.  1.
         21   -1    0    0  501  503 -0.00000000000E+00 -0.00000000000E+00 -0.33715879246E+03  0.33715879246E+03  0.00000000000E+00 0. -1.
          6    2    1    2  501    0 -0.12294455323E+03 -0.56195961702E+02 -0.16406089552E+03  0.27096169745E+03  0.16802057841E+03 0.  0.
         24    2    3    3    0    0 -0.12369118162E+03 -0.69889394019E+02 -0.18434187021E+03  0.24603228757E+03  0.79786750819E+02 0.  0.
         -6    2    1    2    0  502  0.12294455323E+03  0.56195961702E+02 -0.12634546417E+02  0.22666044554E+03  0.18149924664E+03 0.  0.
        -24    2    5    5    0    0  0.15520755263E+03  0.17239840858E+02 -0.15186454931E+02  0.17579707248E+03  0.79293037351E+02 0.  0.
          5    1    3    3  501    0  0.74662839420E+00  0.13693432317E+02  0.20280974694E+02  0.24929409883E+02  0.47000000000E+01 0. -1.
        -11    1    4    4    0    0 -0.16672982170E+02 -0.24238574572E+02 -0.94676353414E+02  0.99141861630E+02  0.00000000000E+00 0.  1.
         12    1    4    4    0    0 -0.10701819945E+03 -0.45650819447E+02 -0.89665516796E+02  0.14689042594E+03  0.00000000000E+00 0. -1.
         -5    1    5    5    0  502 -0.32262999407E+02  0.38956120843E+02  0.25519085144E+01  0.50863373059E+02  0.47000000000E+01 0.  1.
         13    1    6    6    0    0  0.53208195182E+02 -0.29489834160E+02 -0.18403858312E+02  0.63556780552E+02  0.00000000000E+00 0. -1.
        -14    1    6    6    0    0  0.10199935745E+03  0.46729675019E+02  0.32174033813E+01  0.11224029193E+03  0.00000000000E+00 0.  1.
</event>
<event>
12    1  0.1627564E-001  0.3869154E+03  0.7818608E-02  0.1048509E+00
         21   -1    0    0  501  502  0.00000000000E+00  0.00000000000E+00  0.27264050342E+03  0.27264050342E+03  0.00000000000E+00 0.  1.
         21   -1    0    0  502  503 -0.00000000000E+00 -0.00000000000E+00 -0.59310414733E+03  0.59310414733E+03  0.00000000000E+00 0. -1.
         -6    2    1    2    0  503 -0.33809284008E+03  0.69947623541E+02 -0.40404848140E+02  0.38901938065E+03  0.17465419610E+03 0.  0.
        -24    2    3    3    0    0 -0.23562167237E+03  0.75701223505E+02 -0.89646388167E+02  0.27508842179E+03  0.79930702219E+02 0.  0.
          6    2    1    2  501    0  0.33809284008E+03 -0.69947623541E+02 -0.28005879576E+03  0.47672527010E+03  0.17214707526E+03 0.  0.
         24    2    5    5    0    0  0.13674935899E+03 -0.59765446986E+02 -0.63368353361E+02  0.18071900003E+03  0.79821757217E+02 0.  0.
          5    1    5    5  501    0  0.20134348108E+03 -0.10182176555E+02 -0.21669044240E+03  0.29600627007E+03  0.47000000000E+01 0. -1.
        -13    1    6    6    0    0  0.63246081176E+01  0.16363369302E+02 -0.18061355481E+01  0.17635834213E+02  0.00000000000E+00 0.  1.
         14    1    6    6    0    0  0.13042475088E+03 -0.76128816288E+02 -0.61562217813E+02  0.16308316582E+03  0.00000000000E+00 0. -1.
         -5    1    3    3    0  503 -0.10247116770E+03 -0.57535999639E+01  0.49241540027E+02  0.11393095886E+03  0.47000000000E+01 0.  1.
         11    1    4    4    0    0 -0.57632748641E+02  0.34215830583E+02 -0.59966156553E+02  0.89934402262E+02  0.00000000000E+00 0. -1.
        -12    1    4    4    0    0 -0.17798892373E+03  0.41485392922E+02 -0.29680231614E+02  0.18515401952E+03  0.00000000000E+00 0.  1.
</event>
<event>
12    1  0.1627564E-001  0.1961097E+03  0.7818608E-02  0.1153288E+00
         21   -1    0    0  501  502  0.00000000000E+00  0.00000000000E+00  0.33055067556E+03  0.33055067556E+03  0.00000000000E+00 0.  1.
         21   -1    0    0  502  503 -0.00000000000E+00 -0.00000000000E+00 -0.18332516748E+03  0.18332516748E+03  0.00000000000E+00 0.  1.
         -6    2    1    2    0  503  0.73218199375E+00  0.95865472912E+02 -0.82520675100E+02  0.21181239684E+03  0.16989439264E+03 0.  0.
        -24    2    3    3    0    0 -0.35676997326E+02  0.33426418626E+02  0.98644005813E+01  0.94418376351E+02  0.80170753978E+02 0.  0.
          6    2    1    2  501    0 -0.73218199375E+00 -0.95865472912E+02  0.22974618318E+03  0.30206344620E+03  0.17107978215E+03 0.  0.
         24    2    5    5    0    0 -0.63729672691E+02 -0.77903077591E+02  0.17732233773E+03  0.21802963722E+03  0.77222733509E+02 0.  0.
          5    1    5    5  501    0  0.62997490698E+02 -0.17962395322E+02  0.52423845447E+02  0.84033808978E+02  0.47000000000E+01 0. -1.
        -11    1    6    6    0    0  0.59573705996E+01 -0.33474125979E+02  0.17818193749E+02  0.38386135557E+02  0.00000000000E+00 0.  1.
         12    1    6    6    0    0 -0.69687043291E+02 -0.44428951611E+02  0.15950414398E+03  0.17964350167E+03  0.00000000000E+00 0. -1.
         -5    1    3    3    0  503  0.36409179320E+02  0.62439054286E+02 -0.92385075681E+02  0.11739402049E+03  0.47000000000E+01 0.  1.
         11    1    4    4    0    0 -0.21686034789E+01 -0.17907707908E+02 -0.19398610675E+02  0.26489525094E+02  0.00000000000E+00 0. -1.
        -12    1    4    4    0    0 -0.33508393848E+02  0.51334126535E+02  0.29263011256E+02  0.67928851257E+02  0.00000000000E+00 0.  1.
</event>
<event>
12    1  0.1627564E-001  0.1777811E+03  0.7818608E-02  0.1170273E+00
         21   -1    0    0  501  502  0.00000000000E+00  0.00000000000E+00  0.14280022577E+03  0.14280022577E+03  0.00000000000E+00 0. -1.
         21   -1    0    0  502  503 -0.00000000000E+00 -0.00000000000E+00 -0.25476839923E+03  0.25476839923E+03  0.00000000000E+00 0.  1.
         -6    2    1    2    0  503 -0.35550658702E+02 -0.25771548784E+02  0.17495990455E+02  0.17863995808E+03  0.17227333769E+03 0.  0.
        -24    2    3    3    0    0  0.16529603971E+01  0.14707239925E+01  0.70747183193E+02  0.10804229361E+03  0.81627678961E+02 0.  0.
          6    2    1    2  501    0  0.35550658702E+02  0.25771548784E+02 -0.12946416392E+03  0.21892866692E+03  0.17099932573E+03 0.  0.
         24    2    5    5    0    0  0.25307019187E+02 -0.31360332298E+02 -0.13642363918E+03  0.16028134573E+03  0.73856514946E+02 0.  0.
          5    1    5    5  501    0  0.10243639515E+02  0.57131881082E+02  0.69594752642E+01  0.58647321187E+02  0.47000000000E+01 0. -1.
        -11    1    6    6    0    0  0.33771406976E+01 -0.20103037699E+02 -0.13396670119E+03  0.13550872382E+03  0.00000000000E+00 0.  1.
         12    1    6    6    0    0  0.21929878489E+02 -0.11257294599E+02 -0.24569379969E+01  0.24772621915E+02  0.00000000000E+00 0. -1.
         -5    1    3    3    0  503 -0.37203619099E+02 -0.27242272777E+02 -0.53251192738E+02  0.70597664466E+02  0.47000000000E+01 0.  1.
         13    1    4    4    0    0 -0.20967474174E+02 -0.33006732226E+02  0.24799393093E+02  0.46304311281E+02  0.00000000000E+00 0. -1.
        -14    1    4    4    0    0  0.22620434571E+02  0.34477456218E+02  0.45947790100E+02  0.61737982333E+02  0.00000000000E+00 0.  1.
</event>
<event>
12    1  0.1627564E-001  0.2748348E+03  0.7818608E-02  0.1098544E+00
         21   -1    0    0  501  502  0.00000000000E+00  0.00000000000E+00  0.71556647733E+03  0.71556647733E+03  0.00000000000E+00 0.  1.
         21   -1    0    0  502  503 -0.00000000000E+00 -0.00000000000E+00 -0.12199137890E+03  0.12199137890E+03  0.00000000000E+00 0.  1.
         -6    2    1    2    0  503 -0.15819698641E+03  0.14453212470E+03  0.14308657714E+03  0.30985144232E+03  0.17209975645E+03 0.  0.
        -24    2    3    3    0    0 -0.10769885181E+03  0.12509896831E+03  0.16831798417E+03  0.24996469032E+03  0.83081935812E+02 0.  0.
          6    2    1    2  501    0  0.15819698641E+03 -0.14453212470E+03  0.45048852128E+03  0.52770641391E+03  0.17209976725E+03 0.  0.
         24    2    5    5    0    0  0.13325727744E+03 -0.35681163914E+02  0.29885216435E+03  0.33932861402E+03  0.82466021498E+02 0.  0.
          5    1    5    5  501    0  0.24939708966E+02 -0.10885096079E+03  0.15163635693E+03  0.18837779989E+03  0.47000000000E+01 0. -1.
        -13    1    6    6    0    0  0.54296944479E+02 -0.76304432461E+01  0.21064757481E+03  0.21766667778E+03  0.00000000000E+00 0.  1.
         14    1    6    6    0    0  0.78960332963E+02 -0.28050720668E+02  0.88204589549E+02  0.12166193624E+03  0.00000000000E+00 0. -1.
         -5    1    3    3    0  503 -0.50498134598E+02  0.19433156391E+02 -0.25231407024E+02  0.59886752004E+02  0.47000000000E+01 0.  1.
         11    1    4    4    0    0 -0.33240358577E+02  0.99613065335E+02  0.82662674346E+02  0.13364431134E+03  0.00000000000E+00 0. -1.
        -12    1    4    4    0    0 -0.74458493234E+02  0.25485902978E+02  0.85655309823E+02  0.11632037898E+03  0.00000000000E+00 0.  1.
</event>
<event>
12    1  0.1627564E-001  0.1747446E+03  0.7818608E-02  0.1173934E+00
         21   -1    0    0  503  502  0.00000000000E+00  0.00000000000E+00  0.33528095582E+02  0.33528095582E+02  0.00000000000E+00 0.  1.
         21   -1    0    0  501  503 -0.00000000000E+00 -0.00000000000E+00 -0.89367117609E+03  0.89367117609E+03  0.00000000000E+00 0.  1.
          6    2    1    2  501    0  0.29468519175E+02  0.11007221129E+02 -0.40248175536E+03  0.43731197591E+03  0.16810903705E+03 0.  0.
         24    2    3    3    0    0  0.69654974084E+02  0.37020721704E+02 -0.19964729230E+03  0.22885199708E+03  0.79321157289E+02 0.  0.
         -6    2    1    2    0  502 -0.29468519175E+02 -0.11007221129E+02 -0.45766132515E+03  0.48988729576E+03  0.17188985273E+03 0.  0.
        -24    2    5    5    0    0  0.20240819896E+02 -0.56739114845E+02 -0.33779766427E+03  0.35222171657E+03  0.79522686679E+02 0.  0.
          5    1    3    3  501    0 -0.40186454910E+02 -0.26013500575E+02 -0.20283446306E+03  0.20845997883E+03  0.47000000000E+01 0. -1.
        -13    1    4    4    0    0  0.56220207076E+01  0.45187618400E+02 -0.10315590157E+03  0.11275933665E+03  0.00000000000E+00 0.  1.
         14    1    4    4    0    0  0.64032953377E+02 -0.81668966959E+01 -0.96491390729E+02  0.11609266042E+03  0.00000000000E+00 0. -1.
         -5    1    5    5    0  502 -0.49709339070E+02  0.45731893716E+02 -0.11986366088E+03  0.13766557919E+03  0.47000000000E+01 0.  1.
         11    1    6    6    0    0  0.29709019522E+02 -0.22839274737E+02 -0.51079241582E+02  0.63350984460E+02  0.00000000000E+00 0. -1.
        -12    1    6    6    0    0 -0.94681996258E+01 -0.33899840108E+02 -0.28671842269E+03  0.28887073211E+03  0.00000000000E+00 0.  1.
</event>
<event>
12    1  0.1627564E-001  0.2642172E+03  0.7818608E-02  0.1104900E+00
         21   -1    0    0  503  502  0.00000000000E+00  0.00000000000E+00  0.87354836759E+03  0.87354836759E+03  0.00000000000E+00 0. -1.
         21   -1    0    0  501  503 -0.00000000000E+00 -0.00000000000E+00 -0.10866161198E+03  0.10866161198E+03  0.00000000000E+00 0. -1.
          6    2    1    2  501    0 -0.99322323435E+02 -0.17418534012E+03  0.12653265949E+03  0.29133611400E+03  0.16929489288E+03 0.  0.
         24    2    3    3    0    0 -0.52266847435E+02 -0.45763150921E+02  0.10678373281E+03  0.15306613676E+03  0.84855095933E+02 0.  0.
         -6    2    1    2    0  502  0.99322323435E+02  0.17418534012E+03  0.63835409611E+03  0.69087386557E+03  0.17206187686E+03 0.  0.
        -24    2    5    5    0    0  0.36121073576E+02  0.79985017242E+02  0.15766015163E+03  0.19695397624E+03  0.78941816600E+02 0.  0.
          5    1    3    3  501    0 -0.47055476001E+02 -0.12842218920E+03  0.19748926685E+02  0.13826997724E+03  0.47000000000E+01 0. -1.
        -11    1    4    4    0    0 -0.64238991153E+02 -0.56192608308E+02  0.10739259645E+03  0.13717662696E+03  0.00000000000E+00 0.  1.
         12    1    4    4    0    0  0.11972143719E+02  0.10429457387E+02 -0.60886363694E+00  0.15889509796E+02  0.00000000000E+00 0. -1.
         -5    1    5    5    0  502  0.63201249860E+02  0.94200322879E+02  0.48069394448E+03  0.49391988933E+03  0.47000000000E+01 0.  1.
         13    1    6    6    0    0  0.52686669868E+02  0.30906231866E+02  0.11347054151E+03  0.12886676895E+03  0.00000000000E+00 0. -1.
        -14    1    6    6    0    0 -0.16565596292E+02  0.49078785376E+02  0.44189610119E+02  0.68087207293E+02  0.00000000000E+00 0.  1.
</event>
<event>
12    1  0.1627564E-001  0.1968419E+03  0.7818608E-02  0.1152638E+00
         21   -1    0    0  501  502  0.00000000000E+00  0.00000000000E+00  0.29580069908E+03  0.29580069908E+03  0.00000000000E+00 0. -1.
         21   -1    0    0  502  503 -0.00000000000E+00 -0.00000000000E+00 -0.16240763179E+03  0.16240763179E+03  0.00000000000E+00 0. -1.
         -6    2    1    2    0  503  0.77280862631E+02  0.55075786679E+02 -0.34956209879E+02  0.19992162855E+03  0.17245592754E+03 0.  0.
        -24    2    3    3    0    0  0.94030049648E+02  0.72763069789E+02  0.15361934028E+02  0.14382010579E+03  0.79448846753E+02 0.  0.
          6    2    1    2  501    0 -0.77280862631E+02 -0.55075786679E+02  0.16834927717E+03  0.25828670233E+03  0.17136180283E+03 0.  0.
         24    2    5    5    0    0 -0.90169180990E+02 -0.54544986285E+02  0.61961481411E+02  0.15101674574E+03  0.88663383573E+02 0.  0.
          5    1    5    5  501    0  0.12888318359E+02 -0.53080039367E+00  0.10638779576E+03  0.10726995659E+03  0.47000000000E+01 0. -1.
        -13    1    6    6    0    0 -0.15616223565E+02 -0.36635023587E+02 -0.14833855356E+02  0.42497466470E+02  0.00000000000E+00 0.  1.
         14    1    6    6    0    0 -0.74552957425E+02 -0.17909962698E+02  0.76795336766E+02  0.10851927927E+03  0.00000000000E+00 0. -1.
         -5    1    3    3    0  503 -0.16749187017E+02 -0.17687283110E+02 -0.50318143906E+02  0.56101522758E+02  0.47000000000E+01 0.  1.
         11    1    4    4    0    0  0.34612508100E+02 -0.29100278601E+01 -0.21429228639E+02  0.40813059420E+02  0.00000000000E+00 0. -1.
        -12    1    4    4    0    0  0.59417541547E+02  0.75673097649E+02  0.36791162667E+02  0.10300704637E+03  0.00000000000E+00 0.  1.
</event>
<event>
12    1  0.1627564E-001  0.1946570E+03  0.7818608E-02  0.1155206E+00
         21   -1    0    0  501  502  0.00000000000E+00  0.00000000000E+00  0.15939295473E+04  0.15939295473E+04  0.00000000000E+00 0. -1.
         21   -1    0    0  502  503 -0.00000000000E+00 -0.00000000000E+00 -0.55560666763E+02  0.55560666763E+02  0.00000000000E+00 0. -1.
         -6    2    1    2    0  503 -0.16767817451E+02  0.81463525021E+02  0.13944032703E+04  0.14073798286E+04  0.17158098958E+03 0.  0.
        -24    2    3    3    0    0 -0.38972638943E+02  0.10927594111E+03  0.12740393571E+04  0.12817766989E+04  0.79467757155E+02 0.  0.
          6    2    1    2  501    0  0.16767817451E+02 -0.81463525021E+02  0.14396561021E+03  0.24211038548E+03  0.17599396644E+03 0.  0.
         24    2    5    5    0    0 -0.53085919595E+02 -0.27786894739E+02  0.11566225508E+03  0.14946107286E+03  0.73284573216E+02 0.  0.
          5    1    5    5  501    0  0.69853737046E+02 -0.53676630282E+02  0.28303355125E+02  0.92649312621E+02  0.47000000000E+01 0. -1.
        -13    1    6    6    0    0 -0.37207551843E+02 -0.52871155668E+02  0.84853010425E+02  0.10667611914E+03  0.00000000000E+00 0.  1.
         14    1    6    6    0    0 -0.15878367752E+02  0.25084260929E+02  0.30809244659E+02  0.42784953725E+02  0.00000000000E+00 0. -1.
         -5    1    3    3    0  503  0.22204821491E+02 -0.27812416086E+02  0.12036391317E+03  0.12560312966E+03  0.47000000000E+01 0.  1.
         11    1    4    4    0    0 -0.59057474282E+02  0.88849480796E+02  0.11221025726E+04  0.11271628981E+04  0.00000000000E+00 0. -1.
        -12    1    4    4    0    0  0.20084835339E+02  0.20426460312E+02  0.15193678457E+03  0.15461380079E+03  0.00000000000E+00 0.  1.
</event>
<event>
12    1  0.1627564E-001  0.1765005E+03  0.7818608E-02  0.1171309E+00
         21   -1    0    0  503  502  0.00000000000E+00  0.00000000000E+00  0.54430375001E+03  0.54430375001E+03  0.00000000000E+00 0. -1.
         21   -1    0    0  501  503 -0.00000000000E+00 -0.00000000000E+00 -0.89706737852E+02  0.89706737852E+02  0.00000000000E+00 0. -1.
          6    2    1    2  501    0  0.15698813734E+02 -0.38430078992E+02  0.36405477942E+02  0.18021591689E+03  0.17154910129E+03 0.  0.
         24    2    3    3    0    0  0.74239020133E+02 -0.26007161686E+02  0.65743962077E+01  0.11318407314E+03  0.81114777673E+02 0.  0.
         -6    2    1    2    0  502 -0.15698813734E+02  0.38430078992E+02  0.41819153422E+03  0.45379457098E+03  0.17123676483E+03 0.  0.
        -24    2    5    5    0    0 -0.53376276733E+02  0.42471876365E+02  0.14186323829E+03  0.17484055241E+03  0.76099626731E+02 0.  0.
          5    1    3    3  501    0 -0.58540206399E+02 -0.12422917307E+02  0.29831081734E+02  0.67031843754E+02  0.47000000000E+01 0. -1.
        -13    1    4    4    0    0 -0.66075622314E+01  0.16574201958E+02 -0.97952315182E+01  0.20354621335E+02  0.00000000000E+00 0.  1.
         14    1    4    4    0    0  0.80846582364E+02 -0.42581363644E+02  0.16369627726E+02  0.92829451801E+02  0.00000000000E+00 0. -1.
         -5    1    5    5    0  502  0.37677462999E+02 -0.40417973729E+01  0.27632829593E+03  0.27895401857E+03  0.47000000000E+01 0.  1.
         11    1    6    6    0    0 -0.60528863067E+02  0.18342344959E+01  0.91642386849E+02  0.10984277285E+03  0.00000000000E+00 0. -1.
        -12    1    6    6    0    0  0.71525863334E+01  0.40637641869E+02  0.50220851444E+02  0.64997779560E+02  0.00000000000E+00 0.  1.
</event>
<event>
12    1  0.1627564E-001  0.2512747E+03  0.7818608E-02  0.1114289E+00
         21   -1    0    0  501  502  0.00000000000E+00  0.00000000000E+00  0.22197120597E+03  0.22197120597E+03  0.00000000000E+00 0. -1.
         21   -1    0    0  502  503 -0.00000000000E+00 -0.00000000000E+00 -0.33534714201E+03  0.33534714201E+03  0.00000000000E+00 0.  1.
         -6    2    1    2    0  503 -0.15086834320E+03 -0.10404010050E+03  0.63353374739E+02  0.25913821516E+03  0.17191092162E+03 0.  0.
        -24    2    3    3    0    0 -0.66222004330E+02  0.12508447670E+02  0.40973025207E+02  0.11329056584E+03  0.81327414772E+02 0.  0.
          6    2    1    2  501    0  0.15086834320E+03  0.10404010050E+03 -0.17672931077E+03  0.29818013282E+03  0.15521772718E+03 0.  0.
         24    2    5    5    0    0  0.13800756607E+03  0.67292348756E+02 -0.74674977365E+02  0.18885047622E+03  0.80708126170E+02 0.  0.
          5    1    5    5  501    0  0.12860777137E+02  0.36747751746E+02 -0.10205433341E+03  0.10932965661E+03  0.47000000000E+01 0. -1.
        -13    1    6    6    0    0  0.28265159814E+02 -0.18009343255E+02 -0.69272846908E+01  0.34223427312E+02  0.00000000000E+00 0.  1.
         14    1    6    6    0    0  0.10974240625E+03  0.85301692012E+02 -0.67747692674E+02  0.15462704890E+03  0.00000000000E+00 0. -1.
         -5    1    3    3    0  503 -0.84646338873E+02 -0.11654854817E+03  0.22380349533E+02  0.14584764932E+03  0.47000000000E+01 0.  1.
         11    1    4    4    0    0  0.40060686290E+01 -0.95289453041E+01  0.38264599394E+02  0.39636207579E+02  0.00000000000E+00 0. -1.
        -12    1    4    4    0    0 -0.70228072959E+02  0.22037392974E+02  0.27084258127E+01  0.73654358262E+02  0.00000000000E+00 0.  1.
</event>
<event>
12    1  0.1627564E-001  0.1935873E+03  0.7818608E-02  0.1155309E+00
         21   -1    0    0  503  502  0.00000000000E+00  0.00000000000E+00  0.10925399737E+03  0.10925399737E+03  0.00000000000E+00 0.  1.
         21   -1    0    0  501  503 -0.00000000000E+00 -0.00000000000E+00 -0.35507084811E+03  0.35507084811E+03  0.00000000000E+00 0.  1.
          6    2    1    2  501    0 -0.23732409622E+02 -0.82859252113E+02 -0.16623887209E+03  0.25501954609E+03  0.17312054577E+03 0.  0.
         24    2    3    3    0    0 -0.49881021971E+02 -0.93764170089E+02 -0.70710333679E+02  0.15526755957E+03  0.88477272905E+02 0.  0.
         -6    2    1    2    0  502  0.23732409622E+02  0.82859252113E+02 -0.79577978652E+02  0.20930529939E+03  0.17334119746E+03 0.  0.
        -24    2    5    5    0    0 -0.49492656921E+02  0.19127963324E+02 -0.49850762824E+02  0.10767171782E+03  0.79326528944E+02 0.  0.
          5    1    3    3  501    0  0.26148612350E+02  0.10904917976E+02 -0.95528538414E+02  0.99751986524E+02  0.47000000000E+01 0. -1.
        -11    1    4    4    0    0 -0.74412385160E+02 -0.66409987895E+02 -0.62229926513E+02  0.11755872282E+03  0.00000000000E+00 0.  1.
         12    1    4    4    0    0  0.24531363188E+02 -0.27354182194E+02 -0.84804071659E+01  0.37708836751E+02  0.00000000000E+00 0. -1.
         -5    1    5    5    0  502  0.73225066543E+02  0.63731288788E+02 -0.29727215827E+02  0.10163358156E+03  0.47000000000E+01 0.  1.
         11    1    6    6    0    0 -0.15746235662E+02  0.41088071483E+02 -0.53180079964E+00  0.44005185692E+02  0.00000000000E+00 0. -1.
        -12    1    6    6    0    0 -0.33746421259E+02 -0.21960108159E+02 -0.49318962025E+02  0.63666532129E+02  0.00000000000E+00 0.  1.
</event>
<event>
12    1  0.1627564E-001  0.4142500E+03  0.7818608E-02  0.1039004E+00
         21   -1    0    0  501  502  0.00000000000E+00  0.00000000000E+00  0.20101744915E+04  0.20101744915E+04  0.00000000000E+00 0. -1.
         21   -1    0    0  502  503 -0.00000000000E+00 -0.00000000000E+00 -0.94800523115E+02  0.94800523115E+02  0.00000000000E+00 0.  1.
         -6    2    1    2    0  503  0.86482211683E+02 -0.36730678513E+03  0.12924896467E+04  0.13572518288E+04  0.17090814018E+03 0.  0.
        -24    2    3    3    0    0  0.31889452781E+01 -0.27593432978E+03  0.82343524648E+03  0.87215306125E+03  0.80345711683E+02 0.  0.
          6    2    1    2  501    0 -0.86482211683E+02  0.36730678513E+03  0.62288432168E+03  0.74772318589E+03  0.16944508606E+03 0.  0.
         24    2    5    5    0    0 -0.19172353714E+02  0.21873823575E+03  0.25629570807E+03  0.34645951638E+03  0.78311631250E+02 0.  0.
          5    1    5    5  501    0 -0.67309857969E+02  0.14856854938E+03  0.36658861361E+03  0.40126366951E+03  0.47000000000E+01 0. -1.
        -11    1    6    6    0    0 -0.37304590977E+02  0.89446928052E+02  0.14762302873E+03  0.17659259344E+03  0.00000000000E+00 0.  1.
         12    1    6    6    0    0  0.18132237263E+02  0.12929130770E+03  0.10867267933E+03  0.16986692294E+03  0.00000000000E+00 0. -1.
         -5    1    3    3    0  503  0.83293266405E+02 -0.91372455351E+02  0.46905440026E+03  0.48509876750E+03  0.47000000000E+01 0.  1.
         13    1    4    4    0    0  0.69588028961E+01 -0.10924146136E+03  0.21467670263E+03  0.24097346009E+03  0.00000000000E+00 0. -1.
        -14    1    4    4    0    0 -0.37698576180E+01 -0.16669286842E+03  0.60875854385E+03  0.63117960116E+03  0.00000000000E+00 0.  1.
</event>
<event>
12    1  0.1627564E-001  0.2176515E+03  0.7818608E-02  0.1136127E+00
         21   -1    0    0  503  502  0.00000000000E+00  0.00000000000E+00  0.15556592199E+03  0.15556592199E+03  0.00000000000E+00 0.  1.
         21   -1    0    0  501  503 -0.00000000000E+00 -0.00000000000E+00 -0.32623774187E+03  0.32623774187E+03  0.00000000000E+00 0. -1.
          6    2    1    2  501    0 -0.13171145898E+03 -0.10566711351E+02 -0.18778295542E+02  0.21846004333E+03  0.17295260141E+03 0.  0.
         24    2    3    3    0    0 -0.54030464892E+02 -0.48469025092E+02  0.39036076158E+02  0.11436626924E+03  0.79292438280E+02 0.  0.
         -6    2    1    2    0  502  0.13171145898E+03  0.10566711351E+02 -0.15189352434E+03  0.26334362053E+03  0.16976058413E+03 0.  0.
        -24    2    5    5    0    0  0.10830251724E+03  0.67158142053E+02 -0.84919213829E+02  0.17246888889E+03  0.79338474100E+02 0.  0.
          5    1    3    3  501    0 -0.77680994087E+02  0.37902313741E+02 -0.57814371699E+02  0.10409377409E+03  0.47000000000E+01 0. -1.
        -11    1    4    4    0    0  0.16198137460E+02  0.59912642810E+01  0.13437360710E+02  0.21882357453E+02  0.00000000000E+00 0.  1.
         12    1    4    4    0    0 -0.70228602352E+02 -0.54460289373E+02  0.25598715447E+02  0.92483911787E+02  0.00000000000E+00 0. -1.
         -5    1    5    5    0  502  0.23408941734E+02 -0.56591430703E+02 -0.66974310515E+02  0.90874731642E+02  0.47000000000E+01 0.  1.
         13    1    6    6    0    0  0.54223152228E+02 -0.67209119970E+01 -0.51264203719E+02  0.74922222862E+02  0.00000000000E+00 0. -1.
        -14    1    6    6    0    0  0.54079365016E+02  0.73879054050E+02 -0.33655010110E+02  0.97546666029E+02  0.00000000000E+00 0.  1.
</event>
<event>
12    1  0.1627564E-001  0.1852026E+03  0.7818608E-02  0.1164656E+00
         21   -1    0    0  503  502  0.00000000000E+00  0.00000000000E+00  0.33856580144E+03  0.33856580144E+03  0.00000000000E+00 0. -1.
         21   -1    0    0  501  503 -0.00000000000E+00 -0.00000000000E+00 -0.13760049568E+03  0.13760049568E+03  0.00000000000E+00 0. -1.
          6    2    1    2  501    0 -0.23186534023E+02  0.40168287091E+02 -0.29927828387E+02  0.18017364756E+03  0.17151023793E+03 0.  0.
         24    2    3    3    0    0 -0.26637678019E+02 -0.42190377355E+02 -0.21265551721E+02  0.97155667333E+02  0.80606489648E+02 0.  0.
         -6    2    1    2    0  502  0.23186534023E+02 -0.40168287091E+02  0.23089313414E+03  0.29599264956E+03  0.17930115045E+03 0.  0.
        -24    2    5    5    0    0  0.28147457267E+02 -0.21288250928E+02  0.25213675193E+03  0.26676171010E+03  0.79645460176E+02 0.  0.
          5    1    3    3  501    0  0.34511439960E+01  0.82358664446E+02 -0.86622766653E+01  0.83017980228E+02  0.47000000000E+01 0. -1.
        -13    1    4    4    0    0 -0.47011962402E+02 -0.29877161712E+02  0.11279569798E+02  0.56833072200E+02  0.00000000000E+00 0.  1.
         14    1    4    4    0    0  0.20374284383E+02 -0.12313215642E+02 -0.32545121519E+02  0.40322595133E+02  0.00000000000E+00 0. -1.
         -5    1    5    5    0  502 -0.49609232437E+01 -0.18880036163E+02 -0.21243617784E+02  0.29230939457E+02  0.47000000000E+01 0.  1.
         13    1    6    6    0    0 -0.25837056894E+02 -0.76847690799E+01  0.12654136234E+03  0.12938054555E+03  0.00000000000E+00 0. -1.
        -14    1    6    6    0    0  0.53984514161E+02 -0.13603481848E+02  0.12559538959E+03  0.13738116455E+03  0.00000000000E+00 0.  1.
</event>
<event>
12    1  0.1627564E-001  0.1771628E+03  0.7818608E-02  0.1171709E+00
         21   -1    0    0  503  502  0.00000000000E+00  0.00000000000E+00  0.13708502538E+03  0.13708502538E+03  0.00000000000E+00 0.  1.
         21   -1    0    0  501  503 -0.00000000000E+00 -0.00000000000E+00 -0.23973697261E+03  0.23973697261E+03  0.00000000000E+00 0.  1.
          6    2    1    2  501    0  0.18983663532E+02  0.43083213628E+02 -0.10149205532E+03  0.20417465937E+03  0.17079259779E+03 0.  0.
         24    2    3    3    0    0 -0.51102859912E+02  0.73010847452E+01 -0.36945206812E+02  0.10228811871E+03  0.80206625621E+02 0.  0.
         -6    2    1    2    0  502 -0.18983663532E+02 -0.43083213628E+02 -0.11598919175E+01  0.17264733862E+03  0.16610001627E+03 0.  0.
        -24    2    5    5    0    0 -0.40744204418E+02  0.24055524662E+02 -0.28246957012E+02  0.96904811498E+02  0.79711313191E+02 0.  0.
          5    1    3    3  501    0  0.70086523444E+02  0.35782128883E+02 -0.64546848508E+02  0.10188654066E+03  0.47000000000E+01 0. -1.
        -11    1    4    4    0    0  0.15755165010E+02 -0.17582023372E+02 -0.50408386346E+01  0.24140481032E+02  0.00000000000E+00 0.  1.
         12    1    4    4    0    0 -0.66858024922E+02  0.24883108117E+02 -0.31904368177E+02  0.78147637679E+02  0.00000000000E+00 0. -1.
         -5    1    5    5    0  502  0.21760540887E+02 -0.67138738290E+02  0.27087065094E+02  0.75742527118E+02  0.47000000000E+01 0.  1.
         13    1    6    6    0    0  0.11178572231E+02 -0.11883059074E+02 -0.29538514951E+02  0.33744502301E+02  0.00000000000E+00 0. -1.
        -14    1    6    6    0    0 -0.51922776650E+02  0.35938583736E+02  0.12915579389E+01  0.63160309197E+02  0.00000000000E+00 0.  1.
</event>
<event>
12    1  0.1627564E-001  0.1809127E+03  0.7818608E-02  0.1167304E+00
         21   -1    0    0  503  502  0.00000000000E+00  0.00000000000E+00  0.64170835933E+03  0.64170835933E+03  0.00000000000E+00 0.  1.
         21   -1    0    0  501  503 -0.00000000000E+00 -0.00000000000E+00 -0.22155798161E+03  0.22155798161E+03  0.00000000000E+00 0.  1.
          6    2    1    2  501    0  0.29676050227E+02  0.35734311457E+02 -0.16891277824E+03  0.24750947617E+03  0.17484794872E+03 0.  0.
         24    2    3    3    0    0  0.33468384160E+02  0.56747649631E+02 -0.19047525826E+03  0.21680161525E+03  0.79885467318E+02 0.  0.
         -6    2    1    2    0  502 -0.29676050227E+02 -0.35734311457E+02  0.58906315596E+03  0.61575686477E+03  0.17321520090E+03 0.  0.
        -24    2    5    5    0    0 -0.44039197863E+01 -0.28931486781E+01  0.55766980288E+03  0.56355671948E+03  0.81072820440E+02 0.  0.
          5    1    3    3  501    0 -0.37923339328E+01 -0.21013338174E+02  0.21562480020E+02  0.30707860923E+02  0.47000000000E+01 0. -1.
        -13    1    4    4    0    0 -0.14778297479E+02  0.50407710591E+02 -0.75734050601E+02  0.92168225457E+02  0.00000000000E+00 0.  1.
         14    1    4    4    0    0  0.48246681639E+02  0.63399390403E+01 -0.11474120766E+03  0.12463338979E+03  0.00000000000E+00 0. -1.
         -5    1    5    5    0  502 -0.25272130440E+02 -0.32841162779E+02  0.31393353085E+02  0.52200145283E+02  0.47000000000E+01 0.  1.
         13    1    6    6    0    0 -0.54684324100E+01  0.31259542794E+02  0.10734732171E+03  0.11193976169E+03  0.00000000000E+00 0. -1.
        -14    1    6    6    0    0  0.10645126238E+01 -0.34152691472E+02  0.45032248117E+03  0.45161695780E+03  0.00000000000E+00 0.  1.
</event>
<event>
12    1  0.1627564E-001  0.1827714E+03  0.7818608E-02  0.1165294E+00
         21   -1    0    0  503  502  0.00000000000E+00  0.00000000000E+00  0.12938998753E+03  0.12938998753E+03  0.00000000000E+00 0.  1.
         21   -1    0    0  501  503 -0.00000000000E+00 -0.00000000000E+00 -0.36666651876E+03  0.36666651876E+03  0.00000000000E+00 0.  1.
          6    2    1    2  501    0 -0.62756103184E+02 -0.57146935873E+01 -0.25395323242E+03  0.31252585399E+03  0.17090693065E+03 0.  0.
         24    2    3    3    0    0  0.53238063932E+01 -0.43777029403E+02 -0.75087331665E+02  0.11733693025E+03  0.78645258002E+02 0.  0.
         -6    2    1    2    0  502  0.62756103184E+02  0.57146935873E+01  0.16676701189E+02  0.18353065230E+03  0.17156457024E+03 0.  0.
        -24    2    5    5    0    0 -0.13509462881E+02  0.28574632309E+02 -0.29705907199E+02  0.91267714310E+02  0.80301553870E+02 0.  0.
          5    1    3    3  501    0 -0.68079909577E+02  0.38062335816E+02 -0.17886590076E+03  0.19518892374E+03  0.47000000000E+01 0. -1.
        -11    1    4    4    0    0  0.34731371938E+02 -0.45615885826E+01 -0.11127463099E+02  0.36754546959E+02  0.00000000000E+00 0.  1.
         12    1    4    4    0    0 -0.29407565545E+02 -0.39215440820E+02 -0.63959868566E+02  0.80582383292E+02  0.00000000000E+00 0. -1.
         -5    1    5    5    0  502  0.76265566065E+02 -0.22859938722E+02  0.46382608389E+02  0.92262937990E+02  0.47000000000E+01 0.  1.
         11    1    6    6    0    0 -0.30980370115E+02 -0.16367704702E+02 -0.24530908094E+02  0.42772076658E+02  0.00000000000E+00 0. -1.
        -12    1    6    6    0    0  0.17470907235E+02  0.44942337011E+02 -0.51749991050E+01  0.48495637653E+02  0.00000000000E+00 0.  1.
</event>
<event>
12    1  0.1627564E-001  0.1732084E+03  0.7818608E-02  0.1174982E+00
         21   -1    0    0  503  502  0.00000000000E+00  0.00000000000E+00  0.73721389041E+03  0.73721389041E+03  0.00000000000E+00 0.  1.
         21   -1    0    0  501  503 -0.00000000000E+00 -0.00000000000E+00 -0.58382671436E+02  0.58382671436E+02  0.00000000000E+00 0.  1.
          6    2    1    2  501    0 -0.46557989907E+01 -0.16842924352E+02  0.11915284537E+03  0.21023453413E+03  0.17232468836E+03 0.  0.
         24    2    3    3    0    0 -0.22026332404E+02 -0.72678840219E+02  0.56065026210E+02  0.12408612812E+03  0.80540094947E+02 0.  0.
         -6    2    1    2    0  502  0.46557989907E+01  0.16842924352E+02  0.55967837361E+03  0.58536202771E+03  0.17059736528E+03 0.  0.
        -24    2    5    5    0    0  0.51683602503E+02  0.36342890591E+02  0.23200437859E+03  0.25372336893E+03  0.80978489698E+02 0.  0.
          5    1    3    3  501    0  0.17370533414E+02  0.55835915867E+02  0.63087819157E+02  0.86148406009E+02  0.47000000000E+01 0. -1.
        -13    1    4    4    0    0  0.42527703879E+01 -0.17654184165E+01 -0.17792006635E+02  0.18378200626E+02  0.00000000000E+00 0.  1.
         14    1    4    4    0    0 -0.26279102792E+02 -0.70913421803E+02  0.73857032844E+02  0.10570792750E+03  0.00000000000E+00 0. -1.
         -5    1    5    5    0  502 -0.47027803512E+02 -0.19499966239E+02  0.32767399502E+03  0.33163865878E+03  0.47000000000E+01 0.  1.
         11    1    6    6    0    0  0.66939084675E+02  0.11170807794E+02  0.19480402800E+03  0.20628678418E+03  0.00000000000E+00 0. -1.
        -12    1    6    6    0    0 -0.15255482173E+02  0.25172082796E+02  0.37200350588E+02  0.47436584748E+02  0.00000000000E+00 0.  1.
</event>
<event>
12    1  0.1627564E-001  0.2099100E+03  0.7818608E-02  0.1141712E+00
         21   -1    0    0  503  502  0.00000000000E+00  0.00000000000E+00  0.18557471952E+03  0.18557471952E+03  0.00000000000E+00 0.  1.
         21   -1    0    0  501  503 -0.00000000000E+00 -0.00000000000E+00 -0.31549891740E+03  0.31549891740E+03  0.00000000000E+00 0. -1.
          6    2    1    2  501    0  0.42835293041E+02  0.11127628385E+03 -0.18996558182E+03  0.28310623073E+03  0.17275688676E+03 0.  0.
         24    2    3    3    0    0 -0.23104057319E+02  0.11428669696E+03 -0.14918795048E+03  0.20537614819E+03  0.79542888503E+02 0.  0.
         -6    2    1    2    0  502 -0.42835293041E+02 -0.11127628385E+03  0.60041383933E+02  0.21796740619E+03  0.17230075073E+03 0.  0.
        -24    2    5    5    0    0 -0.23637645675E+02 -0.13407261631E+03  0.38501146053E+01  0.15418832509E+03  0.72284240833E+02 0.  0.
          5    1    3    3  501    0  0.65939350360E+02 -0.30104131133E+01 -0.40777631337E+02  0.77730082533E+02  0.47000000000E+01 0. -1.
        -11    1    4    4    0    0 -0.14099221641E+02  0.27572013617E+00  0.35731668415E+01  0.14547563155E+02  0.00000000000E+00 0.  1.
         12    1    4    4    0    0 -0.90048356774E+01  0.11401097683E+03 -0.15276111732E+03  0.19082858504E+03  0.00000000000E+00 0. -1.
         -5    1    5    5    0  502 -0.19197647366E+02  0.22796332463E+02  0.56191269327E+02  0.63779081106E+02  0.47000000000E+01 0.  1.
         11    1    6    6    0    0  0.18463059590E+02 -0.76394850628E+01 -0.51252088010E+01  0.20627992309E+02  0.00000000000E+00 0. -1.
        -12    1    6    6    0    0 -0.42100705266E+02 -0.12643313125E+03  0.89753234063E+01  0.13356033278E+03  0.00000000000E+00 0.  1.
</event>
<event>
12    1  0.1627564E-001  0.2004141E+03  0.7818608E-02  0.1149462E+00
         21   -1    0    0  503  502  0.00000000000E+00  0.00000000000E+00  0.18683183533E+03  0.18683183533E+03  0.00000000000E+00 0.  1.
         21   -1    0    0  501  503 -0.00000000000E+00 -0.00000000000E+00 -0.33288058491E+03  0.33288058491E+03  0.00000000000E+00 0. -1.
          6    2    1    2  501    0  0.40993842859E+02 -0.93055069196E+02 -0.22786931934E+03  0.30323973762E+03  0.17230835940E+03 0.  0.
         24    2    3    3    0    0 -0.22837971512E+02 -0.46492240335E+02 -0.47067005377E+02  0.10587164422E+03  0.79438030565E+02 0.  0.
         -6    2    1    2    0  502 -0.40993842859E+02  0.93055069196E+02  0.81820569761E+02  0.21647268262E+03  0.17270227454E+03 0.  0.
        -24    2    5    5    0    0 -0.87430535117E+02  0.71464130226E+02  0.30919029697E+02  0.14411529313E+03  0.84035771767E+02 0.  0.
          5    1    3    3  501    0  0.63831814371E+02 -0.46562828861E+02 -0.18080231397E+03  0.19736809340E+03  0.47000000000E+01 0. -1.
        -13    1    4    4    0    0 -0.49511930011E+01 -0.66700526003E+02 -0.26507880013E+02  0.71945411139E+02  0.00000000000E+00 0.  1.
         14    1    4    4    0    0 -0.17886778511E+02  0.20208285668E+02 -0.20559125364E+02  0.33926233078E+02  0.00000000000E+00 0. -1.
         -5    1    5    5    0  502  0.46436692258E+02  0.21590938970E+02  0.50901540064E+02  0.72357389494E+02  0.47000000000E+01 0.  1.
         13    1    6    6    0    0 -0.11429154243E+02 -0.17959467685E+02 -0.40269012606E+01  0.21665271288E+02  0.00000000000E+00 0. -1.
        -14    1    6    6    0    0 -0.76001380874E+02  0.89423597912E+02  0.34945930958E+02  0.12245002184E+03  0.00000000000E+00 0.  1.
</event>
<event>
12    1  0.1627564E-001  0.1995843E+03  0.7818608E-02  0.1150764E+00
         21   -1    0    0  501  502  0.00000000000E+00  0.00000000000E+00  0.11219855494E+04  0.11219855494E+04  0.00000000000E+00 0. -1.
         21   -1    0    0  502  503 -0.00000000000E+00 -0.00000000000E+00 -0.60106559810E+02  0.60106559810E+02  0.00000000000E+00 0. -1.
         -6    2    1    2    0  503 -0.82830211366E+02  0.52855008632E+02  0.14606457051E+03  0.24478215951E+03  0.17008512870E+03 0.  0.
        -24    2    3    3    0    0 -0.58106463059E+02 -0.21330138672E+02  0.46752448050E+02  0.11829228846E+03  0.89308108511E+02 0.  0.
          6    2    1    2  501    0  0.82830211366E+02 -0.52855008632E+02  0.91581441906E+03  0.93730994968E+03  0.17372217980E+03 0.  0.
         24    2    5    5    0    0  0.79042299206E+01  0.29067727701E+02  0.30453811702E+03  0.31601610224E+03  0.78837189921E+02 0.  0.
          5    1    5    5  501    0  0.74925981446E+02 -0.81922736333E+02  0.61127630204E+03  0.62129384744E+03  0.47000000000E+01 0. -1.
        -13    1    6    6    0    0 -0.22712392927E+02  0.19827245664E+02  0.42922146467E+02  0.52452675055E+02  0.00000000000E+00 0.  1.
         14    1    6    6    0    0  0.30616622847E+02  0.92404820371E+01  0.26161597055E+03  0.26356342719E+03  0.00000000000E+00 0. -1.
         -5    1    3    3    0  503 -0.24723748307E+02  0.74185147304E+02  0.99312122458E+02  0.12648987105E+03  0.47000000000E+01 0.  1.
         13    1    4    4    0    0 -0.15018056900E+02  0.30098366996E+02 -0.43999438043E+01  0.33923638283E+02  0.00000000000E+00 0. -1.
        -14    1    4    4    0    0 -0.43088406160E+02 -0.51428505668E+02  0.51152391855E+02  0.84368650179E+02  0.00000000000E+00 0.  1.
</event>
<event>
12    1  0.1627564E-001  0.1761588E+03  0.7818608E-02  0.1171588E+00
         21   -1    0    0  501  502  0.00000000000E+00  0.00000000000E+00  0.11029003408E+03  0.11029003408E+03  0.00000000000E+00 0. -1.
         21   -1    0    0  502  503 -0.00000000000E+00 -0.00000000000E+00 -0.31346189166E+03  0.31346189166E+03  0.00000000000E+00 0. -1.
         -6    2    1    2    0  503  0.33039779676E+02  0.21032140279E+02 -0.33676110181E+02  0.17929187573E+03  0.17169018126E+03 0.  0.
        -24    2    3    3    0    0 -0.17566334968E+02  0.49556239384E+02  0.22668792130E+02  0.98227450209E+02  0.79814540354E+02 0.  0.
          6    2    1    2  501    0 -0.33039779676E+02 -0.21032140279E+02 -0.16949574740E+03  0.24446005000E+03  0.17174961337E+03 0.  0.
         24    2    5    5    0    0 -0.64887161375E+02 -0.39454373504E+02 -0.52695482246E+02  0.12191199274E+03  0.79490432282E+02 0.  0.
          5    1    5    5  501    0  0.31847381700E+02  0.18422233225E+02 -0.11680026516E+03  0.12254805726E+03  0.47000000000E+01 0. -1.
        -11    1    6    6    0    0 -0.19147499242E+02 -0.11566370345E+02  0.21080615646E+02  0.30737599226E+02  0.00000000000E+00 0.  1.
         12    1    6    6    0    0 -0.45739662133E+02 -0.27888003160E+02 -0.73776097892E+02  0.91174393513E+02  0.00000000000E+00 0. -1.
         -5    1    3    3    0  503  0.50606114644E+02 -0.28524099104E+02 -0.56344902311E+02  0.81064425524E+02  0.47000000000E+01 0.  1.
         13    1    4    4    0    0  0.11358977263E+02 -0.18413763202E+02  0.67375525054E+01  0.22660265962E+02  0.00000000000E+00 0. -1.
        -14    1    4    4    0    0 -0.28925312231E+02  0.67970002585E+02  0.15931239624E+02  0.75567184247E+02  0.00000000000E+00 0.  1.
</event>
<event>
12    1  0.1627564E-001  0.2352226E+03  0.7818608E-02  0.1123293E+00
         21   -1    0    0  501  502  0.00000000000E+00  0.00000000000E+00  0.50460093760E+03  0.50460093760E+03  0.00000000000E+00 0.  1.
         21   -1    0    0  502  503 -0.00000000000E+00 -0.00000000000E+00 -0.18707081000E+03  0.18707081000E+03  0.00000000000E+00 0.  1.
         -6    2    1    2    0  503  0.76461074947E+02  0.13734896106E+03 -0.64471945791E+02  0.24389817745E+03  0.17498187358E+03 0.  0.
        -24    2    3    3    0    0 -0.13138214400E+02  0.10582229601E+03 -0.63060329675E+02  0.14878747395E+03  0.82402282826E+02 0.  0.
          6    2    1    2  501    0 -0.76461074947E+02 -0.13734896106E+03  0.38200207340E+03  0.44777357015E+03  0.17281363649E+03 0.  0.
         24    2    5    5    0    0 -0.90054543235E+02 -0.35394972133E+02  0.27435112603E+03  0.29880976680E+03  0.68235705988E+02 0.  0.
          5    1    5    5  501    0  0.13593468288E+02 -0.10195398893E+03  0.10765094737E+03  0.14896380335E+03  0.47000000000E+01 0. -1.
        -13    1    6    6    0    0 -0.27995622566E+02 -0.55921909715E+01  0.17866341559E+03  0.18092994101E+03  0.00000000000E+00 0.  1.
         14    1    6    6    0    0 -0.62058920670E+02 -0.29802781161E+02  0.95687710438E+02  0.11787982579E+03  0.00000000000E+00 0. -1.
         -5    1    3    3    0  503  0.89599289347E+02  0.31526665052E+02 -0.14116161166E+01  0.95110703503E+02  0.47000000000E+01 0.  1.
         13    1    4    4    0    0 -0.23474884413E+02 -0.86354628915E+00  0.17085266520E+01  0.23552812438E+02  0.00000000000E+00 0. -1.
        -14    1    4    4    0    0  0.10336670013E+02  0.10668584230E+03 -0.64768856327E+02  0.12523466151E+03  0.00000000000E+00 0.  1.
</event>
<event>
12    1  0.1627564E-001  0.1799112E+03  0.7818608E-02  0.1167960E+00
         21   -1    0    0  501  502  0.00000000000E+00  0.00000000000E+00  0.35869836148E+03  0.35869836148E+03  0.00000000000E+00 0. -1.
         21   -1    0    0  502  503 -0.00000000000E+00 -0.00000000000E+00 -0.12964696466E+03  0.12964696466E+03  0.00000000000E+00 0. -1.
         -6    2    1    2    0  503 -0.14972731212E+01 -0.53728501219E+02 -0.20411233073E+02  0.18077479918E+03  0.17138820237E+03 0.  0.
        -24    2    3    3    0    0  0.26957769578E+02 -0.72151235946E+02  0.36812884826E+02  0.11409814450E+03  0.75701227863E+02 0.  0.
          6    2    1    2  501    0  0.14972731212E+01  0.53728501219E+02  0.24946262989E+03  0.30757052696E+03  0.17169458836E+03 0.  0.
         24    2    5    5    0    0 -0.38855930027E+02  0.33460852101E+02  0.59260147627E+02  0.11202454039E+03  0.80051987048E+02 0.  0.
          5    1    5    5  501    0  0.40353203148E+02  0.20267649118E+02  0.19020248226E+03  0.19554598657E+03  0.47000000000E+01 0. -1.
        -11    1    6    6    0    0 -0.45132501942E+02 -0.41481781256E+01  0.48459899679E+01  0.45581067694E+02  0.00000000000E+00 0.  1.
         12    1    6    6    0    0  0.62765719159E+01  0.37609030227E+02  0.54414157659E+02  0.66443472692E+02  0.00000000000E+00 0. -1.
         -5    1    3    3    0  503 -0.28455042699E+02  0.18422734727E+02 -0.57224117899E+02  0.66676654679E+02  0.47000000000E+01 0.  1.
         13    1    4    4    0    0 -0.21212234447E+02 -0.40185959917E+02  0.33003969842E+02  0.56161662101E+02  0.00000000000E+00 0. -1.
        -14    1    4    4    0    0  0.48170004025E+02 -0.31965276028E+02  0.38089149843E+01  0.57936482398E+02  0.00000000000E+00 0.  1.
</event>
<event>
12    1  0.1627564E-001  0.2015834E+03  0.7818608E-02  0.1148411E+00
         21   -1    0    0  501  502  0.00000000000E+00  0.00000000000E+00  0.16210684137E+03  0.16210684137E+03  0.00000000000E+00 0. -1.
         21   -1    0    0  502  503 -0.00000000000E+00 -0.00000000000E+00 -0.26454959153E+03  0.26454959153E+03  0.00000000000E+00 0. -1.
         -6    2    1    2    0  503 -0.40734397637E+01 -0.10454056365E+03 -0.10008967644E+03  0.22506397594E+03  0.17230939492E+03 0.  0.
        -24    2    3    3    0    0 -0.51633046510E+02 -0.11448265517E+03 -0.55767652559E+02  0.15912996971E+03  0.80250024058E+02 0.  0.
          6    2    1    2  501    0  0.40734397637E+01  0.10454056365E+03 -0.23530737291E+01  0.20159245696E+03  0.17230397380E+03 0.  0.
         24    2    5    5    0    0 -0.24801385273E+02  0.11201590662E+03 -0.46749301884E+02  0.14790119745E+03  0.80787343887E+02 0.  0.
          5    1    5    5  501    0  0.28874825037E+02 -0.74753429682E+01  0.44396228155E+02  0.53691259510E+02  0.47000000000E+01 0. -1.
        -11    1    6    6    0    0 -0.21137561172E+02 -0.47829350110E+01 -0.16372496949E+02  0.27161215289E+02  0.00000000000E+00 0.  1.
         12    1    6    6    0    0 -0.36638241009E+01  0.11679884163E+03 -0.30376804935E+02  0.12073998216E+03  0.00000000000E+00 0. -1.
         -5    1    3    3    0  503  0.47559606746E+02  0.99420915150E+01 -0.44322023878E+02  0.65934006235E+02  0.47000000000E+01 0.  1.
         13    1    4    4    0    0  0.18413586470E+02 -0.14186977948E+02 -0.22504033843E+02  0.32353702249E+02  0.00000000000E+00 0. -1.
        -14    1    4    4    0    0 -0.70046632981E+02 -0.10029567722E+03 -0.33263618716E+02  0.12677626746E+03  0.00000000000E+00 0.  1.
</event>
<event>
12    1  0.1627564E-001  0.2063153E+03  0.7818608E-02  0.1144565E+00
         21   -1    0    0  503  502  0.00000000000E+00  0.00000000000E+00  0.77849365945E+02  0.77849365945E+02  0.00000000000E+00 0. -1.
         21   -1    0    0  501  503 -0.00000000000E+00 -0.00000000000E+00 -0.54894621327E+03  0.54894621327E+03  0.00000000000E+00 0. -1.
          6    2    1    2  501    0  0.83913093557E+01 -0.11232372858E+03 -0.25778337217E+03  0.33003195739E+03  0.17257401849E+03 0.  0.
         24    2    3    3    0    0 -0.48672166303E+02 -0.10218424351E+03 -0.15685056949E+03  0.21354775216E+03  0.90498297817E+02 0.  0.
         -6    2    1    2    0  502 -0.83913093557E+01  0.11232372858E+03 -0.21331347515E+03  0.29676362182E+03  0.17285535711E+03 0.  0.
        -24    2    5    5    0    0  0.54706257464E+01 -0.83328587988E+01 -0.64039887618E+02  0.10426723418E+03  0.81677320198E+02 0.  0.
          5    1    3    3  501    0  0.57063475658E+02 -0.10139485061E+02 -0.10093280268E+03  0.11648420523E+03  0.47000000000E+01 0. -1.
        -13    1    4    4    0    0 -0.14040311800E+02  0.14323817163E+02 -0.85554699989E+01  0.21805920307E+02  0.00000000000E+00 0.  1.
         14    1    4    4    0    0 -0.34631854503E+02 -0.11650806068E+03 -0.14829509949E+03  0.19174183185E+03  0.00000000000E+00 0. -1.
         -5    1    5    5    0  502 -0.13861935102E+02  0.12065658737E+03 -0.14927358753E+03  0.19249638765E+03  0.47000000000E+01 0.  1.
         13    1    6    6    0    0  0.11747487395E+02  0.15484795147E+02  0.13001534155E+02  0.23384230396E+02  0.00000000000E+00 0. -1.
        -14    1    6    6    0    0 -0.62768616491E+01 -0.23817653946E+02 -0.77041421773E+02  0.80883003780E+02  0.00000000000E+00 0.  1.
</event>
<event>
12    1  0.1627564E-001  0.1919046E+03  0.7818608E-02  0.1156956E+00
         21   -1    0    0  501  502  0.00000000000E+00  0.00000000000E+00  0.13895883593E+03  0.13895883593E+03  0.00000000000E+00 0.  1.
         21   -1    0    0  502  503 -0.00000000000E+00 -0.00000000000E+00 -0.33137039488E+03  0.33137039488E+03  0.00000000000E+00 0.  1.
         -6    2    1    2    0  503  0.69743156844E+02  0.46968978012E+02 -0.20259747275E+03  0.27905756761E+03  0.17250274564E+03 0.  0.
        -24    2    3    3    0    0  0.11164926749E+02  0.43187906217E+01 -0.19862787570E+02  0.82424654053E+02  0.79094789486E+02 0.  0.
          6    2    1    2  501    0 -0.69743156844E+02 -0.46968978012E+02  0.10185913802E+02  0.19127166320E+03  0.17149607424E+03 0.  0.
         24    2    5    5    0    0 -0.11075325481E+03 -0.25618398640E+02  0.26959741875E+02  0.14186390386E+03  0.80473310706E+02 0.  0.
          5    1    5    5  501    0  0.41010097966E+02 -0.21350579372E+02 -0.16773828073E+02  0.49407759339E+02  0.47000000000E+01 0. -1.
        -11    1    6    6    0    0 -0.46698947221E+02  0.19511452740E+02  0.37241221662E+02  0.62836271774E+02  0.00000000000E+00 0.  1.
         12    1    6    6    0    0 -0.64054307588E+02 -0.45129851380E+02 -0.10281479787E+02  0.79027632084E+02  0.00000000000E+00 0. -1.
         -5    1    3    3    0  503  0.58578230095E+02  0.42650187391E+02 -0.18273468518E+03  0.19663291355E+03  0.47000000000E+01 0.  1.
         11    1    4    4    0    0  0.31727552035E+02  0.29620611816E+02  0.15245875232E+01  0.43432045423E+02  0.00000000000E+00 0. -1.
        -12    1    4    4    0    0 -0.20562625286E+02 -0.25301821194E+02 -0.21387375093E+02  0.38992608630E+02  0.00000000000E+00 0.  1.
</event>
<event>
12    1  0.1627564E-001  0.2810066E+03  0.7818608E-02  0.1096013E+00
         21   -1    0    0  503  502  0.00000000000E+00  0.00000000000E+00  0.73931274130E+02  0.73931274130E+02  0.00000000000E+00 0.  1.
         21   -1    0    0  501  503 -0.00000000000E+00 -0.00000000000E+00 -0.14577096570E+04  0.14577096570E+04  0.00000000000E+00 0. -1.
          6    2    1    2  501    0 -0.19162430644E+03 -0.95158416896E+02 -0.10941403314E+04  0.11280880603E+04  0.17223416576E+03 0.  0.
         24    2    3    3    0    0 -0.13913803916E+03 -0.13064937994E+03 -0.90944400843E+03  0.93276976000E+03  0.80884895264E+02 0.  0.
         -6    2    1    2    0  502  0.19162430644E+03  0.95158416896E+02 -0.28963805151E+03  0.40355287088E+03  0.18218045884E+03 0.  0.
        -24    2    5    5    0    0  0.25722589258E+02 -0.11216627006E+02 -0.70364055604E+02  0.10869323476E+03  0.77946485759E+02 0.  0.
          5    1    3    3  501    0 -0.52486267284E+02  0.35490963040E+02 -0.18469632293E+03  0.19531830026E+03  0.47000000000E+01 0. -1.
        -13    1    4    4    0    0 -0.10517852177E+02 -0.60944784549E+01 -0.10182043887E+02  0.15856919618E+02  0.00000000000E+00 0.  1.
         14    1    4    4    0    0 -0.12862018698E+03 -0.12455490148E+03 -0.89926196455E+03  0.91691284038E+03  0.00000000000E+00 0. -1.
         -5    1    5    5    0  502  0.16590171718E+03  0.10637504390E+03 -0.21927399591E+03  0.29485963612E+03  0.47000000000E+01 0.  1.
         11    1    6    6    0    0  0.14183850218E+02  0.11856690068E+02 -0.79273382469E+02  0.81400441489E+02  0.00000000000E+00 0. -1.
        -12    1    6    6    0    0  0.11538739040E+02 -0.23073317074E+02  0.89093268651E+01  0.27292793273E+02  0.00000000000E+00 0.  1.
</event>
<event>
12    1  0.1627564E-001  0.2173603E+03  0.7818608E-02  0.1135929E+00
         21   -1    0    0  501  502  0.00000000000E+00  0.00000000000E+00  0.35491526202E+03  0.35491526202E+03  0.00000000000E+00 0.  1.
         21   -1    0    0  502  503 -0.00000000000E+00 -0.00000000000E+00 -0.13543822265E+03  0.13543822265E+03  0.00000000000E+00 0.  1.
         -6    2    1    2    0  503  0.75915947471E+02  0.10877627691E+03  0.14312195260E+03  0.25997206007E+03  0.17177330760E+03 0.  0.
        -24    2    3    3    0    0 -0.28090252114E+01  0.10126783452E+03  0.51291178004E+02  0.13869147962E+03  0.79633389026E+02 0.  0.
          6    2    1    2  501    0 -0.75915947471E+02 -0.10877627691E+03  0.76355086770E+02  0.23038142460E+03  0.17219173043E+03 0.  0.
         24    2    5    5    0    0 -0.10671170835E+03 -0.71938734262E+02  0.14539777023E+02  0.15196837750E+03  0.79501021741E+02 0.  0.
          5    1    5    5  501    0  0.30795760881E+02 -0.36837542646E+02  0.61815309747E+02  0.78413047100E+02  0.47000000000E+01 0. -1.
        -11    1    6    6    0    0 -0.92187963115E+02 -0.31547488348E+02  0.36132280800E+02  0.10392019188E+03  0.00000000000E+00 0.  1.
         12    1    6    6    0    0 -0.14523745237E+02 -0.40391245914E+02 -0.21592503777E+02  0.48048185622E+02  0.00000000000E+00 0. -1.
         -5    1    3    3    0  503  0.78724972682E+02  0.75084423841E+01  0.91830774595E+02  0.12128058045E+03  0.47000000000E+01 0.  1.
         11    1    4    4    0    0 -0.69686608319E+01  0.10495403281E+02  0.45973394111E+02  0.47668319562E+02  0.00000000000E+00 0. -1.
        -12    1    4    4    0    0  0.41596356205E+01  0.90772431242E+02  0.53177838927E+01  0.91023160062E+02  0.00000000000E+00 0.  1.
</event>
<event>
12    1  0.1627564E-001  0.2143030E+03  0.7818608E-02  0.1138250E+00
         21   -1    0    0  503  502  0.00000000000E+00  0.00000000000E+00  0.89451627981E+03  0.89451627981E+03  0.00000000000E+00 0. -1.
         21   -1    0    0  501  503 -0.00000000000E+00 -0.00000000000E+00 -0.69259805807E+02  0.69259805807E+02  0.00000000000E+00 0.  1.
          6    2    1    2  501    0 -0.10614199228E+03 -0.64035174728E+02  0.16729748973E+03  0.27187168884E+03  0.17481172442E+03 0.  0.
         24    2    3    3    0    0 -0.22288234836E+02 -0.42507055956E+02  0.14773717941E+02  0.96427955706E+02  0.82319333583E+02 0.  0.
         -6    2    1    2    0  502  0.10614199228E+03  0.64035174728E+02  0.65795898427E+03  0.69190439678E+03  0.17451373346E+03 0.  0.
        -24    2    5    5    0    0  0.37544032936E+02 -0.27797051425E+02  0.20621544782E+03  0.22582162461E+03  0.79299210230E+02 0.  0.
          5    1    3    3  501    0 -0.83853757445E+02 -0.21528118772E+02  0.15252377179E+03  0.17544373314E+03  0.47000000000E+01 0. -1.
        -11    1    4    4    0    0 -0.10920579351E+02  0.24047293336E+02  0.11569618315E+02  0.28833789867E+02  0.00000000000E+00 0.  1.
         12    1    4    4    0    0 -0.11367655485E+02 -0.66554349292E+02  0.32040996260E+01  0.67594165838E+02  0.00000000000E+00 0. -1.
         -5    1    5    5    0  502  0.68597959345E+02  0.91832226153E+02  0.45174353645E+03  0.46608277217E+03  0.47000000000E+01 0.  1.
         11    1    6    6    0    0 -0.15168333769E+02  0.27053057147E+01  0.11572335812E+03  0.11674456151E+03  0.00000000000E+00 0. -1.
        -12    1    6    6    0    0  0.52712366705E+02 -0.30502357140E+02  0.90492089698E+02  0.10907706309E+03  0.00000000000E+00 0.  1.
</event>
<event>
12    1  0.1627564E-001  0.2962765E+03  0.7818608E-02  0.1087229E+00
         21   -1    0    0  503  502  0.00000000000E+00  0.00000000000E+00  0.10547288305E+04  0.10547288305E+04  0.00000000000E+00 0. -1.
         21   -1    0    0  501  503 -0.00000000000E+00 -0.00000000000E+00 -0.83017604559E+02  0.83017604559E+02  0.00000000000E+00 0.  1.
          6    2    1    2  501    0  0.14419891315E+03 -0.19244586841E+03  0.47396263130E+03  0.55894573308E+03  0.17306362366E+03 0.  0.
         24    2    3    3    0    0  0.14923666019E+03 -0.14971541543E+03  0.28303333701E+03  0.36317199652E+03  0.84259971730E+02 0.  0.
         -6    2    1    2    0  502 -0.14419891315E+03  0.19244586841E+03  0.49774859466E+03  0.57880070200E+03  0.17154547597E+03 0.  0.
        -24    2    5    5    0    0 -0.91010625634E+02  0.32300300971E+02  0.20372260686E+03  0.23975945347E+03  0.81580950979E+02 0.  0.
          5    1    3    3  501    0 -0.50377470383E+01 -0.42730452976E+02  0.19092929429E+03  0.19577373656E+03  0.47000000000E+01 0. -1.
        -11    1    4    4    0    0  0.82933842165E+02 -0.26083041900E+02  0.11800065867E+03  0.14656910554E+03  0.00000000000E+00 0.  1.
         12    1    4    4    0    0  0.66302818026E+02 -0.12363237353E+03  0.16503267834E+03  0.21660289098E+03  0.00000000000E+00 0. -1.
         -5    1    5    5    0  502 -0.53188287519E+02  0.16014556744E+03  0.29402598780E+03  0.33904124853E+03  0.47000000000E+01 0.  1.
         13    1    6    6    0    0 -0.93376664091E+02  0.50947071201E+02  0.15959131663E+03  0.19179205877E+03  0.00000000000E+00 0. -1.
        -14    1    6    6    0    0  0.23660384567E+01 -0.18646770230E+02  0.44131290222E+02  0.47967394703E+02  0.00000000000E+00 0.  1.
</event>
<event>
12    1  0.1627564E-001  0.2044629E+03  0.7818608E-02  0.1147005E+00
         21   -1    0    0  501  502  0.00000000000E+00  0.00000000000E+00  0.41371170383E+03  0.41371170383E+03  0.00000000000E+00 0. -1.
         21   -1    0    0  502  503 -0.00000000000E+00 -0.00000000000E+00 -0.19199335486E+03  0.19199335486E+03  0.00000000000E+00 0. -1.
         -6    2    1    2    0  503 -0.85564437193E+02 -0.67327738595E+02 -0.99543270734E+02  0.22740699934E+03  0.17306294607E+03 0.  0.
        -24    2    3    3    0    0  0.52047646304E+00 -0.35435631057E+02  0.55799593074E+01  0.87762084011E+02  0.80094273203E+02 0.  0.
          6    2    1    2  501    0  0.85564437193E+02  0.67327738595E+02  0.32126161970E+03  0.37829805935E+03  0.16746968715E+03 0.  0.
         24    2    5    5    0    0  0.55246226937E+02  0.10517789093E+03  0.28044471104E+03  0.31473755323E+03  0.79347067569E+02 0.  0.
          5    1    5    5  501    0  0.30318210255E+02 -0.37850152333E+02  0.40816908661E+02  0.63560506113E+02  0.47000000000E+01 0. -1.
        -13    1    6    6    0    0  0.60547523117E+02  0.69340772825E+02  0.12566603719E+03  0.15577579476E+03  0.00000000000E+00 0.  1.
         14    1    6    6    0    0 -0.53012961799E+01  0.35837118103E+02  0.15477867386E+03  0.15896175847E+03  0.00000000000E+00 0. -1.
         -5    1    3    3    0  503 -0.86084913656E+02 -0.31892107538E+02 -0.10512323004E+03  0.13964491533E+03  0.47000000000E+01 0.  1.
         11    1    4    4    0    0 -0.24613580279E+01 -0.17850209516E+02 -0.37242989321E+02  0.41373040941E+02  0.00000000000E+00 0. -1.
        -12    1    4    4    0    0  0.29818344909E+01 -0.17585421541E+02  0.42822948629E+02  0.46389043070E+02  0.00000000000E+00 0.  1.
</event>
<event>
12    1  0.1627564E-001  0.2111085E+03  0.7818608E-02  0.1140906E+00
         21   -1    0    0  503  502  0.00000000000E+00  0.00000000000E+00  0.33843972116E+03  0.33843972116E+03  0.00000000000E+00 0. -1.
         21   -1    0    0  501  503 -0.00000000000E+00 -0.00000000000E+00 -0.29875323967E+03  0.29875323967E+03  0.00000000000E+00 0.  1.
          6    2    1    2  501    0  0.60513034493E+02 -0.10624615143E+03 -0.21891212672E+03  0.30336661668E+03  0.17075922479E+03 0.  0.
         24    2    3    3    0    0  0.78178464044E+02 -0.10223090987E+03 -0.23441540488E+03  0.27906371151E+03  0.79768050372E+02 0.  0.
         -6    2    1    2    0  502 -0.60513034493E+02  0.10624615143E+03  0.25859860821E+03  0.33382634415E+03  0.17209507792E+03 0.  0.
        -24    2    5    5    0    0  0.28522128443E+02  0.22472824782E+02  0.92606820008E+02  0.12762112054E+03  0.79953659267E+02 0.  0.
          5    1    3    3  501    0 -0.17665429551E+02 -0.40152415581E+01  0.15503278160E+02  0.24302905170E+02  0.47000000000E+01 0. -1.
        -13    1    4    4    0    0  0.37605243133E+02 -0.31278672037E+02 -0.16413686863E+03  0.17127002446E+03  0.00000000000E+00 0.  1.
         14    1    4    4    0    0  0.40573220910E+02 -0.70952237833E+02 -0.70278536251E+02  0.10779368704E+03  0.00000000000E+00 0. -1.
         -5    1    5    5    0  502 -0.89035162935E+02  0.83773326646E+02  0.16599178821E+03  0.20620522362E+03  0.47000000000E+01 0.  1.
         11    1    6    6    0    0  0.28524202048E+02  0.45498108639E+02  0.31353695337E+02  0.62183295213E+02  0.00000000000E+00 0. -1.
        -12    1    6    6    0    0 -0.20736059262E-02 -0.23025283857E+02  0.61253124671E+02  0.65437825323E+02  0.00000000000E+00 0.  1.
</event>
<event>
12    1  0.1627564E-001  0.1994820E+03  0.7818608E-02  0.1151573E+00
         21   -1    0    0  503  502  0.00000000000E+00  0.00000000000E+00  0.43661343552E+03  0.43661343552E+03  0.00000000000E+00 0. -1.
         21   -1    0    0  501  503 -0.00000000000E+00 -0.00000000000E+00 -0.11969190452E+03  0.11969190452E+03  0.00000000000E+00 0. -1.
          6    2    1    2  501    0 -0.81281868322E+02 -0.42449755051E+02  0.17736090726E+02  0.20026893994E+03  0.17715630265E+03 0.  0.
         24    2    3    3    0    0 -0.79909325329E+02 -0.68966299470E+02  0.62226940971E+02  0.14824455376E+03  0.83441025874E+02 0.  0.
         -6    2    1    2    0  502  0.81281868322E+02  0.42449755051E+02  0.29918544027E+03  0.35603640010E+03  0.16982716717E+03 0.  0.
        -24    2    5    5    0    0  0.34055691594E+02  0.87942544603E+02  0.22312845174E+03  0.25550450878E+03  0.81256179758E+02 0.  0.
          5    1    3    3  501    0 -0.13725429937E+01  0.26516544418E+02 -0.44490850244E+02  0.52024386182E+02  0.47000000000E+01 0. -1.
        -13    1    4    4    0    0 -0.54596040194E+02 -0.32123775831E+01  0.54757902957E+02  0.77391697945E+02  0.00000000000E+00 0.  1.
         14    1    4    4    0    0 -0.25313285135E+02 -0.65753921887E+02  0.74690380136E+01  0.70852855812E+02  0.00000000000E+00 0. -1.
         -5    1    5    5    0  502  0.47226176729E+02 -0.45492789552E+02  0.76056988523E+02  0.10053189132E+03  0.47000000000E+01 0.  1.
         11    1    6    6    0    0  0.81193627465E+01  0.67453633442E+02  0.65235638545E+02  0.94189199234E+02  0.00000000000E+00 0. -1.
        -12    1    6    6    0    0  0.25936328847E+02  0.20488911161E+02  0.15789281320E+03  0.16131530955E+03  0.00000000000E+00 0.  1.
</event>
<event>
12    1  0.1627564E-001  0.1734072E+03  0.7818608E-02  0.1174579E+00
         21   -1    0    0  503  502  0.00000000000E+00  0.00000000000E+00  0.85434006850E+02  0.85434006850E+02  0.00000000000E+00 0.  1.
         21   -1    0    0  501  503 -0.00000000000E+00 -0.00000000000E+00 -0.69794815214E+03  0.69794815214E+03  0.00000000000E+00 0.  1.
          6    2    1    2  501    0  0.12997747033E+02 -0.82903416326E+01 -0.58320345625E+03  0.60843762502E+03  0.17272058640E+03 0.  0.
         24    2    3    3    0    0  0.18442821499E+02 -0.93754025350E+01 -0.59168621719E+03  0.59726294712E+03  0.78755396960E+02 0.  0.
         -6    2    1    2    0  502 -0.12997747033E+02  0.82903416326E+01 -0.29310689045E+02  0.17494453397E+03  0.17178126290E+03 0.  0.
        -24    2    5    5    0    0 -0.55737093574E+02  0.52623181209E+02 -0.17762638548E+02  0.11211540158E+03  0.79865694398E+02 0.  0.
          5    1    3    3  501    0 -0.54450744659E+01  0.10850609024E+01  0.84827609392E+01  0.11174677904E+02  0.47000000000E+01 0. -1.
        -13    1    4    4    0    0  0.17932993317E+02 -0.34196194133E+02 -0.15035477040E+03  0.15523378796E+03  0.00000000000E+00 0.  1.
         14    1    4    4    0    0  0.50982818170E+00  0.24820791598E+02 -0.44133144678E+03  0.44202915915E+03  0.00000000000E+00 0. -1.
         -5    1    5    5    0  502  0.42739346541E+02 -0.44332839576E+02 -0.11548050497E+02  0.62829132398E+02  0.47000000000E+01 0.  1.
         11    1    6    6    0    0  0.10076618604E+02  0.41569775550E+02  0.10244843577E+01  0.42785909479E+02  0.00000000000E+00 0. -1.
        -12    1    6    6    0    0 -0.65813712178E+02  0.11053405659E+02 -0.18787122906E+02  0.69329492097E+02  0.00000000000E+00 0.  1.
</event>
<event>
12    1  0.1627564E-001  0.3350755E+03  0.7818608E-02  0.1068920E+00
         21   -1    0    0  503  502  0.00000000000E+00  0.00000000000E+00  0.11904009207E+03  0.11904009207E+03  0.00000000000E+00 0.  1.
         21   -1    0    0  501  503 -0.00000000000E+00 -0.00000000000E+00 -0.96738165417E+03  0.96738165417E+03  0.00000000000E+00 0. -1.
          6    2    1    2  501    0  0.24105128335E+03 -0.15697075284E+03 -0.33786138831E+03  0.47579453657E+03  0.17171075933E+03 0.  0.
         24    2    3    3    0    0  0.18625648860E+03 -0.18156473895E+03 -0.25193998696E+03  0.37085688416E+03  0.80023980929E+02 0.  0.
         -6    2    1    2    0  502 -0.24105128335E+03  0.15697075284E+03 -0.51048017380E+03  0.61062720967E+03  0.17184307635E+03 0.  0.
        -24    2    5    5    0    0 -0.43244132621E+02  0.70873601759E+02 -0.19456750723E+03  0.22805265327E+03  0.85196099442E+02 0.  0.
          5    1    3    3  501    0  0.54794794756E+02  0.24593986106E+02 -0.85921401347E+02  0.10493765241E+03  0.47000000000E+01 0. -1.
        -11    1    4    4    0    0  0.55773714458E+02 -0.10996610711E+03 -0.11311371706E+03  0.16732592424E+03  0.00000000000E+00 0.  1.
         12    1    4    4    0    0  0.13048277414E+03 -0.71598631834E+02 -0.13882626990E+03  0.20353095991E+03  0.00000000000E+00 0. -1.
         -5    1    5    5    0  502 -0.19780715073E+03  0.86097151081E+02 -0.31591266657E+03  0.38257455640E+03  0.47000000000E+01 0.  1.
         11    1    6    6    0    0 -0.40634492114E+02  0.89982852142E+02 -0.17239375061E+03  0.19866474493E+03  0.00000000000E+00 0. -1.
        -12    1    6    6    0    0 -0.26096405075E+01 -0.19109250382E+02 -0.22173756617E+02  0.29387908334E+02  0.00000000000E+00 0.  1.
</event>
<event>
12    1  0.1627564E-001  0.2716741E+03  0.7818608E-02  0.1100744E+00
         21   -1    0    0  501  502  0.00000000000E+00  0.00000000000E+00  0.13360942018E+03  0.13360942018E+03  0.00000000000E+00 0.  1.
         21   -1    0    0  502  503 -0.00000000000E+00 -0.00000000000E+00 -0.80435389332E+03  0.80435389332E+03  0.00000000000E+00 0. -1.
         -6    2    1    2    0  503 -0.88622562173E+02  0.18649024460E+03 -0.59968899484E+03  0.65715076564E+03  0.17201066361E+03 0.  0.
        -24    2    3    3    0    0 -0.80295984677E+02  0.96011221108E+02 -0.50176252099E+03  0.52348151014E+03  0.81250626222E+02 0.  0.
          6    2    1    2  501    0  0.88622562173E+02 -0.18649024460E+03 -0.71055478304E+02  0.28081254786E+03  0.17656227282E+03 0.  0.
         24    2    5    5    0    0 -0.20653856177E+02 -0.44245443954E+02 -0.34737380712E+02  0.97738756371E+02  0.77213585544E+02 0.  0.
          5    1    5    5  501    0  0.10927641835E+03 -0.14224480064E+03 -0.36318097592E+02  0.18307379149E+03  0.47000000000E+01 0. -1.
        -13    1    6    6    0    0 -0.59702257120E+00 -0.15094186275E+02  0.24473732604E+02  0.28760293510E+02  0.00000000000E+00 0.  1.
         14    1    6    6    0    0 -0.20056833606E+02 -0.29151257679E+02 -0.59211113316E+02  0.68978462861E+02  0.00000000000E+00 0. -1.
         -5    1    3    3    0  503 -0.83265774966E+01  0.90479023489E+02 -0.97926473850E+02  0.13366925550E+03  0.47000000000E+01 0.  1.
         11    1    4    4    0    0 -0.57148113208E+02  0.10552345728E+03 -0.35856825859E+03  0.37811678480E+03  0.00000000000E+00 0. -1.
        -12    1    4    4    0    0 -0.23147871469E+02 -0.95122361741E+01 -0.14319426240E+03  0.14536472535E+03  0.00000000000E+00 0.  1.
</event>
<event>
12    1  0.1627564E-001  0.2068918E+03  0.7818608E-02  0.1144787E+00
         21   -1    0    0  503  502  0.00000000000E+00  0.00000000000E+00  0.80603089777E+02  0.80603089777E+02  0.00000000000E+00 0.  1.
         21   -1    0    0  501  503 -0.00000000000E+00 -0.00000000000E+00 -0.74343625069E+03  0.74343625069E+03  0.00000000000E+00 0.  1.
          6    2    1    2  501    0  0.77488844990E+02 -0.87467652831E+02 -0.55841104748E+03  0.59550575164E+03  0.17073104841E+03 0.  0.
         24    2    3    3    0    0 -0.19818763980E+02 -0.43037529004E+02 -0.25525981434E+03  0.27400059332E+03  0.87599885935E+02 0.  0.
         -6    2    1    2    0  502 -0.77488844990E+02  0.87467652831E+02 -0.10442211343E+03  0.22853358883E+03  0.16633854653E+03 0.  0.
        -24    2    5    5    0    0 -0.38602135293E+02  0.74250708458E+02  0.11462009110E+01  0.11515976997E+03  0.79102252103E+02 0.  0.
          5    1    3    3  501    0  0.97307608970E+02 -0.44430123827E+02 -0.30315123314E+03  0.32150515831E+03  0.47000000000E+01 0. -1.
        -11    1    4    4    0    0  0.14205352724E+02 -0.54238990887E+02 -0.20330134932E+03  0.21089120137E+03  0.00000000000E+00 0.  1.
         12    1    4    4    0    0 -0.34024116704E+02  0.11201461883E+02 -0.51958465016E+02  0.63109391953E+02  0.00000000000E+00 0. -1.
         -5    1    5    5    0  502 -0.38886709698E+02  0.13216944373E+02 -0.10556831434E+03  0.11337381886E+03  0.47000000000E+01 0.  1.
         11    1    6    6    0    0  0.10092195155E+02  0.44618059266E+02 -0.25351080011E+02  0.52300103952E+02  0.00000000000E+00 0. -1.
        -12    1    6    6    0    0 -0.48694330447E+02  0.29632649192E+02  0.26497280922E+02  0.62859666020E+02  0.00000000000E+00 0.  1.
</event>
<event>
12    1  0.1627564E-001  0.2275735E+03  0.7818608E-02  0.1128604E+00
         21   -1    0    0  501  502  0.00000000000E+00  0.00000000000E+00  0.40843797578E+03  0.40843797578E+03  0.00000000000E+00 0.  1.
         21   -1    0    0  502  503 -0.00000000000E+00 -0.00000000000E+00 -0.18966909184E+03  0.18966909184E+03  0.00000000000E+00 0.  1.
         -6    2    1    2    0  503  0.11505266404E+03  0.92556977238E+02 -0.63608774213E+02  0.23629592805E+03  0.17316402605E+03 0.  0.
        -24    2    3    3    0    0  0.11903818815E+03  0.30895194287E+02  0.18518997234E+01  0.14615576102E+03  0.78952350687E+02 0.  0.
          6    2    1    2  501    0 -0.11505266404E+03 -0.92556977238E+02  0.28237765815E+03  0.36181113957E+03  0.17136583487E+03 0.  0.
         24    2    5    5    0    0 -0.12547500113E+03 -0.12177091578E+03  0.25975136561E+03  0.32313144943E+03  0.79818731100E+02 0.  0.
          5    1    5    5  501    0  0.10422337096E+02  0.29213938540E+02  0.22626292539E+02  0.38679690144E+02  0.47000000000E+01 0. -1.
        -11    1    6    6    0    0 -0.57379381227E+02 -0.98399331366E+02  0.11721517617E+03  0.16344485103E+03  0.00000000000E+00 0.  1.
         12    1    6    6    0    0 -0.68095619907E+02 -0.23371584412E+02  0.14253618944E+03  0.15968659840E+03  0.00000000000E+00 0. -1.
         -5    1    3    3    0  503 -0.39855241148E+01  0.61661782951E+02 -0.65460673936E+02  0.90140167025E+02  0.47000000000E+01 0.  1.
         13    1    4    4    0    0  0.77388525316E+01  0.22739864994E+02  0.22211479028E+02  0.32716067903E+02  0.00000000000E+00 0. -1.
        -14    1    4    4    0    0  0.11129933562E+03  0.81553292935E+01 -0.20359579305E+02  0.11343969312E+03  0.00000000000E+00 0.  1.
</event>
<event>
12    1  0.1627564E-001  0.3020071E+03  0.7818608E-02  0.1084326E+00
         21   -1    0    0  503  502  0.00000000000E+00  0.00000000000E+00  0.59579029279E+02  0.59579029279E+02  0.00000000000E+00 0. -1.
         21   -1    0    0  501  503 -0.00000000000E+00 -0.00000000000E+00 -0.15927209641E+04  0.15927209641E+04  0.00000000000E+00 0.  1.
          6    2    1    2  501    0 -0.23951429234E+03  0.62947314622E+02 -0.93467604421E+03  0.98225636576E+03  0.17285485184E+03 0.  0.
         24    2    3    3    0    0 -0.25735193399E+03  0.40044099607E+02 -0.84099066983E+03  0.88406380958E+03  0.80436091502E+02 0.  0.
         -6    2    1    2    0  502  0.23951429234E+03 -0.62947314622E+02 -0.59846589058E+03  0.67004362759E+03  0.17166123624E+03 0.  0.
        -24    2    5    5    0    0  0.16661984462E+03 -0.10767085130E+03 -0.39980259461E+03  0.45370363959E+03  0.81545650272E+02 0.  0.
          5    1    3    3  501    0  0.17837641651E+02  0.22903215016E+02 -0.93685374378E+02  0.98192556184E+02  0.47000000000E+01 0. -1.
        -11    1    4    4    0    0 -0.28170705527E+02  0.11049469081E+02 -0.20895121384E+03  0.21113097636E+03  0.00000000000E+00 0.  1.
         12    1    4    4    0    0 -0.22918122846E+03  0.28994630525E+02 -0.63203945600E+03  0.67293283321E+03  0.00000000000E+00 0. -1.
         -5    1    5    5    0  502  0.72894447720E+02  0.44723536678E+02 -0.19866329597E+03  0.21633998800E+03  0.47000000000E+01 0.  1.
         11    1    6    6    0    0  0.47049322313E+01 -0.14972642395E+02 -0.95335946127E+02  0.96619144229E+02  0.00000000000E+00 0. -1.
        -12    1    6    6    0    0  0.16191491239E+03 -0.92698208905E+02 -0.30446664849E+03  0.35708449536E+03  0.00000000000E+00 0.  1.
</event>
<event>
12    1  0.1627564E-001  0.2698580E+03  0.7818608E-02  0.1101597E+00
         21   -1    0    0  501  502  0.00000000000E+00  0.00000000000E+00  0.14116259364E+03  0.14116259364E+03  0.00000000000E+00 0. -1.
         21   -1    0    0  502  503 -0.00000000000E+00 -0.00000000000E+00 -0.59534948195E+03  0.59534948195E+03  0.00000000000E+00 0. -1.
         -6    2    1    2    0  503  0.15922367027E+03 -0.12910655313E+03 -0.36366773640E+03  0.45187712708E+03  0.17296830992E+03 0.  0.
        -24    2    3    3    0    0  0.14850959334E+03 -0.11490420643E+03 -0.37771068376E+03  0.42872993574E+03  0.76719757591E+02 0.  0.
          6    2    1    2  501    0 -0.15922367027E+03  0.12910655313E+03 -0.90519151909E+02  0.28463494852E+03  0.17550685975E+03 0.  0.
         24    2    5    5    0    0 -0.44984168210E+02 -0.60127945129E+01 -0.28670394919E+02  0.97137586726E+02  0.80956717588E+02 0.  0.
          5    1    5    5  501    0 -0.11423950206E+03  0.13511934764E+03 -0.61848756990E+02  0.18749736179E+03  0.47000000000E+01 0. -1.
        -11    1    6    6    0    0 -0.37421276020E+02 -0.40802966718E+02 -0.79171986704E+01  0.55927775092E+02  0.00000000000E+00 0.  1.
         12    1    6    6    0    0 -0.75628921904E+01  0.34790172205E+02 -0.20753196249E+02  0.41209811634E+02  0.00000000000E+00 0. -1.
         -5    1    3    3    0  503  0.10714076935E+02 -0.14202346704E+02  0.14042947354E+02  0.23147191338E+02  0.47000000000E+01 0.  1.
         11    1    4    4    0    0  0.76014601468E+02 -0.13194850324E+02 -0.12623167244E+03  0.14794174136E+03  0.00000000000E+00 0. -1.
        -12    1    4    4    0    0  0.72494991869E+02 -0.10170935610E+03 -0.25147901132E+03  0.28078819437E+03  0.00000000000E+00 0.  1.
</event>
<event>
12    1  0.1627564E-001  0.1906441E+03  0.7818608E-02  0.1159673E+00
         21   -1    0    0  503  502  0.00000000000E+00  0.00000000000E+00  0.39982729948E+03  0.39982729948E+03  0.00000000000E+00 0.  1.
         21   -1    0    0  501  503 -0.00000000000E+00 -0.00000000000E+00 -0.92221814366E+02  0.92221814366E+02  0.00000000000E+00 0.  1.
          6    2    1    2  501    0 -0.79628815576E+02 -0.23871876799E+02  0.99559704349E+02  0.21507513537E+03  0.17156504408E+03 0.  0.
         24    2    3    3    0    0 -0.11828551705E+03 -0.34587748399E+02  0.64225065385E+02  0.16141139356E+03  0.82103611763E+02 0.  0.
         -6    2    1    2    0  502  0.79628815576E+02  0.23871876799E+02  0.20804578076E+03  0.27697397848E+03  0.16285245804E+03 0.  0.
        -24    2    5    5    0    0  0.27055017270E+02  0.44184847645E+02  0.46114424459E+02  0.10544999996E+03  0.79428506387E+02 0.  0.
          5    1    3    3  501    0  0.38656701479E+02  0.10715871599E+02  0.35334638963E+02  0.53663741800E+02  0.47000000000E+01 0. -1.
        -11    1    4    4    0    0 -0.11801205533E+03 -0.46480491726E+01  0.52717544421E+02  0.12933518104E+03  0.00000000000E+00 0.  1.
         12    1    4    4    0    0 -0.27346171994E+00 -0.29939699226E+02  0.11507520964E+02  0.32076212522E+02  0.00000000000E+00 0. -1.
         -5    1    5    5    0  502  0.52573798306E+02 -0.20312970846E+02  0.16193135630E+03  0.17152397852E+03  0.47000000000E+01 0.  1.
         11    1    6    6    0    0  0.37420217302E+02  0.56187378339E+02  0.13019686182E+02  0.68751773619E+02  0.00000000000E+00 0. -1.
        -12    1    6    6    0    0 -0.10365200032E+02 -0.12002530694E+02  0.33094738277E+02  0.36698226338E+02  0.00000000000E+00 0.  1.
</event>
<event>
12    1  0.1627564E-001  0.3313708E+03  0.7818608E-02  0.1070537E+00
         21   -1    0    0  501  502  0.00000000000E+00  0.00000000000E+00  0.12280002573E+04  0.12280002573E+04  0.00000000000E+00 0. -1.
         21   -1    0    0  502  503 -0.00000000000E+00 -0.00000000000E+00 -0.45254387664E+03  0.45254387664E+03  0.00000000000E+00 0.  1.
         -6    2    1    2    0  503 -0.14122802770E+03  0.24537162431E+03 -0.36498128542E+03  0.49293954163E+03  0.17212049029E+03 0.  0.
        -24    2    3    3    0    0 -0.73552477913E+02  0.16393576364E+03 -0.13103510525E+03  0.23610363165E+03  0.79308413571E+02 0.  0.
          6    2    1    2  501    0  0.14122802770E+03 -0.24537162431E+03  0.11404376661E+04  0.11876045924E+04  0.17220339036E+03 0.  0.
         24    2    5    5    0    0  0.10467031734E+02 -0.84151686492E+02  0.53344929382E+03  0.54608508328E+03  0.80310049252E+02 0.  0.
          5    1    5    5  501    0  0.13076099596E+03 -0.16121993782E+03  0.60698837231E+03  0.64151950908E+03  0.47000000000E+01 0. -1.
        -13    1    6    6    0    0 -0.31174613142E+02 -0.54927576380E+02  0.23540494413E+03  0.24373014354E+03  0.00000000000E+00 0.  1.
         14    1    6    6    0    0  0.41641644877E+02 -0.29224110111E+02  0.29804434969E+03  0.30235493974E+03  0.00000000000E+00 0. -1.
         -5    1    3    3    0  503 -0.67675549785E+02  0.81435860669E+02 -0.23394618017E+03  0.25683590999E+03  0.47000000000E+01 0.  1.
         13    1    4    4    0    0 -0.41698946258E+01 -0.78963494647E+01 -0.15014382751E+02  0.17469174150E+02  0.00000000000E+00 0. -1.
        -14    1    4    4    0    0 -0.69382583287E+02  0.17183211310E+03 -0.11602072250E+03  0.21863445750E+03  0.00000000000E+00 0.  1.
</event>
<event>
12    1  0.1627564E-001  0.2119952E+03  0.7818608E-02  0.1140176E+00
         21   -1    0    0  503  502  0.00000000000E+00  0.00000000000E+00  0.12435288960E+03  0.12435288960E+03  0.00000000000E+00 0. -1.
         21   -1    0    0  501  503 -0.00000000000E+00 -0.00000000000E+00 -0.42675740572E+03  0.42675740572E+03  0.00000000000E+00 0. -1.
          6    2    1    2  501    0  0.84496603775E+02  0.86820511240E+02 -0.26059821479E+03  0.33593660468E+03  0.17396693821E+03 0.  0.
         24    2    3    3    0    0  0.19940605699E+02  0.98496417704E+02 -0.10168037567E+03  0.16394598496E+03  0.80250950979E+02 0.  0.
         -6    2    1    2    0  502 -0.84496603775E+02 -0.86820511240E+02 -0.41806301336E+02  0.21517369064E+03  0.17284233594E+03 0.  0.
        -24    2    5    5    0    0 -0.64636711221E+02 -0.59855426750E+02 -0.95053310046E+02  0.15209544518E+03  0.79607261890E+02 0.  0.
          5    1    3    3  501    0  0.64555998076E+02 -0.11675906464E+02 -0.15891783912E+03  0.17199061971E+03  0.47000000000E+01 0. -1.
        -13    1    4    4    0    0  0.21166821366E+02  0.20006028590E+02  0.69285941247E+01  0.29937951220E+02  0.00000000000E+00 0.  1.
         14    1    4    4    0    0 -0.12262156670E+01  0.78490389114E+02 -0.10860896979E+03  0.13400803374E+03  0.00000000000E+00 0. -1.
         -5    1    5    5    0  502 -0.19859892555E+02 -0.26965084490E+02  0.53247008710E+02  0.63078245461E+02  0.47000000000E+01 0.  1.
         13    1    6    6    0    0 -0.70941123736E+02 -0.67979317486E+02 -0.59006641740E+02  0.11461070810E+03  0.00000000000E+00 0. -1.
        -14    1    6    6    0    0  0.63044125154E+01  0.81238907358E+01 -0.36046668305E+02  0.37484737078E+02  0.00000000000E+00 0.  1.
</event>
<event>
12    1  0.1627564E-001  0.1956949E+03  0.7818608E-02  0.1153643E+00
         21   -1    0    0  501  502  0.00000000000E+00  0.00000000000E+00  0.24887184492E+02  0.24887184492E+02  0.00000000000E+00 0.  1.
         21   -1    0    0  502  503 -0.00000000000E+00 -0.00000000000E+00 -0.17094180983E+04  0.17094180983E+04  0.00000000000E+00 0.  1.
         -6    2    1    2    0  503  0.84424590817E+02  0.37970949511E+02 -0.11205746216E+04  0.11373603994E+04  0.17126555696E+03 0.  0.
        -24    2    3    3    0    0  0.60395806314E+02  0.86801007791E+02 -0.63393803347E+03  0.64766762225E+03  0.80086517385E+02 0.  0.
          6    2    1    2  501    0 -0.84424590817E+02 -0.37970949511E+02 -0.56395629226E+03  0.59694488345E+03  0.17241574682E+03 0.  0.
         24    2    5    5    0    0 -0.22688295073E+02  0.29065295451E+02 -0.39938342895E+03  0.40876532640E+03  0.78882308649E+02 0.  0.
          5    1    5    5  501    0 -0.61736295744E+02 -0.67036244962E+02 -0.16457286332E+03  0.18817955705E+03  0.47000000000E+01 0. -1.
        -11    1    6    6    0    0 -0.24212817142E+02  0.10429408459E+02 -0.34582052330E+02  0.43485071210E+02  0.00000000000E+00 0.  1.
         12    1    6    6    0    0  0.15245220690E+01  0.18635886992E+02 -0.36480137662E+03  0.36528025519E+03  0.00000000000E+00 0. -1.
         -5    1    3    3    0  503  0.24028784503E+02 -0.48830058279E+02 -0.48663658813E+03  0.48969277714E+03  0.47000000000E+01 0.  1.
         13    1    4    4    0    0 -0.16300602625E+02  0.21012974642E+02 -0.72827253410E+02  0.77531049190E+02  0.00000000000E+00 0. -1.
        -14    1    4    4    0    0  0.76696408938E+02  0.65788033148E+02 -0.56111078006E+03  0.57013657306E+03  0.00000000000E+00 0.  1.
</event>
<event>
12    1  0.1627564E-001  0.4752945E+03  0.7818608E-02  0.1020497E+00
         21   -1    0    0  501  502  0.00000000000E+00  0.00000000000E+00  0.62184155089E+03  0.62184155089E+03  0.00000000000E+00 0.  1.
         21   -1    0    0  502  503 -0.00000000000E+00 -0.00000000000E+00 -0.36620417299E+03  0.36620417299E+03  0.00000000000E+00 0. -1.
         -6    2    1    2    0  503  0.44211765853E+03 -0.21803089354E+02  0.79072486842E+02  0.48182702405E+03  0.17309368630E+03 0.  0.
        -24    2    3    3    0    0  0.24674599755E+03  0.50687632011E+02  0.63588645473E+02  0.27281307728E+03  0.83250441191E+02 0.  0.
          6    2    1    2  501    0 -0.44211765853E+03  0.21803089354E+02  0.17656489106E+03  0.50621869983E+03  0.17070094496E+03 0.  0.
         24    2    5    5    0    0 -0.37735430034E+03 -0.33263917392E+02  0.16408669941E+03  0.42016951004E+03  0.78199846929E+02 0.  0.
          5    1    5    5  501    0 -0.64763358198E+02  0.55067006745E+02  0.12478191652E+02  0.86049189792E+02  0.47000000000E+01 0. -1.
        -11    1    6    6    0    0 -0.56859416727E+02  0.19224686313E+02  0.41811184957E+02  0.73148868903E+02  0.00000000000E+00 0.  1.
         12    1    6    6    0    0 -0.32049488361E+03 -0.52488603705E+02  0.12227551445E+03  0.34702064113E+03  0.00000000000E+00 0. -1.
         -5    1    3    3    0  503  0.19537166099E+03 -0.72490721365E+02  0.15483841369E+02  0.20901394677E+03  0.47000000000E+01 0.  1.
         11    1    4    4    0    0  0.11271647030E+03  0.23481602095E+02 -0.13327040859E+02  0.11590512642E+03  0.00000000000E+00 0. -1.
        -12    1    4    4    0    0  0.13402952725E+03  0.27206029916E+02  0.76915686332E+02  0.15690795086E+03  0.00000000000E+00 0.  1.
</event>
<event>
12    1  0.1627564E-001  0.2150706E+03  0.7818608E-02  0.1140628E+00
         21   -1    0    0  501  502  0.00000000000E+00  0.00000000000E+00  0.49874066183E+03  0.49874066183E+03  0.00000000000E+00 0.  1.
         21   -1    0    0  502  503 -0.00000000000E+00 -0.00000000000E+00 -0.96993402898E+02  0.96993402898E+02  0.00000000000E+00 0. -1.
         -6    2    1    2    0  503  0.97581776286E+02  0.19193023594E+02  0.95717129720E+02  0.22168887816E+03  0.17347511222E+03 0.  0.
        -24    2    3    3    0    0  0.12501093500E+03  0.50711222574E+02  0.60544470535E+02  0.16687134840E+03  0.77337261656E+02 0.  0.
          6    2    1    2  501    0 -0.97581776286E+02 -0.19193023594E+02  0.30603012921E+03  0.37404518657E+03  0.19069553323E+03 0.  0.
         24    2    5    5    0    0 -0.40485343861E+01  0.11181288633E+02  0.24575116813E+03  0.25860381906E+03  0.79629685108E+02 0.  0.
          5    1    5    5  501    0 -0.93533241900E+02 -0.30374312227E+02  0.60278961082E+02  0.11544136751E+03  0.47000000000E+01 0. -1.
        -13    1    6    6    0    0 -0.18424019969E+02 -0.30903454231E+02  0.10488740957E+03  0.11088659379E+03  0.00000000000E+00 0.  1.
         14    1    6    6    0    0  0.14375485583E+02  0.42084742864E+02  0.14086375856E+03  0.14771722527E+03  0.00000000000E+00 0. -1.
         -5    1    3    3    0  503 -0.27429158710E+02 -0.31518198981E+02  0.35172659185E+02  0.54817529757E+02  0.47000000000E+01 0.  1.
         11    1    4    4    0    0  0.35678635871E+02 -0.43474035373E+01 -0.13550625446E+02  0.38412034899E+02  0.00000000000E+00 0. -1.
        -12    1    4    4    0    0  0.89332299125E+02  0.55058626112E+02  0.74095095981E+02  0.12845931350E+03  0.00000000000E+00 0.  1.
</event>
<event>
12    1  0.1627564E-001  0.1769752E+03  0.7818608E-02  0.1170855E+00
         21   -1    0    0  503  502  0.00000000000E+00  0.00000000000E+00  0.10137052788E+04  0.10137052788E+04  0.00000000000E+00 0.  1.
         21   -1    0    0  501  503 -0.00000000000E+00 -0.00000000000E+00 -0.71340139694E+02  0.71340139694E+02  0.00000000000E+00 0. -1.
          6    2    1    2  501    0 -0.72960376934E+01  0.35280665985E+02  0.62585829730E+02  0.18771573307E+03  0.17326930715E+03 0.  0.
         24    2    3    3    0    0 -0.35496180211E+02  0.81217654010E+02  0.61352523238E+02  0.13359488725E+03  0.78912455666E+02 0.  0.
         -6    2    1    2    0  502  0.72960376934E+01 -0.35280665985E+02  0.87977930938E+03  0.89732968543E+03  0.17289006214E+03 0.  0.
        -24    2    5    5    0    0  0.26512146358E+02 -0.35593977615E+02  0.87117123390E+03  0.87575317135E+03  0.77681871795E+02 0.  0.
          5    1    3    3  501    0  0.28200142517E+02 -0.45936988025E+02  0.12333064917E+01  0.54120845815E+02  0.47000000000E+01 0. -1.
        -11    1    4    4    0    0  0.11582120636E+02  0.58257354207E+02  0.54786531943E+02  0.80806119323E+02  0.00000000000E+00 0.  1.
         12    1    4    4    0    0 -0.47078300846E+02  0.22960299803E+02  0.65659912946E+01  0.52788767928E+02  0.00000000000E+00 0. -1.
         -5    1    5    5    0  502 -0.19216108664E+02  0.31331162988E+00  0.86080754744E+01  0.21576514078E+02  0.47000000000E+01 0.  1.
         13    1    6    6    0    0 -0.14587725837E+02 -0.31571494025E+01  0.36394745325E+02  0.39336329579E+02  0.00000000000E+00 0. -1.
        -14    1    6    6    0    0  0.41099872195E+02 -0.32436828213E+02  0.83477648858E+03  0.83641684177E+03  0.00000000000E+00 0.  1.
</event>
<event>
12    1  0.1627564E-001  0.3514438E+03  0.7818608E-02  0.1062034E+00
         21   -1    0    0  501  502  0.00000000000E+00  0.00000000000E+00  0.22643584003E+03  0.22643584003E+03  0.00000000000E+00 0. -1.
         21   -1    0    0  502  503 -0.00000000000E+00 -0.00000000000E+00 -0.78567886898E+03  0.78567886898E+03  0.00000000000E+00 0. -1.
         -6    2    1    2    0  503 -0.25659109622E+03  0.16649579464E+03 -0.55950061608E+03  0.66067085370E+03  0.17287335606E+03 0.  0.
        -24    2    3    3    0    0 -0.23590472408E+03  0.19419740505E+03 -0.48924286450E+03  0.58222630724E+03  0.79153151615E+02 0.  0.
          6    2    1    2  501    0  0.25659109622E+03 -0.16649579464E+03  0.25758712892E+00  0.35144385531E+03  0.17306899430E+03 0.  0.
         24    2    5    5    0    0  0.81308708773E+02 -0.99866056352E+02 -0.45651272346E+02  0.15832950899E+03  0.79999121357E+02 0.  0.
          5    1    5    5  501    0  0.17528238745E+03 -0.66629738293E+02  0.45908859475E+02  0.19311434632E+03  0.47000000000E+01 0. -1.
        -13    1    6    6    0    0 -0.92696513956E+01 -0.17662620148E+02 -0.28539886788E+02  0.34819817997E+02  0.00000000000E+00 0.  1.
         14    1    6    6    0    0  0.90578360168E+02 -0.82203436203E+02 -0.17111385559E+02  0.12350969100E+03  0.00000000000E+00 0. -1.
         -5    1    3    3    0  503 -0.20686372142E+02 -0.27701610404E+02 -0.70257751585E+02  0.78444546459E+02  0.47000000000E+01 0.  1.
         11    1    4    4    0    0 -0.14230192684E+03  0.95136417475E+02 -0.33638875174E+03  0.37743631066E+03  0.00000000000E+00 0. -1.
        -12    1    4    4    0    0 -0.93602797240E+02  0.99060987573E+02 -0.15285411276E+03  0.20478999658E+03  0.00000000000E+00 0.  1.
</event>
<event>
12    1  0.1627564E-001  0.1854692E+03  0.7818608E-02  0.1163195E+00
         21   -1    0    0  503  502  0.00000000000E+00  0.00000000000E+00  0.65826493404E+02  0.65826493404E+02  0.00000000000E+00 0. -1.
         21   -1    0    0  501  503 -0.00000000000E+00 -0.00000000000E+00 -0.67679654428E+03  0.67679654428E+03  0.00000000000E+00 0.  1.
          6    2    1    2  501    0 -0.46744983448E+02 -0.45404136593E+02 -0.48513140370E+03  0.51849319347E+03  0.17098562432E+03 0.  0.
         24    2    3    3    0    0 -0.72403547324E+02 -0.56444550209E+02 -0.46201352563E+03  0.48193120611E+03  0.10184757558E+03 0.  0.
         -6    2    1    2    0  502  0.46744983448E+02  0.45404136593E+02 -0.12583864718E+03  0.22412984422E+03  0.17364386786E+03 0.  0.
        -24    2    5    5    0    0 -0.44104117546E+01  0.53342635368E+02 -0.14028544996E+03  0.17017899314E+03  0.80099898611E+02 0.  0.
          5    1    3    3  501    0  0.25658563876E+02  0.11040413616E+02 -0.23117878072E+02  0.36561987358E+02  0.47000000000E+01 0. -1.
        -13    1    4    4    0    0 -0.11804742085E+02 -0.15997230287E+02 -0.33435184281E+03  0.33494241013E+03  0.00000000000E+00 0.  1.
         14    1    4    4    0    0 -0.60598805239E+02 -0.40447319922E+02 -0.12766168281E+03  0.14698879598E+03  0.00000000000E+00 0. -1.
         -5    1    5    5    0  502  0.51155395203E+02 -0.79384987747E+01  0.14446802776E+02  0.53950851074E+02  0.47000000000E+01 0.  1.
         11    1    6    6    0    0 -0.25150722384E+01  0.21601884401E+02  0.42739854247E+01  0.22163798173E+02  0.00000000000E+00 0. -1.
        -12    1    6    6    0    0 -0.18953395161E+01  0.31740750966E+02 -0.14455943538E+03  0.14801519497E+03  0.00000000000E+00 0.  1.
</event>
<event>
12    1  0.1627564E-001  0.2739194E+03  0.7818608E-02  0.1099391E+00
         21   -1    0    0  503  502  0.00000000000E+00  0.00000000000E+00  0.16504282961E+04  0.16504282961E+04  0.00000000000E+00 0. -1.
         21   -1    0    0  501  503 -0.00000000000E+00 -0.00000000000E+00 -0.60688612280E+02  0.60688612280E+02  0.00000000000E+00 0.  1.
          6    2    1    2  501    0  0.16303389756E+03  0.13668326682E+03  0.35827632098E+03  0.44955681435E+03  0.16875141472E+03 0.  0.
         24    2    3    3    0    0  0.12485086982E+03  0.14189416421E+03  0.35563038522E+03  0.41064424523E+03  0.80212416233E+02 0.  0.
         -6    2    1    2    0  502 -0.16303389756E+03 -0.13668326682E+03  0.12314633628E+04  0.12615600940E+04  0.17253837152E+03 0.  0.
        -24    2    5    5    0    0 -0.16612082975E+03 -0.70255966080E+02  0.72196485935E+03  0.74771874644E+03  0.72924857173E+02 0.  0.
          5    1    3    3  501    0  0.38183027740E+02 -0.52108973902E+01  0.26459357554E+01  0.38912569114E+02  0.47000000000E+01 0. -1.
        -13    1    4    4    0    0  0.83314986097E+02  0.34985913931E+02  0.14646511077E+03  0.17209715208E+03  0.00000000000E+00 0.  1.
         14    1    4    4    0    0  0.41535883728E+02  0.10690825028E+03  0.20916527446E+03  0.23854709316E+03  0.00000000000E+00 0. -1.
         -5    1    5    5    0  502  0.30869321899E+01 -0.66427300738E+02  0.50949850350E+03  0.51384134760E+03  0.47000000000E+01 0.  1.
         13    1    6    6    0    0 -0.16407099433E+03 -0.81367827709E+02  0.68559539148E+03  0.70963445195E+03  0.00000000000E+00 0. -1.
        -14    1    6    6    0    0 -0.20498354222E+01  0.11111861629E+02  0.36369467868E+02  0.38084294495E+02  0.00000000000E+00 0.  1.
</event>
<event>
12    1  0.1627564E-001  0.2137159E+03  0.7818608E-02  0.1139224E+00
         21   -1    0    0  501  502  0.00000000000E+00  0.00000000000E+00  0.33204584773E+03  0.33204584773E+03  0.00000000000E+00 0.  1.
         21   -1    0    0  502  503 -0.00000000000E+00 -0.00000000000E+00 -0.16173901839E+03  0.16173901839E+03  0.00000000000E+00 0.  1.
         -6    2    1    2    0  503 -0.46505908380E+02  0.11671524859E+03 -0.14416468047E+02  0.21130090862E+03  0.16927785049E+03 0.  0.
        -24    2    3    3    0    0  0.35217768555E+02  0.27892658362E+02 -0.89292398149E+01  0.90386014671E+02  0.77920528181E+02 0.  0.
          6    2    1    2  501    0  0.46505908380E+02 -0.11671524859E+03  0.18472329739E+03  0.28248395749E+03  0.17288505105E+03 0.  0.
         24    2    5    5    0    0  0.59250905301E+01  0.96042921556E+01  0.62762338861E+02  0.10220640882E+03  0.79872959748E+02 0.  0.
          5    1    5    5  501    0  0.40580817849E+02 -0.12631954074E+03  0.12196095852E+03  0.18027754867E+03  0.47000000000E+01 0. -1.
        -11    1    6    6    0    0  0.37426433781E+02 -0.14565411389E+02  0.24376758279E+02  0.46979947836E+02  0.00000000000E+00 0.  1.
         12    1    6    6    0    0 -0.31501343251E+02  0.24169703545E+02  0.38385580583E+02  0.55226460983E+02  0.00000000000E+00 0. -1.
         -5    1    3    3    0  503 -0.81723676934E+02  0.88822590224E+02 -0.54872282320E+01  0.12091489395E+03  0.47000000000E+01 0.  1.
         13    1    4    4    0    0  0.14096628563E+02 -0.16038497191E+02  0.23567398715E+02  0.31802053569E+02  0.00000000000E+00 0. -1.
        -14    1    4    4    0    0  0.21121139992E+02  0.43931155552E+02 -0.32496638530E+02  0.58583961103E+02  0.00000000000E+00 0.  1.
</event>
<event>
12    1  0.1627564E-001  0.1907002E+03  0.7818608E-02  0.1161223E+00
         21   -1    0    0  501  502  0.00000000000E+00  0.00000000000E+00  0.66203126685E+02  0.66203126685E+02  0.00000000000E+00 0.  1.
         21   -1    0    0  502  503 -0.00000000000E+00 -0.00000000000E+00 -0.51416883865E+03  0.51416883865E+03  0.00000000000E+00 0. -1.
         -6    2    1    2    0  503  0.34608598672E+02 -0.20737644861E+02 -0.26351063265E+03  0.32527591577E+03  0.18638337599E+03 0.  0.
        -24    2    3    3    0    0  0.35612303509E+02  0.59854096607E+02 -0.18056330891E+03  0.20952452385E+03  0.80291148510E+02 0.  0.
          6    2    1    2  501    0 -0.34608598672E+02  0.20737644861E+02 -0.18445507932E+03  0.25509604957E+03  0.17152991926E+03 0.  0.
         24    2    5    5    0    0 -0.31426362445E+01  0.38257390138E+02 -0.19730083400E+03  0.21657136035E+03  0.80635171993E+02 0.  0.
          5    1    5    5  501    0 -0.31465962428E+02 -0.17519745277E+02  0.12845754682E+02  0.38524689219E+02  0.47000000000E+01 0. -1.
        -13    1    6    6    0    0  0.13195856308E+01  0.19413408765E+02 -0.11769695156E+01  0.19493768321E+02  0.00000000000E+00 0.  1.
         14    1    6    6    0    0 -0.44622218752E+01  0.18843981373E+02 -0.19612386448E+03  0.19707759203E+03  0.00000000000E+00 0. -1.
         -5    1    3    3    0  503 -0.10037048371E+01 -0.80591741467E+02 -0.82947323741E+02  0.11575139192E+03  0.47000000000E+01 0.  1.
         11    1    4    4    0    0 -0.20479729460E+02  0.20816018193E+02 -0.98470781732E+02  0.10270939970E+03  0.00000000000E+00 0. -1.
        -12    1    4    4    0    0  0.56092032969E+02  0.39038078414E+02 -0.82092527177E+02  0.10681512415E+03  0.00000000000E+00 0.  1.
</event>
<event>
12    1  0.1627564E-001  0.2620089E+03  0.7818608E-02  0.1105996E+00
         21   -1    0    0  503  502  0.00000000000E+00  0.00000000000E+00  0.52613563048E+03  0.52613563048E+03  0.00000000000E+00 0.  1.
         21   -1    0    0  501  503 -0.00000000000E+00 -0.00000000000E+00 -0.16981201377E+03  0.16981201377E+03  0.00000000000E+00 0. -1.
          6    2    1    2  501    0  0.16137658934E+03  0.11791646074E+03  0.10397475829E+02  0.26221509903E+03  0.16941651440E+03 0.  0.
         24    2    3    3    0    0  0.54981112243E+02  0.28000947766E+02 -0.46473934565E+02  0.11167857741E+03  0.80655454116E+02 0.  0.
         -6    2    1    2    0  502 -0.16137658934E+03 -0.11791646074E+03  0.34592614088E+03  0.43373254522E+03  0.16885594612E+03 0.  0.
        -24    2    5    5    0    0 -0.12364133999E+02 -0.57528033619E+02  0.94502761127E+02  0.13525762188E+03  0.76821259787E+02 0.  0.
          5    1    3    3  501    0  0.10639547710E+03  0.89915512977E+02  0.56871410394E+02  0.15053652162E+03  0.47000000000E+01 0. -1.
        -11    1    4    4    0    0  0.24346035197E+02 -0.66052492576E+01  0.18967837822E+02  0.31561647916E+02  0.00000000000E+00 0.  1.
         12    1    4    4    0    0  0.30635077046E+02  0.34606197024E+02 -0.65441772387E+02  0.80116929492E+02  0.00000000000E+00 0. -1.
         -5    1    5    5    0  502 -0.14901245534E+03 -0.60388427124E+02  0.25142337975E+03  0.29847492334E+03  0.47000000000E+01 0.  1.
         11    1    6    6    0    0  0.10122837852E+01 -0.71828572199E+02  0.90020506107E+02  0.11516970097E+03  0.00000000000E+00 0. -1.
        -12    1    6    6    0    0 -0.13376417784E+02  0.14300538580E+02  0.44822550202E+01  0.20087920910E+02  0.00000000000E+00 0.  1.
</event>
<event>
12    1  0.1627564E-001  0.3094710E+03  0.7818608E-02  0.1080782E+00
         21   -1    0    0  503  502  0.00000000000E+00  0.00000000000E+00  0.69630794614E+02  0.69630794614E+02  0.00000000000E+00 0.  1.
         21   -1    0    0  501  503 -0.00000000000E+00 -0.00000000000E+00 -0.22091158598E+04  0.22091158598E+04  0.00000000000E+00 0. -1.
          6    2    1    2  501    0 -0.76587133963E+02  0.24433407629E+03 -0.17741079235E+04  0.18008973325E+04  0.17380318763E+03 0.  0.
         24    2    3    3    0    0 -0.65757517594E+02  0.97704160345E+02 -0.54155214595E+03  0.55959420770E+03  0.77438985291E+02 0.  0.
         -6    2    1    2    0  502  0.76587133963E+02 -0.24433407629E+03 -0.36537714166E+03  0.47784932190E+03  0.17109876932E+03 0.  0.
        -24    2    5    5    0    0 -0.12139315642E+01 -0.59274416966E+02 -0.17297646408E+03  0.19974827184E+03  0.80396423068E+02 0.  0.
          5    1    3    3  501    0 -0.10829616369E+02  0.14662991595E+03 -0.12325557775E+04  0.12413031248E+04  0.47000000000E+01 0. -1.
        -11    1    4    4    0    0 -0.31043822648E+02  0.11949788674E+01 -0.21726237478E+03  0.21947229072E+03  0.00000000000E+00 0.  1.
         12    1    4    4    0    0 -0.34713694946E+02  0.96509181478E+02 -0.32428977117E+03  0.34012191698E+03  0.00000000000E+00 0. -1.
         -5    1    5    5    0  502  0.77801065527E+02 -0.18505965933E+03 -0.19240067758E+03  0.27810105005E+03  0.47000000000E+01 0.  1.
         13    1    6    6    0    0  0.95289309182E+01 -0.42585442127E+02 -0.17446981219E+03  0.17984447663E+03  0.00000000000E+00 0. -1.
        -14    1    6    6    0    0 -0.10742862482E+02 -0.16688974840E+02  0.14933481131E+01  0.19903795219E+02  0.00000000000E+00 0.  1.
</event>
<event>
12    1  0.1627564E-001  0.2122576E+03  0.7818608E-02  0.1141911E+00
         21   -1    0    0  503  502  0.00000000000E+00  0.00000000000E+00  0.36973836071E+03  0.36973836071E+03  0.00000000000E+00 0. -1.
         21   -1    0    0  501  503 -0.00000000000E+00 -0.00000000000E+00 -0.11753608794E+03  0.11753608794E+03  0.00000000000E+00 0. -1.
          6    2    1    2  501    0  0.10278801336E+03  0.27581542810E+01  0.15200932787E+03  0.25255778403E+03  0.17350969831E+03 0.  0.
         24    2    3    3    0    0  0.77220774074E+02  0.12050663335E+02  0.13814749715E+02  0.11163274764E+03  0.78503226690E+02 0.  0.
         -6    2    1    2    0  502 -0.10278801336E+03 -0.27581542810E+01  0.10019294490E+03  0.23471666462E+03  0.18568872701E+03 0.  0.
        -24    2    5    5    0    0 -0.85627871668E+02 -0.40936347914E+02 -0.23379004279E+01  0.12387123542E+03  0.79565697380E+02 0.  0.
          5    1    3    3  501    0  0.25567239289E+02 -0.92925090536E+01  0.13819457815E+03  0.14092503639E+03  0.47000000000E+01 0. -1.
        -11    1    4    4    0    0 -0.11484335046E+02  0.10314401111E+02  0.16859152542E+02  0.22858430527E+02  0.00000000000E+00 0.  1.
         12    1    4    4    0    0  0.88705109120E+02  0.17362622231E+01 -0.30444028269E+01  0.88774317114E+02  0.00000000000E+00 0. -1.
         -5    1    5    5    0  502 -0.17160141695E+02  0.38178193633E+02  0.10253084532E+03  0.11084542920E+03  0.47000000000E+01 0.  1.
         13    1    6    6    0    0 -0.45843911882E+02  0.16401123502E+02 -0.18757748143E+02  0.52177717698E+02  0.00000000000E+00 0. -1.
        -14    1    6    6    0    0 -0.39783959785E+02 -0.57337471416E+02  0.16419847715E+02  0.71693517723E+02  0.00000000000E+00 0.  1.
</event>
<event>
12    1  0.1627564E-001  0.1948727E+03  0.7818608E-02  0.1154237E+00
         21   -1    0    0  503  502  0.00000000000E+00  0.00000000000E+00  0.11681084884E+03  0.11681084884E+03  0.00000000000E+00 0.  1.
         21   -1    0    0  501  503 -0.00000000000E+00 -0.00000000000E+00 -0.38955961450E+03  0.38955961450E+03  0.00000000000E+00 0.  1.
          6    2    1    2  501    0 -0.52523946796E+01  0.88912687525E+02 -0.24009284232E+03  0.30922474831E+03  0.17332720035E+03 0.  0.
         24    2    3    3    0    0  0.45654615433E+02  0.95776804734E+02 -0.12319694182E+03  0.18145393264E+03  0.80563657820E+02 0.  0.
         -6    2    1    2    0  502  0.52523946796E+01 -0.88912687525E+02 -0.32655923346E+02  0.19714571503E+03  0.17282062947E+03 0.  0.
        -24    2    5    5    0    0  0.19240390456E+02  0.18491771108E+02 -0.47421737956E+02  0.87731360207E+02  0.68817382320E+02 0.  0.
          5    1    3    3  501    0 -0.50907010112E+02 -0.68641172084E+01 -0.11689590049E+03  0.12777081567E+03  0.47000000000E+01 0. -1.
        -11    1    4    4    0    0  0.27936118483E+02  0.19674997617E+02 -0.90528675739E+02  0.96762458517E+02  0.00000000000E+00 0.  1.
         12    1    4    4    0    0  0.17718496949E+02  0.76101807117E+02 -0.32668266085E+02  0.84691474126E+02  0.00000000000E+00 0. -1.
         -5    1    5    5    0  502 -0.13987995777E+02 -0.10740445863E+03  0.14765814610E+02  0.10941435482E+03  0.47000000000E+01 0.  1.
         11    1    6    6    0    0  0.12286262607E+02  0.38627297696E+02 -0.57628376132E+01  0.40941796168E+02  0.00000000000E+00 0. -1.
        -12    1    6    6    0    0  0.69541278491E+01 -0.20135526588E+02 -0.41658900343E+02  0.46789564038E+02  0.00000000000E+00 0.  1.
</event>
<event>
12    1  0.1627564E-001  0.1962767E+03  0.7818608E-02  0.1153025E+00
         21   -1    0    0  503  502  0.00000000000E+00  0.00000000000E+00  0.69771824397E+02  0.69771824397E+02  0.00000000000E+00 0. -1.
         21   -1    0    0  501  503 -0.00000000000E+00 -0.00000000000E+00 -0.60005462440E+03  0.60005462440E+03  0.00000000000E+00 0. -1.
          6    2    1    2  501    0 -0.86624684739E+02 -0.35019580178E+02 -0.36142348036E+03  0.41128027458E+03  0.17261032731E+03 0.  0.
         24    2    3    3    0    0 -0.15216281356E+02 -0.69837646448E+02 -0.19339844133E+03  0.22536104062E+03  0.90971475972E+02 0.  0.
         -6    2    1    2    0  502  0.86624684739E+02  0.35019580178E+02 -0.16885931964E+03  0.25854617422E+03  0.17205361773E+03 0.  0.
        -24    2    5    5    0    0 -0.22123705008E+02  0.44156394976E+01 -0.77430053725E+02  0.11313567211E+03  0.79342995211E+02 0.  0.
          5    1    3    3  501    0 -0.71408403383E+02  0.34818066271E+02 -0.16802503903E+03  0.18591923396E+03  0.47000000000E+01 0. -1.
        -11    1    4    4    0    0 -0.19721295734E+01 -0.19072423720E+01  0.10073617981E+02  0.10440529093E+02  0.00000000000E+00 0.  1.
         12    1    4    4    0    0 -0.13244151783E+02 -0.67930404076E+02 -0.20347205931E+03  0.21492051153E+03  0.00000000000E+00 0. -1.
         -5    1    5    5    0  502  0.10874838975E+03  0.30603940680E+02 -0.91429265911E+02  0.14541050211E+03  0.47000000000E+01 0.  1.
         11    1    6    6    0    0  0.11056764598E+02  0.19953457355E+02  0.46215926634E+01  0.23275558479E+02  0.00000000000E+00 0. -1.
        -12    1    6    6    0    0 -0.33180469606E+02 -0.15537817857E+02 -0.82051646389E+02  0.89860113633E+02  0.00000000000E+00 0.  1.
</event>
<event>
12    1  0.1627564E-001  0.1748089E+03  0.7818608E-02  0.1173982E+00
         21   -1    0    0  503  502  0.00000000000E+00  0.00000000000E+00  0.26065115801E+03  0.26065115801E+03  0.00000000000E+00 0. -1.
         21   -1    0    0  501  503 -0.00000000000E+00 -0.00000000000E+00 -0.21605632919E+03  0.21605632919E+03  0.00000000000E+00 0. -1.
          6    2    1    2  501    0  0.31074091023E+02  0.15864266502E+02 -0.14099525243E+03  0.22458364291E+03  0.17129179014E+03 0.  0.
         24    2    3    3    0    0  0.34019191660E+02 -0.54581099540E+02 -0.98211252041E+02  0.14197744518E+03  0.79848250349E+02 0.  0.
         -6    2    1    2    0  502 -0.31074091023E+02 -0.15864266502E+02  0.18559008125E+03  0.25212384429E+03  0.16704933558E+03 0.  0.
        -24    2    5    5    0    0  0.40362320230E+02 -0.22443492000E+02  0.13920494232E+03  0.16656615513E+03  0.78952142734E+02 0.  0.
          5    1    3    3  501    0 -0.29451006372E+01  0.70445366042E+02 -0.42784000388E+02  0.82606197732E+02  0.47000000000E+01 0. -1.
        -13    1    4    4    0    0  0.23947054619E+01 -0.31222672027E+02 -0.97766702162E+02  0.10265923200E+03  0.00000000000E+00 0.  1.
         14    1    4    4    0    0  0.31624486198E+02 -0.23358427513E+02 -0.44454987957E+00  0.39318213181E+02  0.00000000000E+00 0. -1.
         -5    1    5    5    0  502 -0.71436411253E+02  0.65792254981E+01  0.46385138929E+02  0.85557689160E+02  0.47000000000E+01 0.  1.
         13    1    6    6    0    0 -0.16766054395E+02 -0.28829437771E+02  0.60798462763E+02  0.69344719600E+02  0.00000000000E+00 0. -1.
        -14    1    6    6    0    0  0.57128374625E+02  0.63859457706E+01  0.78406479556E+02  0.97221435533E+02  0.00000000000E+00 0.  1.
</event>
<event>
12    1  0.1627564E-001  0.2217976E+03  0.7818608E-02  0.1132622E+00
         21   -1    0    0  501  502  0.00000000000E+00  0.00000000000E+00  0.16024114282E+03  0.16024114282E+03  0.00000000000E+00 0. -1.
         21   -1    0    0  502  503 -0.00000000000E+00 -0.00000000000E+00 -0.31727207046E+03  0.31727207046E+03  0.00000000000E+00 0. -1.
         -6    2    1    2    0  503  0.11754444199E+03  0.74880708817E+02 -0.12265941208E+03  0.25345511231E+03  0.17254085367E+03 0.  0.
        -24    2    3    3    0    0  0.14575490422E+03  0.93260643974E+02 -0.10033069088E+03  0.21278185345E+03  0.72579816775E+02 0.  0.
          6    2    1    2  501    0 -0.11754444199E+03 -0.74880708817E+02 -0.34371515554E+02  0.22405810097E+03  0.17203724927E+03 0.  0.
         24    2    5    5    0    0 -0.24122151779E+02 -0.54748442735E+02  0.39323038468E+02  0.10328554723E+03  0.74446844954E+02 0.  0.
          5    1    5    5  501    0 -0.93422290211E+02 -0.20132266082E+02 -0.73694554022E+02  0.12077255375E+03  0.47000000000E+01 0. -1.
        -11    1    6    6    0    0 -0.36290403490E+01 -0.69848508032E+02  0.30991284591E+02  0.76501266191E+02  0.00000000000E+00 0.  1.
         12    1    6    6    0    0 -0.20493111430E+02  0.15100065297E+02  0.83317538768E+01  0.26784281038E+02  0.00000000000E+00 0. -1.
         -5    1    3    3    0  503 -0.28210462235E+02 -0.18379935156E+02 -0.22328721200E+02  0.40673258860E+02  0.47000000000E+01 0.  1.
         13    1    4    4    0    0  0.12558728325E+03  0.10509946841E+03 -0.92720000638E+02  0.18818890109E+03  0.00000000000E+00 0. -1.
        -14    1    4    4    0    0  0.20167620971E+02 -0.11838824434E+02 -0.76106902417E+01  0.24592952356E+02  0.00000000000E+00 0.  1.
</event>
<event>
12    1  0.1627564E-001  0.1927750E+03  0.7818608E-02  0.1156016E+00
         21   -1    0    0  501  502  0.00000000000E+00  0.00000000000E+00  0.11739769746E+03  0.11739769746E+03  0.00000000000E+00 0.  1.
         21   -1    0    0  502  503 -0.00000000000E+00 -0.00000000000E+00 -0.64424671335E+03  0.64424671335E+03  0.00000000000E+00 0.  1.
         -6    2    1    2    0  503  0.83286595326E+02 -0.28411667372E+02 -0.53507922490E+03  0.56869384823E+03  0.17134478775E+03 0.  0.
        -24    2    3    3    0    0  0.16386084109E+02  0.40756815210E+02 -0.32835747381E+03  0.34062383758E+03  0.79223395424E+02 0.  0.
          6    2    1    2  501    0 -0.83286595326E+02  0.28411667372E+02  0.82302090144E+01  0.19295056257E+03  0.17151764764E+03 0.  0.
         24    2    5    5    0    0 -0.74699103997E+01 -0.25177446833E+02 -0.34736587284E+02  0.90538656730E+02  0.79378299780E+02 0.  0.
          5    1    5    5  501    0 -0.75816684926E+02  0.53589114205E+02  0.42966796298E+02  0.10241190584E+03  0.47000000000E+01 0. -1.
        -11    1    6    6    0    0 -0.28982378059E+02 -0.44438620151E+02 -0.13645915734E+02  0.54781203118E+02  0.00000000000E+00 0.  1.
         12    1    6    6    0    0  0.21512467659E+02  0.19261173318E+02 -0.21090671550E+02  0.35757453612E+02  0.00000000000E+00 0. -1.
         -5    1    3    3    0  503  0.66900511217E+02 -0.69168482582E+02 -0.20672175109E+03  0.22807001065E+03  0.47000000000E+01 0.  1.
         13    1    4    4    0    0  0.23182384565E+02  0.38636231309E+02 -0.77357988832E+02  0.89523403420E+02  0.00000000000E+00 0. -1.
        -14    1    4    4    0    0 -0.67963004557E+01  0.21205839013E+01 -0.25099948498E+03  0.25110043416E+03  0.00000000000E+00 0.  1.
</event>
<event>
12    1  0.1627564E-001  0.1817156E+03  0.7818608E-02  0.1166553E+00
         21   -1    0    0  501  502  0.00000000000E+00  0.00000000000E+00  0.58785898076E+03  0.58785898076E+03  0.00000000000E+00 0. -1.
         21   -1    0    0  502  503 -0.00000000000E+00 -0.00000000000E+00 -0.58606126128E+02  0.58606126128E+02  0.00000000000E+00 0.  1.
         -6    2    1    2    0  503 -0.54775042222E+02  0.19378701854E+02  0.19328254903E+03  0.26528986671E+03  0.17217645102E+03 0.  0.
        -24    2    3    3    0    0 -0.10185672548E+02  0.55995297617E+02  0.18074069701E+03  0.20605832929E+03  0.80954396024E+02 0.  0.
          6    2    1    2  501    0  0.54775042222E+02 -0.19378701854E+02  0.33597030560E+03  0.38117524017E+03  0.17041912492E+03 0.  0.
         24    2    5    5    0    0  0.14812709741E+02 -0.38858419902E+02  0.82670967393E+02  0.12396114225E+03  0.82477165150E+02 0.  0.
          5    1    5    5  501    0  0.39962332482E+02  0.19479718048E+02  0.25329933821E+03  0.25721409792E+03  0.47000000000E+01 0. -1.
        -13    1    6    6    0    0  0.27766674507E+02  0.11834640900E+02  0.59541010978E+02  0.66754617269E+02  0.00000000000E+00 0.  1.
         14    1    6    6    0    0 -0.12953964766E+02 -0.50693060802E+02  0.23129956414E+02  0.57206524981E+02  0.00000000000E+00 0. -1.
         -5    1    3    3    0  503 -0.44589369674E+02 -0.36616595763E+02  0.12541852020E+02  0.59231537421E+02  0.47000000000E+01 0.  1.
         13    1    4    4    0    0  0.83427767068E+01  0.43411120216E+02  0.29446468582E+02  0.53115174796E+02  0.00000000000E+00 0. -1.
        -14    1    4    4    0    0 -0.18528449255E+02  0.12584177401E+02  0.15129422843E+03  0.15294315450E+03  0.00000000000E+00 0.  1.
</event>
<event>
12    1  0.1627564E-001  0.1776697E+03  0.7818608E-02  0.1170663E+00
         21   -1    0    0  503  502  0.00000000000E+00  0.00000000000E+00  0.26851703900E+02  0.26851703900E+02  0.00000000000E+00 0.  1.
         21   -1    0    0  501  503 -0.00000000000E+00 -0.00000000000E+00 -0.19725496835E+04  0.19725496835E+04  0.00000000000E+00 0. -1.
          6    2    1    2  501    0 -0.23616782680E+02 -0.28405169718E+02 -0.16182959391E+04  0.16280197439E+04  0.17378703588E+03 0.  0.
         24    2    3    3    0    0  0.35236824139E+01  0.43981417818E+02 -0.11285287741E+04  0.11321665511E+04  0.79228302635E+02 0.  0.
         -6    2    1    2    0  502  0.23616782680E+02  0.28405169718E+02 -0.32740204043E+03  0.37138164346E+03  0.17136984253E+03 0.  0.
        -24    2    5    5    0    0  0.29637502148E+02 -0.44030271425E+02 -0.13321418933E+03  0.16398310511E+03  0.79544906721E+02 0.  0.
          5    1    3    3  501    0 -0.27140465094E+02 -0.72386587536E+02 -0.48976716504E+03  0.49585319284E+03  0.47000000000E+01 0. -1.
        -13    1    4    4    0    0  0.54347831588E+01 -0.15015192418E+02 -0.62597779177E+02  0.64602436713E+02  0.00000000000E+00 0.  1.
         14    1    4    4    0    0 -0.19111007449E+01  0.58996610236E+02 -0.10659309949E+04  0.10675641143E+04  0.00000000000E+00 0. -1.
         -5    1    5    5    0  502 -0.60207194681E+01  0.72435441143E+02 -0.19418785109E+03  0.20739853835E+03  0.47000000000E+01 0.  1.
         11    1    6    6    0    0 -0.11060082125E+02  0.14364250835E+01 -0.86286738372E+02  0.87004539838E+02  0.00000000000E+00 0. -1.
        -12    1    6    6    0    0  0.40697584273E+02 -0.45466696508E+02 -0.46927450963E+02  0.76978565269E+02  0.00000000000E+00 0.  1.
</event>
<event>
12    1  0.1627564E-001  0.2036407E+03  0.7818608E-02  0.1146882E+00
         21   -1    0    0  503  502  0.00000000000E+00  0.00000000000E+00  0.49191061384E+02  0.49191061384E+02  0.00000000000E+00 0.  1.
         21   -1    0    0  501  503 -0.00000000000E+00 -0.00000000000E+00 -0.92733282228E+03  0.92733282228E+03  0.00000000000E+00 0. -1.
          6    2    1    2  501    0 -0.98697648442E+02 -0.41678288265E+02 -0.28960394581E+03  0.35403385032E+03  0.17317972232E+03 0.  0.
         24    2    3    3    0    0 -0.11029561025E+03 -0.29486492100E+02 -0.30184682262E+03  0.33270005918E+03  0.80890359108E+02 0.  0.
         -6    2    1    2    0  502  0.98697648442E+02  0.41678288265E+02 -0.58853781508E+03  0.62249003334E+03  0.17215915981E+03 0.  0.
        -24    2    5    5    0    0  0.32233935327E+02  0.86312498265E+02 -0.37714382332E+03  0.39639459417E+03  0.80014604115E+02 0.  0.
          5    1    3    3  501    0  0.11597961805E+02 -0.12191796165E+02  0.12242876809E+02  0.21333791138E+02  0.47000000000E+01 0. -1.
        -11    1    4    4    0    0 -0.25068286910E+02  0.27513309692E+02 -0.73345031264E+02  0.82248980723E+02  0.00000000000E+00 0.  1.
         12    1    4    4    0    0 -0.85227323337E+02 -0.56999801792E+02 -0.22850179136E+03  0.25045107846E+03  0.00000000000E+00 0. -1.
         -5    1    5    5    0  502  0.66463713115E+02 -0.44634210000E+02 -0.21139399176E+03  0.22609543918E+03  0.47000000000E+01 0.  1.
         13    1    6    6    0    0  0.50997579337E+02  0.78719325582E+02 -0.35108304525E+03  0.36339618873E+03  0.00000000000E+00 0. -1.
        -14    1    6    6    0    0 -0.18763644009E+02  0.75931726837E+01 -0.26060778065E+02  0.32998405436E+02  0.00000000000E+00 0.  1.
</event>
<event>
12    1  0.1627564E-001  0.2302509E+03  0.7818608E-02  0.1126853E+00
         21   -1    0    0  503  502  0.00000000000E+00  0.00000000000E+00  0.45306144898E+03  0.45306144898E+03  0.00000000000E+00 0. -1.
         21   -1    0    0  501  503 -0.00000000000E+00 -0.00000000000E+00 -0.22404577789E+03  0.22404577789E+03  0.00000000000E+00 0.  1.
          6    2    1    2  501    0  0.11164551849E+03 -0.99882721852E+02 -0.12042198248E+03  0.25984018234E+03  0.17485475850E+03 0.  0.
         24    2    3    3    0    0  0.58741309877E+02 -0.30448584105E+02 -0.13732942562E+03  0.17080139075E+03  0.77046000418E+02 0.  0.
         -6    2    1    2    0  502 -0.11164551849E+03  0.99882721852E+02  0.34943765357E+03  0.41726704453E+03  0.17194136441E+03 0.  0.
        -24    2    5    5    0    0  0.11365464508E+01  0.70336192028E+02  0.21051362345E+03  0.23584276903E+03  0.79733019494E+02 0.  0.
          5    1    3    3  501    0  0.52904208614E+02 -0.69434137748E+02  0.16907443143E+02  0.89038791588E+02  0.47000000000E+01 0. -1.
        -13    1    4    4    0    0  0.42132699754E+02 -0.52144402490E+02 -0.64557829021E+02  0.93069417037E+02  0.00000000000E+00 0.  1.
         14    1    4    4    0    0  0.16608610123E+02  0.21695818385E+02 -0.72771596600E+02  0.77731973713E+02  0.00000000000E+00 0. -1.
         -5    1    5    5    0  502 -0.11278206494E+03  0.29546529825E+02  0.13892403012E+03  0.18142427550E+03  0.47000000000E+01 0.  1.
         13    1    6    6    0    0 -0.32128901860E+02  0.64213079850E+02  0.12996670297E+03  0.14848208592E+03  0.00000000000E+00 0. -1.
        -14    1    6    6    0    0  0.33265448310E+02  0.61231121777E+01  0.80546920476E+02  0.87360683103E+02  0.00000000000E+00 0.  1.
</event>
<event>
12    1  0.1627564E-001  0.2025585E+03  0.7818608E-02  0.1147947E+00
         21   -1    0    0  503  502  0.00000000000E+00  0.00000000000E+00  0.99526910605E+02  0.99526910605E+02  0.00000000000E+00 0.  1.
         21   -1    0    0  501  503 -0.00000000000E+00 -0.00000000000E+00 -0.46675616567E+03  0.46675616567E+03  0.00000000000E+00 0. -1.
          6    2    1    2  501    0 -0.10269960835E+03 -0.14308239315E+02 -0.28400742271E+03  0.34884115977E+03  0.17400575659E+03 0.  0.
         24    2    3    3    0    0  0.55962010910E+01 -0.27690629291E+02 -0.17602330418E+03  0.19525167263E+03  0.79629916700E+02 0.  0.
         -6    2    1    2    0  502  0.10269960835E+03  0.14308239315E+02 -0.83221832355E+02  0.21744191651E+03  0.17205574215E+03 0.  0.
        -24    2    5    5    0    0  0.53666182523E+02  0.67988024005E+01 -0.12089514824E+03  0.15497562783E+03  0.80470649884E+02 0.  0.
          5    1    3    3  501    0 -0.10829580944E+03  0.13382389977E+02 -0.10798411853E+03  0.15358948714E+03  0.47000000000E+01 0. -1.
        -11    1    4    4    0    0 -0.14863868171E+02  0.18557223714E+02 -0.19463493942E+02  0.30726742838E+02  0.00000000000E+00 0.  1.
         12    1    4    4    0    0  0.20460069262E+02 -0.46247853006E+02 -0.15655981023E+03  0.16452492979E+03  0.00000000000E+00 0. -1.
         -5    1    5    5    0  502  0.49033425831E+02  0.75094369140E+01  0.37673315884E+02  0.62466288678E+02  0.47000000000E+01 0.  1.
         13    1    6    6    0    0  0.36530558209E+02  0.89749414251E+01 -0.51724008735E+01  0.37970843912E+02  0.00000000000E+00 0. -1.
        -14    1    6    6    0    0  0.17135624314E+02 -0.21761390246E+01 -0.11572274737E+03  0.11700478392E+03  0.00000000000E+00 0.  1.
</event>
<event>
12    1  0.1627564E-001  0.2732105E+03  0.7818608E-02  0.1100300E+00
         21   -1    0    0  501  502  0.00000000000E+00  0.00000000000E+00  0.61388126274E+03  0.61388126274E+03  0.00000000000E+00 0.  1.
         21   -1    0    0  502  503 -0.00000000000E+00 -0.00000000000E+00 -0.12802225082E+03  0.12802225082E+03  0.00000000000E+00 0. -1.
         -6    2    1    2    0  503 -0.16102738794E+03 -0.13580804964E+03  0.14679265887E+03  0.31014843876E+03  0.17398368703E+03 0.  0.
        -24    2    3    3    0    0 -0.11704148856E+03 -0.42365826995E+02  0.55444093718E+02  0.17218881179E+03  0.10526806751E+03 0.  0.
          6    2    1    2  501    0  0.16102738794E+03  0.13580804964E+03  0.33906635305E+03  0.43175507481E+03  0.16453816224E+03 0.  0.
         24    2    5    5    0    0  0.12393226224E+03  0.15754192675E+03  0.23361397365E+03  0.31777830486E+03  0.78923368183E+02 0.  0.
          5    1    5    5  501    0  0.37095125698E+02 -0.21733877117E+02  0.10545237941E+03  0.11397676995E+03  0.47000000000E+01 0. -1.
        -13    1    6    6    0    0  0.37270267088E+02  0.21201139937E+02  0.97563850303E+02  0.10657047447E+03  0.00000000000E+00 0.  1.
         14    1    6    6    0    0  0.86661995155E+02  0.13634078682E+03  0.13605012334E+03  0.21120783038E+03  0.00000000000E+00 0. -1.
         -5    1    3    3    0  503 -0.43985899384E+02 -0.93442222641E+02  0.91348565152E+02  0.13795962696E+03  0.47000000000E+01 0.  1.
         13    1    4    4    0    0 -0.12360996371E+03 -0.63184146618E+02  0.37151072566E+02  0.14370755619E+03  0.00000000000E+00 0. -1.
        -14    1    4    4    0    0  0.65684751561E+01  0.20818319623E+02  0.18293021152E+02  0.28481255602E+02  0.00000000000E+00 0.  1.
</event>
<event>
12    1  0.1627564E-001  0.3458508E+03  0.7818608E-02  0.1064332E+00
         21   -1    0    0  501  502  0.00000000000E+00  0.00000000000E+00  0.51261600278E+03  0.51261600278E+03  0.00000000000E+00 0. -1.
         21   -1    0    0  502  503 -0.00000000000E+00 -0.00000000000E+00 -0.23480815287E+03  0.23480815287E+03  0.00000000000E+00 0. -1.
         -6    2    1    2    0  503 -0.15640694180E+03 -0.25555648738E+03  0.10928899348E+03  0.36270765382E+03  0.17274405448E+03 0.  0.
        -24    2    3    3    0    0 -0.14657375467E+03 -0.27423520449E+03  0.88640120962E+02  0.33280695185E+03  0.78832627862E+02 0.  0.
          6    2    1    2  501    0  0.15640694180E+03  0.25555648738E+03  0.16851885643E+03  0.38471650183E+03  0.17273080826E+03 0.  0.
         24    2    5    5    0    0  0.14218531441E+03  0.20792556112E+03  0.68438481415E+02  0.27287227406E+03  0.79534581233E+02 0.  0.
          5    1    5    5  501    0  0.14221627396E+02  0.47630926257E+02  0.10008037502E+03  0.11184422777E+03  0.47000000000E+01 0. -1.
        -11    1    6    6    0    0  0.20299725092E+02  0.14737104247E+02  0.33407349434E+02  0.41776932351E+02  0.00000000000E+00 0.  1.
         12    1    6    6    0    0  0.12188558931E+03  0.19318845688E+03  0.35031131981E+02  0.23109534171E+03  0.00000000000E+00 0. -1.
         -5    1    3    3    0  503 -0.98331871340E+01  0.18678717112E+02  0.20648872517E+02  0.29900701972E+02  0.47000000000E+01 0.  1.
         11    1    4    4    0    0 -0.10413765940E+03 -0.18571009057E+03  0.97617387822E+02  0.23422648068E+03  0.00000000000E+00 0. -1.
        -12    1    4    4    0    0 -0.42436095263E+02 -0.88525113926E+02 -0.89772668608E+01  0.98580471175E+02  0.00000000000E+00 0.  1.
</event>
<event>
12    1  0.1627564E-001  0.1909257E+03  0.7818608E-02  0.1157826E+00
         21   -1    0    0  503  502  0.00000000000E+00  0.00000000000E+00  0.82104959327E+02  0.82104959327E+02  0.00000000000E+00 0. -1.
         21   -1    0    0  501  503 -0.00000000000E+00 -0.00000000000E+00 -0.44359449605E+03  0.44359449605E+03  0.00000000000E+00 0. -1.
          6    2    1    2  501    0  0.80298657464E+02 -0.19959892326E+02 -0.19637117575E+03  0.27327779743E+03  0.17109308640E+03 0.  0.
         24    2    3    3    0    0 -0.56799377772E+00  0.37687965229E+02 -0.72268249264E+02  0.11426107779E+03  0.80076143182E+02 0.  0.
         -6    2    1    2    0  502 -0.80298657464E+02  0.19959892326E+02 -0.16511836097E+03  0.25242165794E+03  0.17206495452E+03 0.  0.
        -24    2    5    5    0    0 -0.15182848691E+02  0.17361111746E+01 -0.16691221080E+03  0.18461691881E+03  0.77396302359E+02 0.  0.
          5    1    3    3  501    0  0.80866651242E+02 -0.57647857555E+02 -0.12410292648E+03  0.15901671964E+03  0.47000000000E+01 0. -1.
        -11    1    4    4    0    0  0.29613540773E+02  0.47373942843E+02 -0.37918461322E+02  0.67520826170E+02  0.00000000000E+00 0.  1.
         12    1    4    4    0    0 -0.30181534551E+02 -0.96859776147E+01 -0.34349787942E+02  0.46740251624E+02  0.00000000000E+00 0. -1.
         -5    1    5    5    0  502 -0.65115808773E+02  0.18223781152E+02  0.17938498289E+01  0.67804739132E+02  0.47000000000E+01 0.  1.
         13    1    6    6    0    0 -0.29912059389E+02  0.29756301824E+02 -0.12607230867E+03  0.13294508569E+03  0.00000000000E+00 0. -1.
        -14    1    6    6    0    0  0.14729210697E+02 -0.28020190649E+02 -0.40839902129E+02  0.51671833117E+02  0.00000000000E+00 0.  1.
</event>
<event>
12    1  0.1627564E-001  0.2263712E+03  0.7818608E-02  0.1129227E+00
         21   -1    0    0  501  502  0.00000000000E+00  0.00000000000E+00  0.74094413142E+03  0.74094413142E+03  0.00000000000E+00 0.  1.
         21   -1    0    0  502  503 -0.00000000000E+00 -0.00000000000E+00 -0.13569625100E+03  0.13569625100E+03  0.00000000000E+00 0. -1.
         -6    2    1    2    0  503 -0.14458050875E+03 -0.24648118856E+02 -0.43411241205E+01  0.22637684871E+03  0.17238497325E+03 0.  0.
        -24    2    3    3    0    0 -0.45928351548E+02  0.35001469347E+02 -0.35512296586E+02  0.10686093561E+03  0.82605205756E+02 0.  0.
          6    2    1    2  501    0  0.14458050875E+03  0.24648118856E+02  0.60958900455E+03  0.65026353371E+03  0.17243217663E+03 0.  0.
         24    2    5    5    0    0  0.62045563108E+02 -0.19555131082E+02  0.48423707000E+03  0.49373512718E+03  0.71111045520E+02 0.  0.
          5    1    5    5  501    0  0.82534945638E+02  0.44203249938E+02  0.12535193454E+03  0.15652840653E+03  0.47000000000E+01 0. -1.
        -13    1    6    6    0    0 -0.51535280559E+01 -0.11742372418E+02  0.23882835357E+03  0.23917237430E+03  0.00000000000E+00 0.  1.
         14    1    6    6    0    0  0.67199091164E+02 -0.78127586640E+01  0.24540871643E+03  0.25456275288E+03  0.00000000000E+00 0. -1.
         -5    1    3    3    0  503 -0.98652157197E+02 -0.59649588203E+02  0.31171172465E+02  0.11951591310E+03  0.47000000000E+01 0.  1.
         11    1    4    4    0    0 -0.24622264628E+02  0.59939783490E+02 -0.10574657028E+02  0.65657116382E+02  0.00000000000E+00 0. -1.
        -12    1    4    4    0    0 -0.21306086921E+02 -0.24938314143E+02 -0.24937639558E+02  0.41203819227E+02  0.00000000000E+00 0.  1.
</event>
<event>
12    1  0.1627564E-001  0.1956677E+03  0.7818608E-02  0.1153910E+00
         21   -1    0    0  503  502  0.00000000000E+00  0.00000000000E+00  0.82073683389E+02  0.82073683389E+02  0.00000000000E+00 0.  1.
         21   -1    0    0  501  503 -0.00000000000E+00 -0.00000000000E+00 -0.71824964655E+03  0.71824964655E+03  0.00000000000E+00 0. -1.
          6    2    1    2  501    0  0.73326639430E+02  0.56190004031E+02 -0.79924122021E+02  0.21136160950E+03  0.17248696207E+03 0.  0.
         24    2    3    3    0    0 -0.24795320994E+02  0.31226915740E+02 -0.37135720978E+02  0.10134337392E+03  0.85448753389E+02 0.  0.
         -6    2    1    2    0  502 -0.73326639430E+02 -0.56190004031E+02 -0.55625184114E+03  0.58896172044E+03  0.17007552667E+03 0.  0.
        -24    2    5    5    0    0 -0.55453551945E+02 -0.70973026594E+02 -0.55197600011E+03  0.56491264917E+03  0.79602321418E+02 0.  0.
          5    1    3    3  501    0  0.98121960425E+02  0.24963088291E+02 -0.42788401043E+02  0.11001823557E+03  0.47000000000E+01 0. -1.
        -11    1    4    4    0    0 -0.76983903668E+01 -0.21200838912E+02  0.13659677719E+02  0.26369064834E+02  0.00000000000E+00 0.  1.
         12    1    4    4    0    0 -0.17096930627E+02  0.52427754651E+02 -0.50795398697E+02  0.74974309090E+02  0.00000000000E+00 0. -1.
         -5    1    5    5    0  502 -0.17873087485E+02  0.14783022562E+02 -0.42758410319E+01  0.24049071268E+02  0.47000000000E+01 0.  1.
         13    1    6    6    0    0 -0.42023897448E+01 -0.61670454970E+02 -0.38710060417E+03  0.39200482503E+03  0.00000000000E+00 0. -1.
        -14    1    6    6    0    0 -0.51251162200E+02 -0.93025716231E+01 -0.16487539594E+03  0.17290782415E+03  0.00000000000E+00 0.  1.
</event>
<event>
12    1  0.1627564E-001  0.2174712E+03  0.7818608E-02  0.1135881E+00
         21   -1    0    0  501  502  0.00000000000E+00  0.00000000000E+00  0.23020020910E+03  0.23020020910E+03  0.00000000000E+00 0.  1.
         21   -1    0    0  502  503 -0.00000000000E+00 -0.00000000000E+00 -0.32123894869E+03  0.32123894869E+03  0.00000000000E+00 0.  1.
         -6    2    1    2    0  503 -0.10612560888E+03 -0.79050320474E+02 -0.21144151290E+03  0.30331707921E+03  0.17257502466E+03 0.  0.
        -24    2    3    3    0    0 -0.11346464031E+03 -0.24312874802E+01 -0.11445301218E+03  0.17940906143E+03  0.78790758124E+02 0.  0.
          6    2    1    2  501    0  0.10612560888E+03  0.79050320474E+02  0.12040277332E+03  0.24812207858E+03  0.17191899263E+03 0.  0.
         24    2    5    5    0    0  0.99429117904E+02  0.11198447655E+03  0.62236603261E+02  0.18078044979E+03  0.79884314894E+02 0.  0.
          5    1    5    5  501    0  0.66964909728E+01 -0.32934156081E+02  0.58166170056E+02  0.67341628783E+02  0.47000000000E+01 0. -1.
        -13    1    6    6    0    0  0.52513077399E+02  0.89645582335E+02  0.73936231244E+02  0.12751674408E+03  0.00000000000E+00 0.  1.
         14    1    6    6    0    0  0.46916040504E+02  0.22338894220E+02 -0.11699627983E+02  0.53263705715E+02  0.00000000000E+00 0. -1.
         -5    1    3    3    0  503  0.73390314299E+01 -0.76619032994E+02 -0.96988500718E+02  0.12390801778E+03  0.47000000000E+01 0.  1.
         13    1    4    4    0    0 -0.49244575448E+02  0.35570542171E+02 -0.33748415300E+02  0.69492785357E+02  0.00000000000E+00 0. -1.
        -14    1    4    4    0    0 -0.64220064859E+02 -0.38001829651E+02 -0.80704596882E+02  0.10991627607E+03  0.00000000000E+00 0.  1.
</event>
<event>
12    1  0.1627564E-001  0.1972991E+03  0.7818608E-02  0.1152305E+00
         21   -1    0    0  501  502  0.00000000000E+00  0.00000000000E+00  0.33575270769E+03  0.33575270769E+03  0.00000000000E+00 0.  1.
         21   -1    0    0  502  503 -0.00000000000E+00 -0.00000000000E+00 -0.26617356104E+03  0.26617356104E+03  0.00000000000E+00 0.  1.
         -6    2    1    2    0  503  0.44210086141E+02  0.83346353065E+02 -0.19181712344E+03  0.27517401761E+03  0.17327949918E+03 0.  0.
        -24    2    3    3    0    0 -0.21382760823E+02  0.28928836659E+01 -0.13688038302E+02  0.68952672246E+02  0.64043090033E+02 0.  0.
          6    2    1    2  501    0 -0.44210086141E+02 -0.83346353065E+02  0.26139627010E+03  0.32675225112E+03  0.17186587010E+03 0.  0.
         24    2    5    5    0    0 -0.56644312956E+02  0.86680587610E+01  0.17029905636E+03  0.19659060419E+03  0.79764551194E+02 0.  0.
          5    1    5    5  501    0  0.12434226815E+02 -0.92014411826E+02  0.91097213740E+02  0.13016164693E+03  0.47000000000E+01 0. -1.
        -13    1    6    6    0    0 -0.39860428145E+02 -0.28405605172E+02  0.13169874137E+03  0.14050014454E+03  0.00000000000E+00 0.  1.
         14    1    6    6    0    0 -0.16783884811E+02  0.37073663933E+02  0.38600314984E+02  0.56090459649E+02  0.00000000000E+00 0. -1.
         -5    1    3    3    0  503  0.65592846964E+02  0.80453469399E+02 -0.17812908514E+03  0.20622134536E+03  0.47000000000E+01 0.  1.
         11    1    4    4    0    0  0.18748620159E+02 -0.11278449555E+02  0.50429147857E+01  0.22453177320E+02  0.00000000000E+00 0. -1.
        -12    1    4    4    0    0 -0.40131380982E+02  0.14171333221E+02 -0.18730953088E+02  0.46499494926E+02  0.00000000000E+00 0.  1.
</event>
<event>
12    1  0.1627564E-001  0.1846298E+03  0.7818608E-02  0.1163695E+00
         21   -1    0    0  503  502  0.00000000000E+00  0.00000000000E+00  0.75627888658E+03  0.75627888658E+03  0.00000000000E+00 0.  1.
         21   -1    0    0  501  503 -0.00000000000E+00 -0.00000000000E+00 -0.63987745535E+02  0.63987745535E+02  0.00000000000E+00 0.  1.
          6    2    1    2  501    0 -0.62403524362E+02  0.26362225674E+02  0.12218112120E+03  0.22139642335E+03  0.17175268004E+03 0.  0.
         24    2    3    3    0    0  0.11072560666E+02  0.61159014249E+02  0.77823137398E+02  0.12866416201E+03  0.81455504717E+02 0.  0.
         -6    2    1    2    0  502  0.62403524362E+02 -0.26362225674E+02  0.57011001985E+03  0.59887020877E+03  0.17038463962E+03 0.  0.
        -24    2    5    5    0    0  0.88889606401E+02 -0.34762147926E+02  0.24334863471E+03  0.27089587432E+03  0.71107296773E+02 0.  0.
          5    1    3    3  501    0 -0.73476085028E+02 -0.34796788575E+02  0.44357983800E+02  0.92732261338E+02  0.47000000000E+01 0. -1.
        -13    1    4    4    0    0 -0.28629074627E+02  0.47620090934E+01  0.70994762137E+01  0.29878139284E+02  0.00000000000E+00 0.  1.
         14    1    4    4    0    0  0.39701635292E+02  0.56397005155E+02  0.70723661184E+02  0.98786022729E+02  0.00000000000E+00 0. -1.
         -5    1    5    5    0  502 -0.26486082039E+02  0.83999222524E+01  0.32676138514E+03  0.32797433445E+03  0.47000000000E+01 0.  1.
         11    1    6    6    0    0  0.59614077255E+00 -0.17407736635E+02  0.84647685815E+01  0.19365871674E+02  0.00000000000E+00 0. -1.
        -12    1    6    6    0    0  0.88293465628E+02 -0.17354411292E+02  0.23488386613E+03  0.25153000265E+03  0.00000000000E+00 0.  1.
</event>
<event>
12    1  0.1627564E-001  0.1819882E+03  0.7818608E-02  0.1166146E+00
         21   -1    0    0  501  502  0.00000000000E+00  0.00000000000E+00  0.14377608511E+03  0.14377608511E+03  0.00000000000E+00 0. -1.
         21   -1    0    0  502  503 -0.00000000000E+00 -0.00000000000E+00 -0.23057234177E+03  0.23057234177E+03  0.00000000000E+00 0.  1.
         -6    2    1    2    0  503  0.39716302620E+02  0.43286302281E+02 -0.58900260479E+02  0.19128240403E+03  0.17224583811E+03 0.  0.
        -24    2    3    3    0    0 -0.16349811963E+02  0.30708997076E+02 -0.89215252924E+02  0.12614649551E+03  0.82117100068E+02 0.  0.
          6    2    1    2  501    0 -0.39716302620E+02 -0.43286302281E+02 -0.27895996182E+02  0.18306602285E+03  0.17112537351E+03 0.  0.
         24    2    5    5    0    0  0.24234140141E+02 -0.72241497026E+02 -0.26044153439E+02  0.11268433664E+03  0.78824706501E+02 0.  0.
          5    1    5    5  501    0 -0.63950442761E+02  0.28955194746E+02 -0.18518427431E+01  0.70381686209E+02  0.47000000000E+01 0. -1.
        -11    1    6    6    0    0  0.29853821373E+02 -0.39113179987E+02 -0.50971410244E+02  0.70846144295E+02  0.00000000000E+00 0.  1.
         12    1    6    6    0    0 -0.56196812317E+01 -0.33128317039E+02  0.24927256804E+02  0.41838192346E+02  0.00000000000E+00 0. -1.
         -5    1    3    3    0  503  0.56066114584E+02  0.12577305205E+02  0.30314992444E+02  0.65135908511E+02  0.47000000000E+01 0.  1.
         11    1    4    4    0    0 -0.44878374341E+02  0.26810035363E+02 -0.29928685193E+02  0.60237635055E+02  0.00000000000E+00 0. -1.
        -12    1    4    4    0    0  0.28528562378E+02  0.38989617128E+01 -0.59286567730E+02  0.65908860459E+02  0.00000000000E+00 0.  1.
</event>
<event>
12    1  0.1627564E-001  0.2076849E+03  0.7818608E-02  0.1143624E+00
         21   -1    0    0  501  502  0.00000000000E+00  0.00000000000E+00  0.15058862795E+04  0.15058862795E+04  0.00000000000E+00 0.  1.
         21   -1    0    0  502  503 -0.00000000000E+00 -0.00000000000E+00 -0.28585564964E+02  0.28585564964E+02  0.00000000000E+00 0.  1.
         -6    2    1    2    0  503  0.55131389705E+02 -0.10319722115E+03  0.69434034814E+03  0.72443483904E+03  0.17031788037E+03 0.  0.
        -24    2    3    3    0    0  0.38320838851E+02  0.89944182474E+01  0.38321708443E+03  0.39324103808E+03  0.78954379121E+02 0.  0.
          6    2    1    2  501    0 -0.55131389705E+02  0.10319722115E+03  0.78296036643E+03  0.81003700546E+03  0.17159218580E+03 0.  0.
         24    2    5    5    0    0 -0.35555979061E+02  0.13840248673E+03  0.64488118473E+03  0.66612537338E+03  0.86207857368E+02 0.  0.
          5    1    5    5  501    0 -0.19575410644E+02 -0.35205265577E+02  0.13807918171E+03  0.14391163208E+03  0.47000000000E+01 0. -1.
        -13    1    6    6    0    0 -0.14596055814E+01  0.63040317745E+02  0.12824106519E+03  0.14290550343E+03  0.00000000000E+00 0.  1.
         14    1    6    6    0    0 -0.34096373479E+02  0.75362168986E+02  0.51664011954E+03  0.52321986996E+03  0.00000000000E+00 0. -1.
         -5    1    3    3    0  503  0.16810550854E+02 -0.11219163940E+03  0.31112326371E+03  0.33119380096E+03  0.47000000000E+01 0.  1.
         13    1    4    4    0    0 -0.21838651701E+02 -0.11126384809E+02  0.12131920747E+03  0.12377024379E+03  0.00000000000E+00 0. -1.
        -14    1    4    4    0    0  0.60159490552E+02  0.20120803057E+02  0.26189787697E+03  0.26947079430E+03  0.00000000000E+00 0.  1.
</event>
<event>
12    1  0.1627564E-001  0.2849307E+03  0.7818608E-02  0.1093261E+00
         21   -1    0    0  503  502  0.00000000000E+00  0.00000000000E+00  0.27332955565E+03  0.27332955565E+03  0.00000000000E+00 0.  1.
         21   -1    0    0  501  503 -0.00000000000E+00 -0.00000000000E+00 -0.30242039002E+03  0.30242039002E+03  0.00000000000E+00 0.  1.
          6    2    1    2  501    0 -0.12797948552E+03  0.18756640365E+03 -0.59067982479E+02  0.29098890292E+03  0.17212091848E+03 0.  0.
         24    2    3    3    0    0 -0.62553739345E+02  0.42035673669E+02  0.18415109616E+02  0.11354752896E+03  0.82909329420E+02 0.  0.
         -6    2    1    2    0  502  0.12797948552E+03 -0.18756640365E+03  0.29977148106E+02  0.28476104275E+03  0.16920495728E+03 0.  0.
        -24    2    5    5    0    0  0.31623105447E+02 -0.13426507611E+03 -0.24187121223E+02  0.16195452187E+03  0.81345675118E+02 0.  0.
          5    1    3    3  501    0 -0.65425746175E+02  0.14553072998E+03 -0.77483092095E+02  0.17744137396E+03  0.47000000000E+01 0. -1.
        -13    1    4    4    0    0 -0.79660009564E+02  0.41351828044E+02  0.27881861811E+02  0.93984514811E+02  0.00000000000E+00 0.  1.
         14    1    4    4    0    0  0.17106270219E+02  0.68384562509E+00 -0.94667521946E+01  0.19563014153E+02  0.00000000000E+00 0. -1.
         -5    1    5    5    0  502  0.96356380073E+02 -0.53301327539E+02  0.54164269329E+02  0.12280652088E+03  0.47000000000E+01 0.  1.
         13    1    6    6    0    0  0.47460622375E+01 -0.58249082877E+02 -0.50400116430E+02  0.77172874113E+02  0.00000000000E+00 0. -1.
        -14    1    6    6    0    0  0.26877043210E+02 -0.76015993232E+02  0.26212995206E+02  0.84781647757E+02  0.00000000000E+00 0.  1.
</event>
<event>
12    1  0.1627564E-001  0.2636055E+03  0.7818608E-02  0.1105079E+00
         21   -1    0    0  503  502  0.00000000000E+00  0.00000000000E+00  0.31000811789E+03  0.31000811789E+03  0.00000000000E+00 0. -1.
         21   -1    0    0  501  503 -0.00000000000E+00 -0.00000000000E+00 -0.24425505837E+03  0.24425505837E+03  0.00000000000E+00 0.  1.
          6    2    1    2  501    0 -0.18892876707E+03 -0.64625647351E+02 -0.47602346346E+02  0.26731839813E+03  0.17123839897E+03 0.  0.
         24    2    3    3    0    0 -0.99772078987E+02  0.16357037152E+02 -0.66212473641E+02  0.14535308726E+03  0.80755234504E+02 0.  0.
         -6    2    1    2    0  502  0.18892876707E+03  0.64625647351E+02  0.11335540586E+03  0.28694477813E+03  0.17209678769E+03 0.  0.
        -24    2    5    5    0    0  0.22778464782E+02  0.33463750213E+01  0.12960786071E+02  0.83321985076E+02  0.79022240779E+02 0.  0.
          5    1    3    3  501    0 -0.89156688084E+02 -0.80982684503E+02  0.18610127295E+02  0.12196531088E+03  0.47000000000E+01 0. -1.
        -13    1    4    4    0    0 -0.57500011629E+02 -0.20357326507E+02 -0.32315211874E+01  0.61082852005E+02  0.00000000000E+00 0.  1.
         14    1    4    4    0    0 -0.42272067358E+02  0.36714363659E+02 -0.62980952453E+02  0.84270235252E+02  0.00000000000E+00 0. -1.
         -5    1    5    5    0  502  0.16615030229E+03  0.61279272330E+02  0.10039461979E+03  0.20362279305E+03  0.47000000000E+01 0.  1.
         13    1    6    6    0    0 -0.18069424948E+02  0.85603794116E+01  0.32174200621E+02  0.37880910750E+02  0.00000000000E+00 0. -1.
        -14    1    6    6    0    0  0.40847889731E+02 -0.52140043904E+01 -0.19213414550E+02  0.45441074326E+02  0.00000000000E+00 0.  1.
</event>
<event>
12    1  0.1627564E-001  0.1863382E+03  0.7818608E-02  0.1161916E+00
         21   -1    0    0  503  502  0.00000000000E+00  0.00000000000E+00  0.12943547246E+03  0.12943547246E+03  0.00000000000E+00 0.  1.
         21   -1    0    0  501  503 -0.00000000000E+00 -0.00000000000E+00 -0.49214076822E+03  0.49214076822E+03  0.00000000000E+00 0.  1.
          6    2    1    2  501    0 -0.65627058091E+01  0.69670637033E+02 -0.39141549904E+03  0.43350665902E+03  0.17269876593E+03 0.  0.
         24    2    3    3    0    0  0.15700247830E+02  0.10352727754E+03 -0.35156608103E+03  0.37648054810E+03  0.84702413135E+02 0.  0.
         -6    2    1    2    0  502  0.65627058091E+01 -0.69670637033E+02  0.28710203275E+02  0.18806958166E+03  0.17218834165E+03 0.  0.
        -24    2    5    5    0    0  0.20701575654E+02 -0.46666760449E+01 -0.42294847579E+02  0.90656903676E+02  0.77327142405E+02 0.  0.
          5    1    3    3  501    0 -0.22262953639E+02 -0.33856640504E+02 -0.39849418008E+02  0.57026110918E+02  0.47000000000E+01 0. -1.
        -13    1    4    4    0    0  0.25235126729E+02  0.35884295433E+02 -0.46774668835E+02  0.64127715728E+02  0.00000000000E+00 0.  1.
         14    1    4    4    0    0 -0.95348788997E+01  0.67642982103E+02 -0.30479141219E+03  0.31235283237E+03  0.00000000000E+00 0. -1.
         -5    1    5    5    0  502 -0.14138869845E+02 -0.65003960988E+02  0.71005050854E+02  0.97412677981E+02  0.47000000000E+01 0.  1.
         13    1    6    6    0    0  0.32670993376E+02  0.31415924947E+01  0.11667826010E+02  0.34833914155E+02  0.00000000000E+00 0. -1.
        -14    1    6    6    0    0 -0.11969417722E+02 -0.78082685396E+01 -0.53962673589E+02  0.55822989521E+02  0.00000000000E+00 0.  1.
</event>
<event>
12    1  0.1627564E-001  0.2442414E+03  0.7818608E-02  0.1117680E+00
         21   -1    0    0  501  502  0.00000000000E+00  0.00000000000E+00  0.35198855627E+02  0.35198855627E+02  0.00000000000E+00 0. -1.
         21   -1    0    0  502  503 -0.00000000000E+00 -0.00000000000E+00 -0.17799017939E+04  0.17799017939E+04  0.00000000000E+00 0. -1.
         -6    2    1    2    0  503 -0.15915073638E+03  0.42361701863E+02 -0.64989841937E+03  0.69427789843E+03  0.18036178663E+03 0.  0.
        -24    2    3    3    0    0 -0.18112504409E+03  0.41672227037E+02 -0.63747955448E+03  0.66859397778E+03  0.78069639667E+02 0.  0.
          6    2    1    2  501    0  0.15915073638E+03 -0.42361701863E+02 -0.10948045189E+04  0.11208227511E+04  0.17470899830E+03 0.  0.
         24    2    5    5    0    0  0.13997210614E+03 -0.90059956459E+02 -0.75862873783E+03  0.78070631643E+03  0.79257834930E+02 0.  0.
          5    1    5    5  501    0  0.19178630239E+02  0.47698254596E+02 -0.33617578105E+03  0.34011643464E+03  0.47000000000E+01 0. -1.
        -13    1    6    6    0    0  0.14850447432E+03 -0.73650255067E+02 -0.68950311214E+03  0.70914912438E+03  0.00000000000E+00 0.  1.
         14    1    6    6    0    0 -0.85323681782E+01 -0.16409701391E+02 -0.69125625694E+02  0.71557192050E+02  0.00000000000E+00 0. -1.
         -5    1    3    3    0  503  0.21974307711E+02  0.68947482594E+00 -0.12418864889E+02  0.25683920652E+02  0.47000000000E+01 0.  1.
         13    1    4    4    0    0 -0.10584099432E+03  0.10865606683E+02 -0.23481495615E+03  0.25779534736E+03  0.00000000000E+00 0. -1.
        -14    1    4    4    0    0 -0.75284049770E+02  0.30806620354E+02 -0.40266459832E+03  0.41079863041E+03  0.00000000000E+00 0.  1.
</event>
<event>
12    1  0.1627564E-001  0.2200507E+03  0.7818608E-02  0.1135046E+00
         21   -1    0    0  503  502  0.00000000000E+00  0.00000000000E+00  0.80744895455E+02  0.80744895455E+02  0.00000000000E+00 0. -1.
         21   -1    0    0  501  503 -0.00000000000E+00 -0.00000000000E+00 -0.68327260722E+03  0.68327260722E+03  0.00000000000E+00 0. -1.
          6    2    1    2  501    0  0.94349431185E+02 -0.82525027513E+02 -0.15835210944E+03  0.27110462489E+03  0.18085942537E+03 0.  0.
         24    2    3    3    0    0 -0.10319645253E+02  0.18237411272E+01 -0.91536292891E+02  0.12091549854E+03  0.78306090191E+02 0.  0.
         -6    2    1    2    0  502 -0.94349431185E+02  0.82525027513E+02 -0.44417560233E+03  0.49291287778E+03  0.17308652186E+03 0.  0.
        -24    2    5    5    0    0 -0.11148874060E+03  0.41592548013E+02 -0.21253422835E+03  0.25701239041E+03  0.82005434402E+02 0.  0.
          5    1    3    3  501    0  0.10466907644E+03 -0.84348768641E+02 -0.66815816546E+02  0.15018912635E+03  0.47000000000E+01 0. -1.
        -13    1    4    4    0    0  0.48024899829E+01 -0.24891468317E+02 -0.86081129345E+02  0.89736335642E+02  0.00000000000E+00 0.  1.
         14    1    4    4    0    0 -0.15122135236E+02  0.26715209444E+02 -0.54551635460E+01  0.31179162899E+02  0.00000000000E+00 0. -1.
         -5    1    5    5    0  502  0.17139309418E+02  0.40932479501E+02 -0.23164137397E+03  0.23590048737E+03  0.47000000000E+01 0.  1.
         13    1    6    6    0    0 -0.55123238815E+02 -0.18107885717E+02 -0.58105694187E+02  0.82114180746E+02  0.00000000000E+00 0. -1.
        -14    1    6    6    0    0 -0.56365501788E+02  0.59700433730E+02 -0.15442853416E+03  0.17489820966E+03  0.00000000000E+00 0.  1.
</event>
<event>
12    1  0.1627564E-001  0.2332244E+03  0.7818608E-02  0.1124469E+00
         21   -1    0    0  503  502  0.00000000000E+00  0.00000000000E+00  0.53363308642E+02  0.53363308642E+02  0.00000000000E+00 0.  1.
         21   -1    0    0  501  503 -0.00000000000E+00 -0.00000000000E+00 -0.12159658641E+04  0.12159658641E+04  0.00000000000E+00 0.  1.
          6    2    1    2  501    0  0.17936808379E+02 -0.15728003726E+03 -0.32432327893E+03  0.39921093300E+03  0.17066060046E+03 0.  0.
         24    2    3    3    0    0  0.15568728922E+02 -0.15431051234E+03 -0.16539557296E+03  0.24016838648E+03  0.79189890576E+02 0.  0.
         -6    2    1    2    0  502 -0.17936808379E+02  0.15728003726E+03 -0.83827927654E+03  0.87011823976E+03  0.17127424345E+03 0.  0.
        -24    2    5    5    0    0 -0.18352308702E+02  0.70651594507E+02 -0.21279912168E+03  0.23864997147E+03  0.79635969594E+02 0.  0.
          5    1    3    3  501    0  0.23680794566E+01 -0.29695249269E+01 -0.15892770597E+03  0.15904254652E+03  0.47000000000E+01 0. -1.
        -11    1    4    4    0    0  0.28357014873E+02 -0.73198606656E+02 -0.34719781562E+02  0.85834838735E+02  0.00000000000E+00 0.  1.
         12    1    4    4    0    0 -0.12788285951E+02 -0.81111905682E+02 -0.13067579140E+03  0.15433354774E+03  0.00000000000E+00 0. -1.
         -5    1    5    5    0  502  0.41550032345E+00  0.86628442758E+02 -0.62548015486E+03  0.63146826829E+03  0.47000000000E+01 0.  1.
         11    1    6    6    0    0 -0.34548234300E+02  0.71393973409E+02 -0.11612698559E+03  0.14062772385E+03  0.00000000000E+00 0. -1.
        -12    1    6    6    0    0  0.16195925598E+02 -0.74237890197E+00 -0.96672136094E+02  0.98022247625E+02  0.00000000000E+00 0.  1.
</event>
<event>
12    1  0.1627564E-001  0.1926042E+03  0.7818608E-02  0.1156245E+00
         21   -1    0    0  503  502  0.00000000000E+00  0.00000000000E+00  0.16626900862E+03  0.16626900862E+03  0.00000000000E+00 0.  1.
         21   -1    0    0  501  503 -0.00000000000E+00 -0.00000000000E+00 -0.26722297501E+03  0.26722297501E+03  0.00000000000E+00 0. -1.
          6    2    1    2  501    0 -0.87341471891E+02 -0.57463910361E+01 -0.13917502991E+03  0.23762588077E+03  0.17156577905E+03 0.  0.
         24    2    3    3    0    0 -0.13668693125E+02  0.21549501334E+02 -0.10944251695E+02  0.87166695101E+02  0.82625915487E+02 0.  0.
         -6    2    1    2    0  502  0.87341471891E+02  0.57463910361E+01  0.38221063511E+02  0.19586610286E+03  0.17100037085E+03 0.  0.
        -24    2    5    5    0    0  0.85197993976E+01 -0.64084064049E+02  0.21433025821E+02  0.89127746484E+02  0.57489358585E+02 0.  0.
          5    1    3    3  501    0 -0.73672778765E+02 -0.27295892370E+02 -0.12823077821E+03  0.15045918567E+03  0.47000000000E+01 0. -1.
        -13    1    4    4    0    0  0.33092309410E+02  0.67744120317E+01  0.77988030440E+01  0.34667202503E+02  0.00000000000E+00 0.  1.
         14    1    4    4    0    0 -0.46761002536E+02  0.14775089303E+02 -0.18743054739E+02  0.52499492597E+02  0.00000000000E+00 0. -1.
         -5    1    5    5    0  502  0.78821672493E+02  0.69830455085E+02  0.16788037690E+02  0.10673835637E+03  0.47000000000E+01 0.  1.
         13    1    6    6    0    0  0.28471834925E+00 -0.81854853379E+01 -0.18303185685E+02  0.20052177961E+02  0.00000000000E+00 0. -1.
        -14    1    6    6    0    0  0.82350810483E+01 -0.55898578711E+02  0.39736211506E+02  0.69075568523E+02  0.00000000000E+00 0.  1.
</event>
<event>
12    1  0.1627564E-001  0.2022086E+03  0.7818608E-02  0.1149809E+00
         21   -1    0    0  501  502  0.00000000000E+00  0.00000000000E+00  0.96864211999E+02  0.96864211999E+02  0.00000000000E+00 0.  1.
         21   -1    0    0  502  503 -0.00000000000E+00 -0.00000000000E+00 -0.55490357132E+03  0.55490357132E+03  0.00000000000E+00 0.  1.
         -6    2    1    2    0  503  0.53820012955E+02 -0.10001965476E+03 -0.40300127854E+03  0.45088618568E+03  0.16729553729E+03 0.  0.
        -24    2    3    3    0    0 -0.24508547319E+02 -0.19422471921E+02 -0.13450124611E+03  0.15977516450E+03  0.80371740549E+02 0.  0.
          6    2    1    2  501    0 -0.53820012955E+02  0.10001965476E+03 -0.55038080781E+02  0.20088159764E+03  0.15628083952E+03 0.  0.
         24    2    5    5    0    0 -0.32279209408E+02  0.12866772122E+02  0.14959362606E+02  0.86945811998E+02  0.78283398685E+02 0.  0.
          5    1    5    5  501    0 -0.21540803547E+02  0.87152882636E+02 -0.69997443387E+02  0.11393578564E+03  0.47000000000E+01 0. -1.
        -13    1    6    6    0    0 -0.56897299081E+02  0.90067647778E+00  0.17293701497E+02  0.59474246295E+02  0.00000000000E+00 0.  1.
         14    1    6    6    0    0  0.24618089674E+02  0.11966095644E+02 -0.23343388909E+01  0.27471565704E+02  0.00000000000E+00 0. -1.
         -5    1    3    3    0  503  0.78328560274E+02 -0.80597182837E+02 -0.26850003243E+03  0.29111102118E+03  0.47000000000E+01 0.  1.
         11    1    4    4    0    0  0.23732151507E+02 -0.19496420450E+02 -0.23269746169E+02  0.38533187154E+02  0.00000000000E+00 0. -1.
        -12    1    4    4    0    0 -0.48240698826E+02  0.73948528360E-01 -0.11123149995E+03  0.12124197735E+03  0.00000000000E+00 0.  1.
</event>
<event>
12    1  0.1627564E-001  0.1962930E+03  0.7818608E-02  0.1153176E+00
         21   -1    0    0  501  502  0.00000000000E+00  0.00000000000E+00  0.46646661810E+03  0.46646661810E+03  0.00000000000E+00 0. -1.
         21   -1    0    0  502  503 -0.00000000000E+00 -0.00000000000E+00 -0.83855644007E+02  0.83855644007E+02  0.00000000000E+00 0.  1.
         -6    2    1    2    0  503 -0.90989662547E+02 -0.15571220873E+02  0.15182308118E+03  0.24815557258E+03  0.17323209464E+03 0.  0.
        -24    2    3    3    0    0 -0.13172898374E+03  0.70859695389E+01  0.10806125590E+03  0.18404451331E+03  0.69227247043E+02 0.  0.
          6    2    1    2  501    0  0.90989662547E+02  0.15571220873E+02  0.23078789291E+03  0.30216668953E+03  0.17181407142E+03 0.  0.
         24    2    5    5    0    0  0.13133531379E+02 -0.97075135055E+01  0.20096891720E+03  0.21492075618E+03  0.74402286895E+02 0.  0.
          5    1    5    5  501    0  0.77856131168E+02  0.25278734379E+02  0.29818975713E+02  0.87245933343E+02  0.47000000000E+01 0. -1.
        -11    1    6    6    0    0  0.50932843641E+01 -0.34178617764E+02  0.44478160192E+02  0.56324294864E+02  0.00000000000E+00 0.  1.
         12    1    6    6    0    0  0.80402470151E+01  0.24471104259E+02  0.15649075700E+03  0.15859646132E+03  0.00000000000E+00 0. -1.
         -5    1    3    3    0  503  0.40739321188E+02 -0.22657190412E+02  0.43761825286E+02  0.64111059269E+02  0.47000000000E+01 0.  1.
         11    1    4    4    0    0 -0.56485865855E+00 -0.48478668705E+00 -0.84255065690E+01  0.84583239700E+01  0.00000000000E+00 0. -1.
        -12    1    4    4    0    0 -0.13116412508E+03  0.75707562259E+01  0.11648676247E+03  0.17558618934E+03  0.00000000000E+00 0.  1.
</event>
<event>
12    1  0.1627564E-001  0.1909670E+03  0.7818608E-02  0.1158301E+00
         21   -1    0    0  503  502  0.00000000000E+00  0.00000000000E+00  0.31252985524E+02  0.31252985524E+02  0.00000000000E+00 0. -1.
         21   -1    0    0  501  503 -0.00000000000E+00 -0.00000000000E+00 -0.14645009307E+04  0.14645009307E+04  0.00000000000E+00 0.  1.
          6    2    1    2  501    0  0.53798459217E+01  0.83828448615E+02 -0.37349664073E+03  0.41948557722E+03  0.17150002133E+03 0.  0.
         24    2    3    3    0    0 -0.43724948015E+02  0.90429212403E+02 -0.31215249435E+03  0.34049162071E+03  0.91684516173E+02 0.  0.
         -6    2    1    2    0  502 -0.53798459217E+01 -0.83828448615E+02 -0.10597513045E+04  0.10762683391E+04  0.16800166291E+03 0.  0.
        -24    2    5    5    0    0 -0.35569814428E+01  0.92554957264E+01 -0.29488456056E+03  0.30574178565E+03  0.80142492583E+02 0.  0.
          5    1    3    3  501    0  0.49104793936E+02 -0.66007637876E+01 -0.61344146378E+02  0.78993956509E+02  0.47000000000E+01 0. -1.
        -11    1    4    4    0    0 -0.73912917228E+01  0.12766264569E+02 -0.19371391160E+03  0.19427477513E+03  0.00000000000E+00 0.  1.
         12    1    4    4    0    0 -0.36333656292E+02  0.77662947834E+02 -0.11843858275E+03  0.14621684558E+03  0.00000000000E+00 0. -1.
         -5    1    5    5    0  502 -0.18228644789E+01 -0.93083944342E+02 -0.76486674393E+03  0.77052655340E+03  0.47000000000E+01 0.  1.
         11    1    6    6    0    0 -0.35282765853E+02 -0.31597861507E+01 -0.71715830948E+02  0.79987612937E+02  0.00000000000E+00 0. -1.
        -12    1    6    6    0    0  0.31725784411E+02  0.12415281877E+02 -0.22316872961E+03  0.22575417271E+03  0.00000000000E+00 0.  1.
</event>
<event>
12    1  0.1627564E-001  0.1969310E+03  0.7818608E-02  0.1152986E+00
         21   -1    0    0  503  502  0.00000000000E+00  0.00000000000E+00  0.17726885484E+03  0.17726885484E+03  0.00000000000E+00 0.  1.
         21   -1    0    0  501  503 -0.00000000000E+00 -0.00000000000E+00 -0.22279152102E+03  0.22279152102E+03  0.00000000000E+00 0. -1.
          6    2    1    2  501    0  0.94463233162E+02  0.16853273487E+01 -0.58986774194E+02  0.20557540325E+03  0.17278791666E+03 0.  0.
         24    2    3    3    0    0  0.10245580080E+03 -0.10452268904E+02 -0.98693920891E+02  0.16303189753E+03  0.78945985009E+02 0.  0.
         -6    2    1    2    0  502 -0.94463233162E+02 -0.16853273487E+01  0.13464108019E+02  0.19448497261E+03  0.16946084981E+03 0.  0.
        -24    2    5    5    0    0 -0.16873280600E+02 -0.20332109915E+02 -0.53053843563E+02  0.90491553967E+02  0.68380616630E+02 0.  0.
          5    1    3    3  501    0 -0.79925676329E+01  0.12137596253E+02  0.39707146696E+02  0.42543505720E+02  0.47000000000E+01 0. -1.
        -13    1    4    4    0    0  0.71877954547E+02  0.49925663587E+01 -0.16402205098E+02  0.73894508597E+02  0.00000000000E+00 0.  1.
         14    1    4    4    0    0  0.30577846249E+02 -0.15444835263E+02 -0.82291715793E+02  0.89137388932E+02  0.00000000000E+00 0. -1.
         -5    1    5    5    0  502 -0.77589952562E+02  0.18646782566E+02  0.66517951582E+02  0.10399341864E+03  0.47000000000E+01 0.  1.
         13    1    6    6    0    0 -0.78600407935E+01  0.20637604089E+02 -0.41451483750E+02  0.46967184809E+02  0.00000000000E+00 0. -1.
        -14    1    6    6    0    0 -0.90132398067E+01 -0.40969714004E+02 -0.11602359813E+02  0.43524369158E+02  0.00000000000E+00 0.  1.
</event>
<event>
12    1  0.1627564E-001  0.1727989E+03  0.7818608E-02  0.1175629E+00
         21   -1    0    0  503  502  0.00000000000E+00  0.00000000000E+00  0.40871941814E+03  0.40871941814E+03  0.00000000000E+00 0.  1.
         21   -1    0    0  501  503 -0.00000000000E+00 -0.00000000000E+00 -0.10827340537E+03  0.10827340537E+03  0.00000000000E+00 0.  1.
          6    2    1    2  501    0 -0.84531608476E+01 -0.20682186945E+02  0.12837364472E+01  0.17280361870E+03  0.17134828237E+03 0.  0.
         24    2    3    3    0    0 -0.32729550738E+02  0.47964484759E+02  0.80418979160E+01  0.99526941725E+02  0.80430869182E+02 0.  0.
         -6    2    1    2    0  502  0.84531608476E+01  0.20682186945E+02  0.29916227632E+03  0.34418920482E+03  0.16872739064E+03 0.  0.
        -24    2    5    5    0    0  0.86192865410E+01  0.40572131986E+02  0.69504702375E+02  0.11362396723E+03  0.79744042301E+02 0.  0.
          5    1    3    3  501    0  0.24276389890E+02 -0.68646671705E+02 -0.67581614688E+01  0.73276676976E+02  0.47000000000E+01 0. -1.
        -11    1    4    4    0    0  0.22335213915E+02  0.32321809658E+02  0.14590726180E+02  0.41910028044E+02  0.00000000000E+00 0.  1.
         12    1    4    4    0    0 -0.55064764652E+02  0.15642675102E+02 -0.65488282642E+01  0.57616913681E+02  0.00000000000E+00 0. -1.
         -5    1    5    5    0  502 -0.16612569338E+00 -0.19889945041E+02  0.22965757395E+03  0.23056523759E+03  0.47000000000E+01 0.  1.
         13    1    6    6    0    0 -0.31321572503E+00  0.61620160514E+02  0.66335647057E+02  0.90540379700E+02  0.00000000000E+00 0. -1.
        -14    1    6    6    0    0  0.89325022660E+01 -0.21048028528E+02  0.31690553183E+01  0.23083587530E+02  0.00000000000E+00 0.  1.
</event>
<event>
12    1  0.1627564E-001  0.1884573E+03  0.7818608E-02  0.1159932E+00
         21   -1    0    0  501  502  0.00000000000E+00  0.00000000000E+00  0.20140879757E+03  0.20140879757E+03  0.00000000000E+00 0.  1.
         21   -1    0    0  502  503 -0.00000000000E+00 -0.00000000000E+00 -0.28532382554E+03  0.28532382554E+03  0.00000000000E+00 0.  1.
         -6    2    1    2    0  503  0.60296260975E+02 -0.47621411579E+02 -0.19259130147E+03  0.26945793717E+03  0.17208350466E+03 0.  0.
        -24    2    3    3    0    0  0.18450699202E+02 -0.33455766820E+02 -0.20483699460E+03  0.22337362821E+03  0.80485196106E+02 0.  0.
          6    2    1    2  501    0 -0.60296260975E+02  0.47621411579E+02  0.10867627350E+03  0.21727468594E+03  0.17173910096E+03 0.  0.
         24    2    5    5    0    0 -0.57673425665E+01  0.21666006796E+02  0.12953901041E+03  0.15320886219E+03  0.78676058272E+02 0.  0.
          5    1    5    5  501    0 -0.54528918409E+02  0.25955404783E+02 -0.20862736916E+02  0.64065823743E+02  0.47000000000E+01 0. -1.
        -11    1    6    6    0    0 -0.42064690431E+02  0.89426984258E+01  0.61375960844E+02  0.74942768869E+02  0.00000000000E+00 0.  1.
         12    1    6    6    0    0  0.36297347864E+02  0.12723308371E+02  0.68163049568E+02  0.78266093325E+02  0.00000000000E+00 0. -1.
         -5    1    3    3    0  503  0.41845561774E+02 -0.14165644759E+02  0.12245693129E+02  0.46084308955E+02  0.47000000000E+01 0.  1.
         13    1    4    4    0    0 -0.22284466669E+02 -0.10315155907E+02 -0.17210714155E+02  0.29986806730E+02  0.00000000000E+00 0. -1.
        -14    1    4    4    0    0  0.40735165871E+02 -0.23140610912E+02 -0.18762628044E+03  0.19338682148E+03  0.00000000000E+00 0.  1.
</event>
<event>
12    1  0.1627564E-001  0.1716475E+03  0.7818608E-02  0.1176289E+00
         21   -1    0    0  503  502  0.00000000000E+00  0.00000000000E+00  0.18609036726E+02  0.18609036726E+02  0.00000000000E+00 0. -1.
         21   -1    0    0  501  503 -0.00000000000E+00 -0.00000000000E+00 -0.20764350172E+04  0.20764350172E+04  0.00000000000E+00 0. -1.
          6    2    1    2  501    0 -0.24526751367E+01  0.59627424304E+01 -0.15408459581E+04  0.15503136558E+04  0.17095202555E+03 0.  0.
         24    2    3    3    0    0 -0.29659695869E+02  0.14696213749E+02 -0.41212937387E+03  0.42122565529E+03  0.80527980334E+02 0.  0.
         -6    2    1    2    0  502  0.24526751367E+01 -0.59627424304E+01 -0.51698002239E+03  0.54473039808E+03  0.17152636279E+03 0.  0.
        -24    2    5    5    0    0  0.31169343138E+02  0.50370226893E+02 -0.23004704130E+03  0.25087554259E+03  0.80673471191E+02 0.  0.
          5    1    3    3  501    0  0.27207020732E+02 -0.87334713189E+01 -0.11287165842E+04  0.11290880005E+04  0.47000000000E+01 0. -1.
        -11    1    4    4    0    0 -0.12116004233E+02 -0.32854811147E+02 -0.13303976282E+03  0.13757112584E+03  0.00000000000E+00 0.  1.
         12    1    4    4    0    0 -0.17543691636E+02  0.47551024896E+02 -0.27908961105E+03  0.28365452945E+03  0.00000000000E+00 0. -1.
         -5    1    5    5    0  502 -0.28716668002E+02 -0.56332969323E+02 -0.28693298109E+03  0.29385485549E+03  0.47000000000E+01 0.  1.
         13    1    6    6    0    0 -0.15002318648E+02  0.84455402562E+01 -0.14165145023E+03  0.14269383332E+03  0.00000000000E+00 0. -1.
        -14    1    6    6    0    0  0.46171661786E+02  0.41924686637E+02 -0.88395591061E+02  0.10818170927E+03  0.00000000000E+00 0.  1.
</event>
<event>
12    1  0.1627564E-001  0.1727635E+03  0.7818608E-02  0.1175636E+00
         21   -1    0    0  501  502  0.00000000000E+00  0.00000000000E+00  0.41051365640E+03  0.41051365640E+03  0.00000000000E+00 0.  1.
         21   -1    0    0  502  503 -0.00000000000E+00 -0.00000000000E+00 -0.11356753889E+03  0.11356753889E+03  0.00000000000E+00 0.  1.
         -6    2    1    2    0  503 -0.11052317504E+02 -0.68843402876E+01 -0.11373919527E+02  0.17065724762E+03  0.16977921620E+03 0.  0.
        -24    2    3    3    0    0  0.13012333419E+02 -0.25086495489E+02  0.53050993535E+02  0.99361488266E+02  0.79117914270E+02 0.  0.
          6    2    1    2  501    0  0.11052317504E+02  0.68843402876E+01  0.30832003703E+03  0.35342394767E+03  0.17227215006E+03 0.  0.
         24    2    5    5    0    0  0.59400243222E+02  0.18636938987E+02  0.27549144216E+03  0.29362886310E+03  0.80291034076E+02 0.  0.
          5    1    5    5  501    0 -0.48347925717E+02 -0.11752598699E+02  0.32828594877E+02  0.59795084572E+02  0.47000000000E+01 0. -1.
        -11    1    6    6    0    0  0.13521939834E+02 -0.31013482773E+02  0.84164786501E+02  0.90710474905E+02  0.00000000000E+00 0.  1.
         12    1    6    6    0    0  0.45878303388E+02  0.49650421760E+02  0.19132665565E+03  0.20291838819E+03  0.00000000000E+00 0. -1.
         -5    1    3    3    0  503 -0.24064650924E+02  0.18202155202E+02 -0.64424913063E+02  0.71295759349E+02  0.47000000000E+01 0.  1.
         11    1    4    4    0    0  0.30189232214E+02  0.16507262896E+02  0.39457150423E+02  0.52352136437E+02  0.00000000000E+00 0. -1.
        -12    1    4    4    0    0 -0.17176898795E+02 -0.41593758386E+02  0.13593843112E+02  0.47009351829E+02  0.00000000000E+00 0.  1.
</event>
<event>
12    1  0.1627564E-001  0.2559707E+03  0.7818608E-02  0.1109894E+00
         21   -1    0    0  501  502  0.00000000000E+00  0.00000000000E+00  0.25878915180E+03  0.25878915180E+03  0.00000000000E+00 0.  1.
         21   -1    0    0  502  503 -0.00000000000E+00 -0.00000000000E+00 -0.32037005258E+03  0.32037005258E+03  0.00000000000E+00 0. -1.
         -6    2    1    2    0  503 -0.13118841332E+02 -0.18663666442E+03 -0.16522787763E+03  0.30300033835E+03  0.17176613458E+03 0.  0.
        -24    2    3    3    0    0 -0.31563035818E+02 -0.20826127835E+03 -0.14930863784E+03  0.27008644412E+03  0.79275675152E+02 0.  0.
          6    2    1    2  501    0  0.13118841332E+02  0.18663666442E+03  0.10364697685E+03  0.27615886603E+03  0.17468736352E+03 0.  0.
         24    2    5    5    0    0 -0.34658287811E+02  0.11564707153E+03  0.39789598172E+01  0.14471313584E+03  0.79690761661E+02 0.  0.
          5    1    5    5  501    0  0.47777129143E+02  0.70989592887E+02  0.99668017031E+02  0.13144573019E+03  0.47000000000E+01 0. -1.
        -13    1    6    6    0    0 -0.10491026663E+02  0.11432799493E+03 -0.12418994203E+02  0.11547806494E+03  0.00000000000E+00 0.  1.
         14    1    6    6    0    0 -0.24167261148E+02  0.13190766070E+01  0.16397954020E+02  0.29235070900E+02  0.00000000000E+00 0. -1.
         -5    1    3    3    0  503  0.18444194486E+02  0.21624613932E+02 -0.15919239794E+02  0.32913894233E+02  0.47000000000E+01 0.  1.
         11    1    4    4    0    0 -0.86620550046E+01 -0.15666784812E+03 -0.67773630583E+02  0.17091843328E+03  0.00000000000E+00 0. -1.
        -12    1    4    4    0    0 -0.22900980814E+02 -0.51593430232E+02 -0.81535007257E+02  0.99168010839E+02  0.00000000000E+00 0.  1.
</event>
<event>
12    1  0.1627564E-001  0.1977053E+03  0.7818608E-02  0.1152409E+00
         21   -1    0    0  503  502  0.00000000000E+00  0.00000000000E+00  0.19739815491E+03  0.19739815491E+03  0.00000000000E+00 0. -1.
         21   -1    0    0  501  503 -0.00000000000E+00 -0.00000000000E+00 -0.27519330268E+03  0.27519330268E+03  0.00000000000E+00 0. -1.
          6    2    1    2  501    0  0.48568327301E+02 -0.84088400803E+02 -0.16646370833E+03  0.25591313941E+03  0.16837941432E+03 0.  0.
         24    2    3    3    0    0  0.76356497556E+02 -0.11195622072E+02 -0.99481705612E+02  0.15298492032E+03  0.86902931032E+02 0.  0.
         -6    2    1    2    0  502 -0.48568327301E+02  0.84088400803E+02  0.88668560567E+02  0.21667831818E+03  0.17221393198E+03 0.  0.
        -24    2    5    5    0    0  0.33431601498E+02  0.31880790419E+02  0.20221105362E+02  0.97696105097E+02  0.83675438885E+02 0.  0.
          5    1    3    3  501    0 -0.27788170254E+02 -0.72892778730E+02 -0.66982002718E+02  0.10292821909E+03  0.47000000000E+01 0. -1.
        -13    1    4    4    0    0  0.20905086881E+02 -0.17101242531E+02  0.11050694032E+02  0.29182066276E+02  0.00000000000E+00 0.  1.
         14    1    4    4    0    0  0.55451410675E+02  0.59056204582E+01 -0.11053239964E+03  0.12380285405E+03  0.00000000000E+00 0. -1.
         -5    1    5    5    0  502 -0.81999928799E+02  0.52207610384E+02  0.68447455205E+02  0.11898221308E+03  0.47000000000E+01 0.  1.
         13    1    6    6    0    0  0.21369856219E+02  0.60292270863E+02  0.78654896045E+01  0.64449162968E+02  0.00000000000E+00 0. -1.
        -14    1    6    6    0    0  0.12061745279E+02 -0.28411480444E+02  0.12355615757E+02  0.33246942129E+02  0.00000000000E+00 0.  1.
</event>
<event>
12    1  0.1627564E-001  0.1919923E+03  0.7818608E-02  0.1158692E+00
         21   -1    0    0  503  502  0.00000000000E+00  0.00000000000E+00  0.14898930395E+03  0.14898930395E+03  0.00000000000E+00 0. -1.
         21   -1    0    0  501  503 -0.00000000000E+00 -0.00000000000E+00 -0.28216623183E+03  0.28216623183E+03  0.00000000000E+00 0.  1.
          6    2    1    2  501    0  0.91320529451E+02 -0.27075152460E+02 -0.15493366663E+03  0.24670930281E+03  0.16669893838E+03 0.  0.
         24    2    3    3    0    0  0.10691482628E+03 -0.42191193598E+02 -0.68102679279E+02  0.15708013815E+03  0.82615482689E+02 0.  0.
         -6    2    1    2    0  502 -0.91320529451E+02  0.27075152460E+02  0.21756738745E+02  0.18444623297E+03  0.15644345367E+03 0.  0.
        -24    2    5    5    0    0 -0.98986253493E+02  0.53390215605E+02  0.47228943179E+02  0.14673457599E+03  0.81557766122E+02 0.  0.
          5    1    3    3  501    0 -0.15594296833E+02  0.15116041139E+02 -0.86830987351E+02  0.89629164661E+02  0.47000000000E+01 0. -1.
        -11    1    4    4    0    0  0.11373561007E+02  0.93382478981E+01 -0.43298345299E+02  0.45730815316E+02  0.00000000000E+00 0.  1.
         12    1    4    4    0    0  0.95541265277E+02 -0.51529441496E+02 -0.24804333980E+02  0.11134932284E+03  0.00000000000E+00 0. -1.
         -5    1    5    5    0  502  0.76657240421E+01 -0.26315063145E+02 -0.25472204434E+02  0.37711656980E+02  0.47000000000E+01 0.  1.
         11    1    6    6    0    0 -0.79262972232E+02  0.59823966129E+02  0.47012393181E+01  0.99416433962E+02  0.00000000000E+00 0. -1.
        -12    1    6    6    0    0 -0.19723281261E+02 -0.64337505247E+01  0.42527703861E+02  0.47318142031E+02  0.00000000000E+00 0.  1.
</event>
<event>
12    1  0.1627564E-001  0.1917618E+03  0.7818608E-02  0.1158006E+00
         21   -1    0    0  503  502  0.00000000000E+00  0.00000000000E+00  0.45658515428E+02  0.45658515428E+02  0.00000000000E+00 0.  1.
         21   -1    0    0  501  503 -0.00000000000E+00 -0.00000000000E+00 -0.88174836050E+03  0.88174836050E+03  0.00000000000E+00 0.  1.
          6    2    1    2  501    0  0.65546443547E+02 -0.51835505700E+02 -0.57682372375E+03  0.60786363371E+03  0.17259586610E+03 0.  0.
         24    2    3    3    0    0  0.10880984290E+01 -0.57579764391E+02 -0.48576690164E+03  0.49605437821E+03  0.82364131668E+02 0.  0.
         -6    2    1    2    0  502 -0.65546443547E+02  0.51835505700E+02 -0.25926612132E+03  0.31954324222E+03  0.16705001068E+03 0.  0.
        -24    2    5    5    0    0 -0.79592372731E+02 -0.16550170404E+02 -0.18928267896E+03  0.22058031468E+03  0.78859931081E+02 0.  0.
          5    1    3    3  501    0  0.64458345118E+02  0.57442586914E+01 -0.91056822110E+02  0.11180925550E+03  0.47000000000E+01 0. -1.
        -13    1    4    4    0    0  0.16572082407E+01 -0.50379794567E+02 -0.11924528496E+03  0.12946160830E+03  0.00000000000E+00 0.  1.
         14    1    4    4    0    0 -0.56910981172E+00 -0.71999698236E+01 -0.36652161668E+03  0.36659276991E+03  0.00000000000E+00 0. -1.
         -5    1    5    5    0  502  0.14045929184E+02  0.68385676104E+02 -0.69983442357E+02  0.98962927538E+02  0.47000000000E+01 0.  1.
         11    1    6    6    0    0 -0.94054893748E+01 -0.42009650597E+01  0.65341444425E+01  0.12198622111E+02  0.00000000000E+00 0. -1.
        -12    1    6    6    0    0 -0.70186883356E+02 -0.12349205344E+02 -0.19581682341E+03  0.20838169257E+03  0.00000000000E+00 0.  1.
</event>
<event>
12    1  0.1627564E-001  0.1829445E+03  0.7818608E-02  0.1165175E+00
         21   -1    0    0  501  502  0.00000000000E+00  0.00000000000E+00  0.23618401755E+03  0.23618401755E+03  0.00000000000E+00 0. -1.
         21   -1    0    0  502  503 -0.00000000000E+00 -0.00000000000E+00 -0.21475867660E+03  0.21475867660E+03  0.00000000000E+00 0. -1.
         -6    2    1    2    0  503  0.54997324975E+01  0.62669199057E+02 -0.12136730596E+03  0.21886847911E+03  0.17092604431E+03 0.  0.
        -24    2    3    3    0    0  0.20899763145E+02  0.31988641862E+01 -0.13253332932E+03  0.15625337109E+03  0.80018746341E+02 0.  0.
          6    2    1    2  501    0 -0.54997324975E+01 -0.62669199057E+02  0.14279264690E+03  0.23207421505E+03  0.17178773447E+03 0.  0.
         24    2    5    5    0    0 -0.25297997271E+02 -0.67909224074E+02  0.21212995141E+02  0.10869216258E+03  0.78181479024E+02 0.  0.
          5    1    5    5  501    0  0.19798264774E+02  0.52400250167E+01  0.12157965176E+03  0.12338205247E+03  0.47000000000E+01 0. -1.
        -13    1    6    6    0    0  0.16975675561E+02 -0.59313702325E+02  0.22129036787E+02  0.65543749613E+02  0.00000000000E+00 0.  1.
         14    1    6    6    0    0 -0.42273672833E+02 -0.85955217489E+01 -0.91604164579E+00  0.43148412963E+02  0.00000000000E+00 0. -1.
         -5    1    3    3    0  503 -0.15400030648E+02  0.59470334871E+02  0.11166023362E+02  0.62615108011E+02  0.47000000000E+01 0.  1.
         11    1    4    4    0    0  0.17227646922E+02  0.24015982663E+02 -0.13183060880E+03  0.13510317782E+03  0.00000000000E+00 0. -1.
        -12    1    4    4    0    0  0.36721162232E+01 -0.20817118476E+02 -0.70272052029E+00  0.21150193270E+02  0.00000000000E+00 0.  1.
</event>
<event>
12    1  0.1627564E-001  0.1871944E+03  0.7818608E-02  0.1161347E+00
         21   -1    0    0  503  502  0.00000000000E+00  0.00000000000E+00  0.26892230558E+03  0.26892230558E+03  0.00000000000E+00 0.  1.
         21   -1    0    0  501  503 -0.00000000000E+00 -0.00000000000E+00 -0.12961490202E+03  0.12961490202E+03  0.00000000000E+00 0.  1.
          6    2    1    2  501    0  0.37830332517E+02  0.63242665861E+02  0.59726603386E+02  0.19512915124E+03  0.17052081887E+03 0.  0.
         24    2    3    3    0    0  0.18110226306E+01 -0.30995408715E+02  0.24855292052E+02  0.88282046750E+02  0.78815855455E+02 0.  0.
         -6    2    1    2    0  502 -0.37830332517E+02 -0.63242665861E+02  0.79580800180E+02  0.20340805636E+03  0.17207836816E+03 0.  0.
        -24    2    5    5    0    0 -0.66356672540E+02 -0.87560722468E+02  0.90368389168E+02  0.16411960986E+03  0.81845662494E+02 0.  0.
          5    1    3    3  501    0  0.36019309887E+02  0.94238074576E+02  0.34871311334E+02  0.10684710449E+03  0.47000000000E+01 0. -1.
        -13    1    4    4    0    0 -0.10007798662E+02  0.11863726607E+02  0.38717095179E+02  0.41712318351E+02  0.00000000000E+00 0.  1.
         14    1    4    4    0    0  0.11818821293E+02 -0.42859135321E+02 -0.13861803127E+02  0.46569728399E+02  0.00000000000E+00 0. -1.
         -5    1    5    5    0  502  0.28526340022E+02  0.24318056607E+02 -0.10787588988E+02  0.39288446500E+02  0.47000000000E+01 0.  1.
         11    1    6    6    0    0  0.14228316416E+02 -0.35826244460E+01  0.29100299630E+02  0.32589992705E+02  0.00000000000E+00 0. -1.
        -12    1    6    6    0    0 -0.80584988956E+02 -0.83978098022E+02  0.61268089538E+02  0.13152961715E+03  0.00000000000E+00 0.  1.
</event>
<event>
12    1  0.1627564E-001  0.2227083E+03  0.7818608E-02  0.1131929E+00
         21   -1    0    0  503  502  0.00000000000E+00  0.00000000000E+00  0.16140376170E+03  0.16140376170E+03  0.00000000000E+00 0.  1.
         21   -1    0    0  501  503 -0.00000000000E+00 -0.00000000000E+00 -0.37114710982E+03  0.37114710982E+03  0.00000000000E+00 0. -1.
          6    2    1    2  501    0  0.25077504169E+01 -0.14086907044E+03 -0.21558363778E+03  0.30976600262E+03  0.17212869512E+03 0.  0.
         24    2    3    3    0    0 -0.34337858759E+01 -0.16767736151E+02 -0.14774954231E+03  0.16813268192E+03  0.78394665734E+02 0.  0.
         -6    2    1    2    0  502 -0.25077504169E+01  0.14086907044E+03  0.58402896574E+01  0.22278486890E+03  0.17247783918E+03 0.  0.
        -24    2    5    5    0    0  0.20010398844E+02  0.37127753824E+02 -0.48647292331E+02  0.10336831054E+03  0.80867560908E+02 0.  0.
          5    1    3    3  501    0  0.59415362929E+01 -0.12410133429E+03 -0.67834095474E+02  0.14163332070E+03  0.47000000000E+01 0. -1.
        -13    1    4    4    0    0 -0.38955578899E+02 -0.87217660673E+01 -0.51074857621E+02  0.64824743822E+02  0.00000000000E+00 0.  1.
         14    1    4    4    0    0  0.35521793023E+02 -0.80459700839E+01 -0.96674684690E+02  0.10330793810E+03  0.00000000000E+00 0. -1.
         -5    1    5    5    0  502 -0.22518149261E+02  0.10374131661E+03  0.54487581988E+02  0.11941655836E+03  0.47000000000E+01 0.  1.
         11    1    6    6    0    0 -0.16432885917E+01 -0.24699282581E+02 -0.69373792562E+01  0.25707628991E+02  0.00000000000E+00 0. -1.
        -12    1    6    6    0    0  0.21653687436E+02  0.61827036405E+02 -0.41709913074E+02  0.77660681550E+02  0.00000000000E+00 0.  1.
</event>
<event>
12    1  0.1627564E-001  0.3469277E+03  0.7818608E-02  0.1063950E+00
         21   -1    0    0  501  502  0.00000000000E+00  0.00000000000E+00  0.18164178046E+04  0.18164178046E+04  0.00000000000E+00 0.  1.
         21   -1    0    0  502  503 -0.00000000000E+00 -0.00000000000E+00 -0.66153040079E+02  0.66153040079E+02  0.00000000000E+00 0. -1.
         -6    2    1    2    0  503 -0.28376499807E+03  0.10137040597E+03  0.86242930548E+03  0.92959300413E+03  0.17193112876E+03 0.  0.
        -24    2    3    3    0    0 -0.10279254302E+03  0.41797858332E+02  0.22156867518E+03  0.26099420411E+03  0.81926362639E+02 0.  0.
          6    2    1    2  501    0  0.28376499807E+03 -0.10137040597E+03  0.88783545909E+03  0.95297784060E+03  0.17063536832E+03 0.  0.
         24    2    5    5    0    0  0.17755387766E+03 -0.73891538435E+02  0.73888904675E+03  0.76792916050E+03  0.82297224780E+02 0.  0.
          5    1    5    5  501    0  0.10621112041E+03 -0.27478867540E+02  0.14894641233E+03  0.18504868010E+03  0.47000000000E+01 0. -1.
        -13    1    6    6    0    0  0.15120550237E+03 -0.32835870303E+02  0.62805630972E+03  0.64683539367E+03  0.00000000000E+00 0.  1.
         14    1    6    6    0    0  0.26348375292E+02 -0.41055668132E+02  0.11083273704E+03  0.12109376683E+03  0.00000000000E+00 0. -1.
         -5    1    3    3    0  503 -0.18097245504E+03  0.59572547642E+02  0.64086063030E+03  0.66859880002E+03  0.47000000000E+01 0.  1.
         11    1    4    4    0    0 -0.50080562247E+02  0.54455186179E+02  0.17321230358E+03  0.18835055649E+03  0.00000000000E+00 0. -1.
        -12    1    4    4    0    0 -0.52711980776E+02 -0.12657327847E+02  0.48356371591E+02  0.72643647616E+02  0.00000000000E+00 0.  1.
</event>
<event>
12    1  0.1627564E-001  0.2312027E+03  0.7818608E-02  0.1125848E+00
         21   -1    0    0  501  502  0.00000000000E+00  0.00000000000E+00  0.13664333589E+03  0.13664333589E+03  0.00000000000E+00 0. -1.
         21   -1    0    0  502  503 -0.00000000000E+00 -0.00000000000E+00 -0.45948739684E+03  0.45948739684E+03  0.00000000000E+00 0. -1.
         -6    2    1    2    0  503 -0.87796845332E+02  0.12769142983E+03 -0.27666458781E+03  0.36036130485E+03  0.17118290973E+03 0.  0.
        -24    2    3    3    0    0 -0.63236427946E+02  0.13112273271E+02 -0.78657917431E+02  0.13023019280E+03  0.81253046788E+02 0.  0.
          6    2    1    2  501    0  0.87796845332E+02 -0.12769142983E+03 -0.46179473141E+02  0.23576942788E+03  0.17158464990E+03 0.  0.
         24    2    5    5    0    0 -0.83201539957E+01 -0.33936286621E+02 -0.52029330124E+02  0.10128963288E+03  0.79571615685E+02 0.  0.
          5    1    5    5  501    0  0.96116999328E+02 -0.93755143211E+02  0.58498569835E+01  0.13447979501E+03  0.47000000000E+01 0. -1.
        -13    1    6    6    0    0 -0.53043678219E+01  0.26065094231E+02 -0.12630021838E+02  0.29445592317E+02  0.00000000000E+00 0.  1.
         14    1    6    6    0    0 -0.30157861738E+01 -0.60001380852E+02 -0.39399308287E+02  0.71844040559E+02  0.00000000000E+00 0. -1.
         -5    1    3    3    0  503 -0.24560417386E+02  0.11457915656E+03 -0.19800667038E+03  0.23013111205E+03  0.47000000000E+01 0.  1.
         13    1    4    4    0    0 -0.80326576903E+02  0.10268059439E+02 -0.78674915221E+02  0.11290497902E+03  0.00000000000E+00 0. -1.
        -14    1    4    4    0    0  0.17090148957E+02  0.28442138313E+01  0.16997790090E-01  0.17325213783E+02  0.00000000000E+00 0.  1.
</event>
<event>
12    1  0.1627564E-001  0.2006066E+03  0.7818608E-02  0.1149450E+00
         21   -1    0    0  503  502  0.00000000000E+00  0.00000000000E+00  0.16985167242E+03  0.16985167242E+03  0.00000000000E+00 0.  1.
         21   -1    0    0  501  503 -0.00000000000E+00 -0.00000000000E+00 -0.26788563703E+03  0.26788563703E+03  0.00000000000E+00 0.  1.
          6    2    1    2  501    0  0.60008940373E+02 -0.81366599640E+02 -0.12478260138E+03  0.23535520925E+03  0.17204586730E+03 0.  0.
         24    2    3    3    0    0  0.52139149887E+02 -0.12321914740E+03 -0.83727886363E+02  0.17601593911E+03  0.77908938054E+02 0.  0.
         -6    2    1    2    0  502 -0.60008940373E+02  0.81366599640E+02  0.26748636780E+02  0.20238210020E+03  0.17326692832E+03 0.  0.
        -24    2    5    5    0    0  0.47855476155E+01  0.69639039135E+01  0.61001470838E+02  0.97838169499E+02  0.76024539083E+02 0.  0.
          5    1    3    3  501    0  0.78697904858E+01  0.41852547758E+02 -0.41054715020E+02  0.59339270147E+02  0.47000000000E+01 0. -1.
        -13    1    4    4    0    0  0.71917120377E+02 -0.81755374474E+02 -0.59289733142E+02  0.12398099013E+03  0.00000000000E+00 0.  1.
         14    1    4    4    0    0 -0.19777970490E+02 -0.41463772924E+02 -0.24438153221E+02  0.52034948973E+02  0.00000000000E+00 0. -1.
         -5    1    5    5    0  502 -0.64794487988E+02  0.74402695727E+02 -0.34252834058E+02  0.10454393070E+03  0.47000000000E+01 0.  1.
         11    1    6    6    0    0  0.40259045457E+02  0.69236626549E+01  0.29397090003E+02  0.50328091026E+02  0.00000000000E+00 0. -1.
        -12    1    6    6    0    0 -0.35473497842E+02  0.40241258667E-01  0.31604380835E+02  0.47510078473E+02  0.00000000000E+00 0.  1.
</event>
<event>
12    1  0.1627564E-001  0.2003530E+03  0.7818608E-02  0.1149553E+00
         21   -1    0    0  503  502  0.00000000000E+00  0.00000000000E+00  0.38488236875E+03  0.38488236875E+03  0.00000000000E+00 0.  1.
         21   -1    0    0  501  503 -0.00000000000E+00 -0.00000000000E+00 -0.13521897519E+03  0.13521897519E+03  0.00000000000E+00 0. -1.
          6    2    1    2  501    0  0.97256441704E+02  0.29595855999E+02  0.43744848213E-01  0.20035304343E+03  0.17264590917E+03 0.  0.
         24    2    3    3    0    0  0.91911004099E+02  0.33600560873E+02  0.50329137827E+02  0.14940873942E+03  0.10106096643E+03 0.  0.
         -6    2    1    2    0  502 -0.97256441704E+02 -0.29595855999E+02  0.24961964871E+03  0.31974830051E+03  0.17202987099E+03 0.  0.
        -24    2    5    5    0    0 -0.63364989553E+02  0.21008509724E+02  0.64890557705E+02  0.12518119275E+03  0.83684330420E+02 0.  0.
          5    1    3    3  501    0  0.53454376053E+01 -0.40047048734E+01 -0.50285392979E+02  0.50944304013E+02  0.47000000000E+01 0. -1.
        -13    1    4    4    0    0  0.76114640977E+02 -0.24753840323E+02  0.32439962092E+02  0.86362852676E+02  0.00000000000E+00 0.  1.
         14    1    4    4    0    0  0.15796363122E+02  0.58354401196E+02  0.17889175735E+02  0.63045886743E+02  0.00000000000E+00 0. -1.
         -5    1    5    5    0  502 -0.33891452151E+02 -0.50604365724E+02  0.18472909100E+03  0.19456710776E+03  0.47000000000E+01 0.  1.
         11    1    6    6    0    0 -0.82010935213E+02  0.10534910290E+02  0.62526930320E+02  0.10366481971E+03  0.00000000000E+00 0. -1.
        -12    1    6    6    0    0  0.18645945660E+02  0.10473599435E+02  0.23636273848E+01  0.21516373047E+02  0.00000000000E+00 0.  1.
</event>
<event>
12    1  0.1627564E-001  0.1822205E+03  0.7818608E-02  0.1165942E+00
         21   -1    0    0  503  502  0.00000000000E+00  0.00000000000E+00  0.97913094611E+02  0.97913094611E+02  0.00000000000E+00 0. -1.
         21   -1    0    0  501  503 -0.00000000000E+00 -0.00000000000E+00 -0.56631990537E+03  0.56631990537E+03  0.00000000000E+00 0.  1.
          6    2    1    2  501    0  0.56508397635E+02 -0.69329032704E+01 -0.44510162261E+03  0.48052824923E+03  0.17190311139E+03 0.  0.
         24    2    3    3    0    0  0.10020593450E+03 -0.77951587203E+01 -0.38672096860E+03  0.40744877895E+03  0.79745884580E+02 0.  0.
         -6    2    1    2    0  502 -0.56508397635E+02  0.69329032704E+01 -0.23305188152E+02  0.18370475076E+03  0.17309835211E+03 0.  0.
        -24    2    5    5    0    0 -0.28629725645E+02 -0.50790946223E+02  0.26909409852E+02  0.10213969080E+03  0.79429331422E+02 0.  0.
          5    1    3    3  501    0 -0.43697536869E+02  0.86225544989E+00 -0.58380654011E+02  0.73079470275E+02  0.47000000000E+01 0. -1.
        -11    1    4    4    0    0 -0.80010400935E+01  0.14864760034E+02 -0.69294680220E+02  0.71321318273E+02  0.00000000000E+00 0.  1.
         12    1    4    4    0    0  0.10820697460E+03 -0.22659918754E+02 -0.31742628838E+03  0.33612746068E+03  0.00000000000E+00 0. -1.
         -5    1    5    5    0  502 -0.27878671991E+02  0.57723849494E+02 -0.50214598004E+02  0.81565059952E+02  0.47000000000E+01 0.  1.
         13    1    6    6    0    0 -0.13432493439E+02 -0.17401523995E+00  0.44465834534E+02  0.46450754591E+02  0.00000000000E+00 0. -1.
        -14    1    6    6    0    0 -0.15197232206E+02 -0.50616930983E+02 -0.17556424682E+02  0.55688936213E+02  0.00000000000E+00 0.  1.
</event>
<event>
12    1  0.1627564E-001  0.3338249E+03  0.7818608E-02  0.1069713E+00
         21   -1    0    0  501  502  0.00000000000E+00  0.00000000000E+00  0.42225548048E+03  0.42225548048E+03  0.00000000000E+00 0. -1.
         21   -1    0    0  502  503 -0.00000000000E+00 -0.00000000000E+00 -0.59113224096E+03  0.59113224096E+03  0.00000000000E+00 0.  1.
         -6    2    1    2    0  503 -0.45305967274E+02 -0.28035513498E+03 -0.46261657522E+03  0.57048503075E+03  0.17546350693E+03 0.  0.
        -24    2    3    3    0    0 -0.35509448406E+02 -0.28682121462E+03 -0.36693118681E+03  0.47396785340E+03  0.80496584534E+02 0.  0.
          6    2    1    2  501    0  0.45305967274E+02  0.28035513498E+03  0.29373981474E+03  0.44290269069E+03  0.17096222472E+03 0.  0.
         24    2    5    5    0    0  0.65857752667E+01  0.21401987786E+03  0.13233360675E+03  0.26409085220E+03  0.79899400418E+02 0.  0.
          5    1    5    5  501    0  0.38720192008E+02  0.66335257116E+02  0.16140620799E+03  0.17881183849E+03  0.47000000000E+01 0. -1.
        -11    1    6    6    0    0  0.28668865335E+02  0.11976079510E+03  0.37887444455E+02  0.12884102735E+03  0.00000000000E+00 0.  1.
         12    1    6    6    0    0 -0.22083090068E+02  0.94259082763E+02  0.94446162293E+02  0.13524982485E+03  0.00000000000E+00 0. -1.
         -5    1    3    3    0  503 -0.97965188683E+01  0.64660796479E+01 -0.95685388415E+02  0.96517177353E+02  0.47000000000E+01 0.  1.
         11    1    4    4    0    0  0.52999785860E+01 -0.16561191992E+03 -0.25446326674E+03  0.30365597625E+03  0.00000000000E+00 0. -1.
        -12    1    4    4    0    0 -0.40809426992E+02 -0.12120929471E+03 -0.11246792007E+03  0.17031187715E+03  0.00000000000E+00 0.  1.
</event>
<event>
12    1  0.1627564E-001  0.1881394E+03  0.7818608E-02  0.1160470E+00
         21   -1    0    0  501  502  0.00000000000E+00  0.00000000000E+00  0.34506635747E+03  0.34506635747E+03  0.00000000000E+00 0. -1.
         21   -1    0    0  502  503 -0.00000000000E+00 -0.00000000000E+00 -0.18105199783E+03  0.18105199783E+03  0.00000000000E+00 0. -1.
         -6    2    1    2    0  503 -0.37093407465E+02 -0.64877164394E+02 -0.91843017765E+02  0.20935991928E+03  0.17265997958E+03 0.  0.
        -24    2    3    3    0    0  0.93411912961E+01 -0.10118697017E+03 -0.64546628535E+02  0.14423114819E+03  0.79437371971E+02 0.  0.
          6    2    1    2  501    0  0.37093407465E+02  0.64877164394E+02  0.25585737741E+03  0.31675843602E+03  0.17113720191E+03 0.  0.
         24    2    5    5    0    0  0.78722933361E+02  0.40641550739E+01  0.16436443605E+03  0.19918170427E+03  0.80273693612E+02 0.  0.
          5    1    5    5  501    0 -0.41629525897E+02  0.60813009320E+02  0.91492941360E+02  0.11757673174E+03  0.47000000000E+01 0. -1.
        -11    1    6    6    0    0  0.42567752702E+01  0.11193495297E+02  0.99355738303E+02  0.10007485801E+03  0.00000000000E+00 0.  1.
         12    1    6    6    0    0  0.74466158091E+02 -0.71293402234E+01  0.65008697744E+02  0.99106846258E+02  0.00000000000E+00 0. -1.
         -5    1    3    3    0  503 -0.46434598761E+02  0.36309805780E+02 -0.27296389230E+02  0.65128771084E+02  0.47000000000E+01 0.  1.
         13    1    4    4    0    0 -0.32050058882E+02 -0.61270244109E+02 -0.48731146283E+02  0.84592988513E+02  0.00000000000E+00 0. -1.
        -14    1    4    4    0    0  0.41391250178E+02 -0.39916726065E+02 -0.15815482252E+02  0.59638159679E+02  0.00000000000E+00 0.  1.
</event>
<event>
12    1  0.1627564E-001  0.3049449E+03  0.7818608E-02  0.1082802E+00
         21   -1    0    0  503  502  0.00000000000E+00  0.00000000000E+00  0.60785012101E+03  0.60785012101E+03  0.00000000000E+00 0. -1.
         21   -1    0    0  501  503 -0.00000000000E+00 -0.00000000000E+00 -0.26308403177E+03  0.26308403177E+03  0.00000000000E+00 0.  1.
          6    2    1    2  501    0  0.23448095193E+03 -0.92073231519E+02 -0.10937377082E+03  0.32391095148E+03  0.17174657483E+03 0.  0.
         24    2    3    3    0    0  0.20311601178E+03 -0.14741338118E+02 -0.60781870854E+02  0.22722980570E+03  0.80408503796E+02 0.  0.
         -6    2    1    2    0  502 -0.23448095193E+03  0.92073231519E+02  0.45413986007E+03  0.54702320129E+03  0.17185043924E+03 0.  0.
        -24    2    5    5    0    0 -0.14281180868E+03  0.34642822872E+02  0.38119554815E+03  0.41646882065E+03  0.80875798437E+02 0.  0.
          5    1    3    3  501    0  0.31364940152E+02 -0.77331893401E+02 -0.48591899969E+02  0.96681145785E+02  0.47000000000E+01 0. -1.
        -11    1    4    4    0    0  0.70808477233E+02  0.22194910832E+02  0.60820170372E+01  0.74454317847E+02  0.00000000000E+00 0.  1.
         12    1    4    4    0    0  0.13230753455E+03 -0.36936248950E+02 -0.66863887891E+02  0.15277548785E+03  0.00000000000E+00 0. -1.
         -5    1    5    5    0  502 -0.91669143255E+02  0.57430408647E+02  0.72944311918E+02  0.13055438064E+03  0.47000000000E+01 0.  1.
         13    1    6    6    0    0 -0.12888308964E+03  0.52887075422E+02  0.28049974401E+03  0.31319003805E+03  0.00000000000E+00 0. -1.
        -14    1    6    6    0    0 -0.13928719033E+02 -0.18244252551E+02  0.10069580414E+03  0.10327878260E+03  0.00000000000E+00 0.  1.
</event>
<event>
12    1  0.1627564E-001  0.1759583E+03  0.7818608E-02  0.1172268E+00
         21   -1    0    0  503  502  0.00000000000E+00  0.00000000000E+00  0.71469672671E+03  0.71469672671E+03  0.00000000000E+00 0.  1.
         21   -1    0    0  501  503 -0.00000000000E+00 -0.00000000000E+00 -0.44529525121E+02  0.44529525121E+02  0.00000000000E+00 0.  1.
          6    2    1    2  501    0 -0.34089715838E+02  0.10315142192E+02  0.25923449915E+03  0.31220609105E+03  0.17029858148E+03 0.  0.
         24    2    3    3    0    0 -0.70689277069E+02  0.52247205397E+02  0.16573374911E+03  0.20329187680E+03  0.78314540250E+02 0.  0.
         -6    2    1    2    0  502  0.34089715838E+02 -0.10315142192E+02  0.41093270244E+03  0.44702016078E+03  0.17231606811E+03 0.  0.
        -24    2    5    5    0    0  0.28031584909E+02 -0.52668698709E+02  0.38136420732E+03  0.39480033118E+03  0.82878714406E+02 0.  0.
          5    1    3    3  501    0  0.36599561231E+02 -0.41932063205E+02  0.93500750039E+02  0.10891421425E+03  0.47000000000E+01 0. -1.
        -13    1    4    4    0    0 -0.18257041728E+02  0.58429722004E+02  0.63331394267E+02  0.88080744127E+02  0.00000000000E+00 0.  1.
         14    1    4    4    0    0 -0.52432235342E+02 -0.61825166065E+01  0.10240235485E+03  0.11521113268E+03  0.00000000000E+00 0. -1.
         -5    1    5    5    0  502  0.60581309288E+01  0.42353556517E+02  0.29568495120E+02  0.52219829602E+02  0.47000000000E+01 0.  1.
         11    1    6    6    0    0 -0.29030214033E+02 -0.26624789800E+02  0.14914377626E+03  0.15425789690E+03  0.00000000000E+00 0. -1.
        -12    1    6    6    0    0  0.57061798942E+02 -0.26043908909E+02  0.23222043106E+03  0.24054243428E+03  0.00000000000E+00 0.  1.
</event>
<event>
12    1  0.1627564E-001  0.2187616E+03  0.7818608E-02  0.1134825E+00
         21   -1    0    0  501  502  0.00000000000E+00  0.00000000000E+00  0.13963251777E+03  0.13963251777E+03  0.00000000000E+00 0. -1.
         21   -1    0    0  502  503 -0.00000000000E+00 -0.00000000000E+00 -0.34270289107E+03  0.34270289107E+03  0.00000000000E+00 0. -1.
         -6    2    1    2    0  503  0.71568297824E+02  0.11491873415E+03 -0.97565822304E+02  0.23953230387E+03  0.17183799989E+03 0.  0.
        -24    2    3    3    0    0  0.85006722777E+02  0.12056827205E+03 -0.30002895408E+02  0.17025497977E+03  0.79521904294E+02 0.  0.
          6    2    1    2  501    0 -0.71568297824E+02 -0.11491873415E+03 -0.10550455100E+03  0.24280310497E+03  0.17173759283E+03 0.  0.
         24    2    5    5    0    0 -0.48059615980E+02 -0.36593201996E+02 -0.11507527981E+03  0.16033349870E+03  0.93892074533E+02 0.  0.
          5    1    5    5  501    0 -0.23508681844E+02 -0.78325532152E+02  0.95707288141E+01  0.82469606274E+02  0.47000000000E+01 0. -1.
        -11    1    6    6    0    0  0.14381272241E+02  0.19192487792E+02 -0.10018347635E+02  0.25991149806E+02  0.00000000000E+00 0.  1.
         12    1    6    6    0    0 -0.62440888222E+02 -0.55785689787E+02 -0.10505693218E+03  0.13434234889E+03  0.00000000000E+00 0. -1.
         -5    1    3    3    0  503 -0.13438424952E+02 -0.56495379015E+01 -0.67562926895E+02  0.69277324099E+02  0.47000000000E+01 0.  1.
         11    1    4    4    0    0 -0.78844724752E+01  0.44268423237E+02  0.45046363629E+01  0.45190153251E+02  0.00000000000E+00 0. -1.
        -12    1    4    4    0    0  0.92891195252E+02  0.76299848812E+02 -0.34507531771E+02  0.12506482652E+03  0.00000000000E+00 0.  1.
</event>
<event>
12    1  0.1627564E-001  0.3148453E+03  0.7818608E-02  0.1078545E+00
         21   -1    0    0  503  502  0.00000000000E+00  0.00000000000E+00  0.96970134408E+03  0.96970134408E+03  0.00000000000E+00 0. -1.
         21   -1    0    0  501  503 -0.00000000000E+00 -0.00000000000E+00 -0.11455081702E+03  0.11455081702E+03  0.00000000000E+00 0.  1.
          6    2    1    2  501    0 -0.26023669752E+03 -0.27861387157E+02  0.23763680756E+03  0.39110662431E+03  0.16731330981E+03 0.  0.
         24    2    3    3    0    0 -0.22894418271E+03  0.22509209178E+02  0.15214904479E+03  0.28695929577E+03  0.79209862404E+02 0.  0.
         -6    2    1    2    0  502  0.26023669752E+03  0.27861387157E+02  0.61751371950E+03  0.69314553680E+03  0.17500898773E+03 0.  0.
        -24    2    5    5    0    0  0.23542931967E+03  0.55174549295E+02  0.60195014262E+03  0.65282519768E+03  0.73250044839E+02 0.  0.
          5    1    3    3  501    0 -0.31292514811E+02 -0.50370596335E+02  0.85487762772E+02  0.10414732854E+03  0.47000000000E+01 0. -1.
        -11    1    4    4    0    0 -0.14741239578E+03  0.15322410238E+02  0.50763598248E+02  0.15665929143E+03  0.00000000000E+00 0.  1.
         12    1    4    4    0    0 -0.81531786931E+02  0.71867989399E+01  0.10138544654E+03  0.13030000434E+03  0.00000000000E+00 0. -1.
         -5    1    5    5    0  502  0.24807377851E+02 -0.27313162138E+02  0.15563576875E+02  0.40320339123E+02  0.47000000000E+01 0.  1.
         11    1    6    6    0    0  0.10699910020E+03  0.62623788680E+02  0.30087052845E+03  0.32541300104E+03  0.00000000000E+00 0. -1.
        -12    1    6    6    0    0  0.12843021947E+03 -0.74492393847E+01  0.30107961417E+03  0.32741219664E+03  0.00000000000E+00 0.  1.
</event>
<event>
12    1  0.1627564E-001  0.1874854E+03  0.7818608E-02  0.1160917E+00
         21   -1    0    0  501  502  0.00000000000E+00  0.00000000000E+00  0.57465488309E+03  0.57465488309E+03  0.00000000000E+00 0.  1.
         21   -1    0    0  502  503 -0.00000000000E+00 -0.00000000000E+00 -0.64064751519E+02  0.64064751519E+02  0.00000000000E+00 0.  1.
         -6    2    1    2    0  503 -0.41592633412E+02  0.60287217925E+02  0.32546075698E+03  0.37523593915E+03  0.17179292738E+03 0.  0.
        -24    2    3    3    0    0 -0.88536000672E+02  0.60320948335E+02  0.19073744925E+03  0.23249091992E+03  0.78702052575E+02 0.  0.
          6    2    1    2  501    0  0.41592633412E+02 -0.60287217925E+02  0.18512937459E+03  0.26348369546E+03  0.17258701178E+03 0.  0.
         24    2    5    5    0    0  0.74953140944E+02 -0.55528965495E+02  0.19303813716E+03  0.22855229190E+03  0.79189572467E+02 0.  0.
          5    1    5    5  501    0 -0.33360507532E+02 -0.47582524294E+01 -0.79087625728E+01  0.34931403556E+02  0.47000000000E+01 0. -1.
        -11    1    6    6    0    0  0.51137574954E+02 -0.49256983080E+02  0.59133340541E+02  0.92401590452E+02  0.00000000000E+00 0.  1.
         12    1    6    6    0    0  0.23815565989E+02 -0.62719824148E+01  0.13390479662E+03  0.13615070145E+03  0.00000000000E+00 0. -1.
         -5    1    3    3    0  503  0.46943367260E+02 -0.33730410068E-01  0.13472330774E+03  0.14274501923E+03  0.47000000000E+01 0.  1.
         11    1    4    4    0    0  0.35230092698E+01 -0.91824031014E+00 -0.58807536748E+01  0.69165036952E+01  0.00000000000E+00 0. -1.
        -12    1    4    4    0    0 -0.92059009942E+02  0.61239188645E+02  0.19661820292E+03  0.22557441623E+03  0.00000000000E+00 0.  1.
</event>
<event>
12    1  0.1627564E-001  0.1893656E+03  0.7818608E-02  0.1160258E+00
         21   -1    0    0  501  502  0.00000000000E+00  0.00000000000E+00  0.24913288205E+03  0.24913288205E+03  0.00000000000E+00 0. -1.
         21   -1    0    0  502  503 -0.00000000000E+00 -0.00000000000E+00 -0.19223298187E+03  0.19223298187E+03  0.00000000000E+00 0. -1.
         -6    2    1    2    0  503 -0.66721442946E+02  0.17563538665E+02 -0.86366665860E+02  0.20813101862E+03  0.17634934392E+03 0.  0.
        -24    2    3    3    0    0 -0.54949424651E+02 -0.56054995928E+02 -0.32212476920E+02  0.11586490767E+03  0.78901402536E+02 0.  0.
          6    2    1    2  501    0  0.66721442946E+02 -0.17563538665E+02  0.14326656604E+03  0.23323484530E+03  0.17062518946E+03 0.  0.
         24    2    5    5    0    0  0.15182173567E+02  0.32653008691E+02  0.17983019905E+02  0.88680167586E+02  0.79019401082E+02 0.  0.
          5    1    5    5  501    0  0.51539269379E+02 -0.50216547356E+02  0.12528354613E+03  0.14455467771E+03  0.47000000000E+01 0. -1.
        -13    1    6    6    0    0  0.14902616620E+02  0.37678096867E+02  0.45373246799E+02  0.60831393957E+02  0.00000000000E+00 0.  1.
         14    1    6    6    0    0  0.27955694706E+00 -0.50250881765E+01 -0.27390226895E+02  0.27848773629E+02  0.00000000000E+00 0. -1.
         -5    1    3    3    0  503 -0.11772018295E+02  0.73618534593E+02 -0.54154188940E+02  0.92266110952E+02  0.47000000000E+01 0.  1.
         13    1    4    4    0    0 -0.10576208731E+01  0.86184150817E+01 -0.30448349480E+02  0.31662242916E+02  0.00000000000E+00 0. -1.
        -14    1    4    4    0    0 -0.53891803778E+02 -0.64673411010E+02 -0.17641274401E+01  0.84202664754E+02  0.00000000000E+00 0.  1.
</event>
<event>
12    1  0.1627564E-001  0.1899571E+03  0.7818608E-02  0.1158615E+00
         21   -1    0    0  501  502  0.00000000000E+00  0.00000000000E+00  0.12023102126E+03  0.12023102126E+03  0.00000000000E+00 0. -1.
         21   -1    0    0  502  503 -0.00000000000E+00 -0.00000000000E+00 -0.33979637465E+03  0.33979637465E+03  0.00000000000E+00 0. -1.
         -6    2    1    2    0  503 -0.58562605487E+02  0.53787181357E+02 -0.18929962896E+03  0.26817539020E+03  0.17251391464E+03 0.  0.
        -24    2    3    3    0    0 -0.44151345519E+02  0.92546232364E+02 -0.17834990922E+03  0.22514127802E+03  0.91464520514E+02 0.  0.
          6    2    1    2  501    0  0.58562605487E+02 -0.53787181357E+02 -0.30265724430E+02  0.19185200572E+03  0.17195504756E+03 0.  0.
         24    2    5    5    0    0  0.35891436862E+02 -0.69110306792E+02 -0.79235039027E+02  0.13555934339E+03  0.77676987749E+02 0.  0.
          5    1    5    5  501    0  0.22671168624E+02  0.15323125434E+02  0.48969314597E+02  0.56292662328E+02  0.47000000000E+01 0. -1.
        -13    1    6    6    0    0 -0.14915942073E+02 -0.12639803908E+02 -0.50828724957E+02  0.54459243949E+02  0.00000000000E+00 0.  1.
         14    1    6    6    0    0  0.50807378936E+02 -0.56470502884E+02 -0.28406314070E+02  0.81100099441E+02  0.00000000000E+00 0. -1.
         -5    1    3    3    0  503 -0.14411259968E+02 -0.38759051007E+02 -0.10949719744E+02  0.43034112182E+02  0.47000000000E+01 0.  1.
         13    1    4    4    0    0 -0.52730266240E+02  0.17560760499E+02 -0.43384094179E+02  0.70505609102E+02  0.00000000000E+00 0. -1.
        -14    1    4    4    0    0  0.85789207213E+01  0.74985471865E+02 -0.13496581504E+03  0.15463566892E+03  0.00000000000E+00 0.  1.
</event>
<event>
12    1  0.1627564E-001  0.1810126E+03  0.7818608E-02  0.1166885E+00
         21   -1    0    0  503  502  0.00000000000E+00  0.00000000000E+00  0.11227905819E+04  0.11227905819E+04  0.00000000000E+00 0.  1.
         21   -1    0    0  501  503 -0.00000000000E+00 -0.00000000000E+00 -0.44345332218E+02  0.44345332218E+02  0.00000000000E+00 0.  1.
          6    2    1    2  501    0  0.52829504675E+02 -0.14657335972E+02  0.19730059668E+03  0.26759078193E+03  0.17225419316E+03 0.  0.
         24    2    3    3    0    0  0.33551150875E+02 -0.33857952040E+02  0.28950405571E+02  0.96991264258E+02  0.79354512905E+02 0.  0.
         -6    2    1    2    0  502 -0.52829504675E+02  0.14657335972E+02  0.88114465305E+03  0.89954513224E+03  0.17251014832E+03 0.  0.
        -24    2    5    5    0    0 -0.93301007484E+01  0.72732994148E+02  0.47374717374E+03  0.48570968624E+03  0.78104900390E+02 0.  0.
          5    1    3    3  501    0  0.19278353800E+02  0.19200616068E+02  0.16835019111E+03  0.17059951767E+03  0.47000000000E+01 0. -1.
        -11    1    4    4    0    0 -0.22993129744E+02 -0.12481209929E+02 -0.64402304756E+01  0.26943295739E+02  0.00000000000E+00 0.  1.
         12    1    4    4    0    0  0.56544280618E+02 -0.21376742111E+02  0.35390636047E+02  0.70047968519E+02  0.00000000000E+00 0. -1.
         -5    1    5    5    0  502 -0.43499403926E+02 -0.58075658176E+02  0.40739747931E+03  0.41383544600E+03  0.47000000000E+01 0.  1.
         13    1    6    6    0    0 -0.22991278265E+01  0.26408557459E+02  0.32309595664E+02  0.41792437926E+02  0.00000000000E+00 0. -1.
        -14    1    6    6    0    0 -0.70309729219E+01  0.46324436689E+02  0.44143757807E+03  0.44391724831E+03  0.00000000000E+00 0.  1.
</event>
<event>
12    1  0.1627564E-001  0.1996505E+03  0.7818608E-02  0.1150121E+00
         21   -1    0    0  503  502  0.00000000000E+00  0.00000000000E+00  0.11641023638E+03  0.11641023638E+03  0.00000000000E+00 0.  1.
         21   -1    0    0  501  503 -0.00000000000E+00 -0.00000000000E+00 -0.46518577393E+03  0.46518577393E+03  0.00000000000E+00 0.  1.
          6    2    1    2  501    0 -0.68331947851E+02 -0.73705905384E+02 -0.32433898812E+03  0.38086229148E+03  0.17250649341E+03 0.  0.
         24    2    3    3    0    0 -0.14064836923E+02  0.26499236689E+02 -0.14756593194E+03  0.17048930553E+03  0.79942916177E+02 0.  0.
         -6    2    1    2    0  502  0.68331947851E+02  0.73705905384E+02 -0.24436549437E+02  0.20073371883E+03  0.17203216369E+03 0.  0.
        -24    2    5    5    0    0 -0.57633443645E+01 -0.14431698801E+02 -0.32910344163E+01  0.83568995450E+02  0.82045450967E+02 0.  0.
          5    1    3    3  501    0 -0.54267110928E+02 -0.10020514207E+03 -0.17677305618E+03  0.21037298595E+03  0.47000000000E+01 0. -1.
        -11    1    4    4    0    0 -0.14355756842E+02 -0.25818503915E+02 -0.78282386374E+02  0.83670872562E+02  0.00000000000E+00 0.  1.
         12    1    4    4    0    0  0.29091991932E+00  0.52317740604E+02 -0.69283545569E+02  0.86818432967E+02  0.00000000000E+00 0. -1.
         -5    1    5    5    0  502  0.74095292216E+02  0.88137604184E+02 -0.21145515021E+02  0.11716472338E+03  0.47000000000E+01 0.  1.
         11    1    6    6    0    0 -0.77812735013E+01 -0.27013897718E+02 -0.37612978294E+02  0.46957800453E+02  0.00000000000E+00 0. -1.
        -12    1    6    6    0    0  0.20179291369E+01  0.12582198917E+02  0.34321943877E+02  0.36611194997E+02  0.00000000000E+00 0.  1.
</event>
<event>
12    1  0.1627564E-001  0.2804370E+03  0.7818608E-02  0.1096312E+00
         21   -1    0    0  501  502  0.00000000000E+00  0.00000000000E+00  0.30716470691E+03  0.30716470691E+03  0.00000000000E+00 0. -1.
         21   -1    0    0  502  503 -0.00000000000E+00 -0.00000000000E+00 -0.25200945572E+03  0.25200945572E+03  0.00000000000E+00 0. -1.
         -6    2    1    2    0  503  0.15107661637E+03 -0.15363418703E+03  0.46988702277E+01  0.27423429268E+03  0.16957228685E+03 0.  0.
        -24    2    3    3    0    0  0.85762634451E+02 -0.11649427743E+03 -0.58076347425E+02  0.17621334049E+03  0.82171364189E+02 0.  0.
          6    2    1    2  501    0 -0.15107661637E+03  0.15363418703E+03  0.50456380966E+02  0.28493986995E+03  0.17949171476E+03 0.  0.
         24    2    5    5    0    0 -0.36179652957E+02 -0.22949790571E+01  0.11675648437E+02  0.87351276520E+02  0.78611007667E+02 0.  0.
          5    1    5    5  501    0 -0.11489696341E+03  0.15592916609E+03  0.38780732529E+02  0.19758859343E+03  0.47000000000E+01 0. -1.
        -13    1    6    6    0    0  0.12331702707E+02  0.19092081089E+02  0.23859928956E+02  0.32952612366E+02  0.00000000000E+00 0.  1.
         14    1    6    6    0    0 -0.48511355664E+02 -0.21387060146E+02 -0.12184280519E+02  0.54398664154E+02  0.00000000000E+00 0. -1.
         -5    1    3    3    0  503  0.65313981914E+02 -0.37139909599E+02  0.62775217653E+02  0.98020952198E+02  0.47000000000E+01 0.  1.
         13    1    4    4    0    0 -0.62772436491E+01 -0.55595467342E+02 -0.17381318540E+02  0.58586431970E+02  0.00000000000E+00 0. -1.
        -14    1    4    4    0    0  0.92039878100E+02 -0.60898810090E+02 -0.40695028886E+02  0.11762690852E+03  0.00000000000E+00 0.  1.
</event>
<event>
12    1  0.1627564E-001  0.1962667E+03  0.7818608E-02  0.1153003E+00
         21   -1    0    0  503  502  0.00000000000E+00  0.00000000000E+00  0.59729933565E+03  0.59729933565E+03  0.00000000000E+00 0. -1.
         21   -1    0    0  501  503 -0.00000000000E+00 -0.00000000000E+00 -0.64517858059E+02  0.64517858059E+02  0.00000000000E+00 0. -1.
          6    2    1    2  501    0  0.77489094534E+02  0.54649886999E+02  0.25112459996E+03  0.31872272886E+03  0.17184133166E+03 0.  0.
         24    2    3    3    0    0  0.10601232292E+03  0.41290512984E+01  0.16065420627E+03  0.21114526128E+03  0.86699975155E+02 0.  0.
         -6    2    1    2    0  502 -0.77489094534E+02 -0.54649886999E+02  0.28165687763E+03  0.34309446484E+03  0.17144108367E+03 0.  0.
        -24    2    5    5    0    0 -0.19809578168E+02 -0.83274575024E+02  0.11557534873E+03  0.16490506108E+03  0.80678024905E+02 0.  0.
          5    1    3    3  501    0 -0.28523228388E+02  0.50520835701E+02  0.90470393684E+02  0.10757746758E+03  0.47000000000E+01 0. -1.
        -11    1    4    4    0    0  0.62470169012E+02 -0.18504381707E+02  0.30288881224E+02  0.71849498847E+02  0.00000000000E+00 0.  1.
         12    1    4    4    0    0  0.43542153911E+02  0.22633433006E+02  0.13036532505E+03  0.13929576243E+03  0.00000000000E+00 0. -1.
         -5    1    5    5    0  502 -0.57679516366E+02  0.28624688024E+02  0.16608152890E+03  0.17818940376E+03  0.47000000000E+01 0.  1.
         11    1    6    6    0    0  0.31538202507E+02 -0.35436206074E+02  0.45598239274E+02  0.65799561877E+02  0.00000000000E+00 0. -1.
        -12    1    6    6    0    0 -0.51347780676E+02 -0.47838368950E+02  0.69977109459E+02  0.99105499203E+02  0.00000000000E+00 0.  1.
</event>
<event>
12    1  0.1627564E-001  0.1813012E+03  0.7818608E-02  0.1166827E+00
         21   -1    0    0  501  502  0.00000000000E+00  0.00000000000E+00  0.11642884736E+04  0.11642884736E+04  0.00000000000E+00 0. -1.
         21   -1    0    0  502  503 -0.00000000000E+00 -0.00000000000E+00 -0.28850890737E+02  0.28850890737E+02  0.00000000000E+00 0. -1.
         -6    2    1    2    0  503 -0.47619415556E+02  0.32557400328E+02  0.46671802248E+03  0.50027864246E+03  0.17066169618E+03 0.  0.
        -24    2    3    3    0    0 -0.13607957963E+02  0.17825136492E+02  0.10258223664E+03  0.13423113274E+03  0.83617998730E+02 0.  0.
          6    2    1    2  501    0  0.47619415556E+02 -0.32557400328E+02  0.66871956034E+03  0.69286072183E+03  0.17187942408E+03 0.  0.
         24    2    5    5    0    0 -0.22420634969E+02  0.28636100860E+02  0.29404316860E+03  0.30678463892E+03  0.79578379820E+02 0.  0.
          5    1    5    5  501    0  0.70040050525E+02 -0.61193501188E+02  0.37467639174E+03  0.38607608291E+03  0.47000000000E+01 0. -1.
        -11    1    6    6    0    0 -0.52520633935E+02  0.17617496941E+02  0.18147276097E+03  0.18973970634E+03  0.00000000000E+00 0.  1.
         12    1    6    6    0    0  0.30099998966E+02  0.11018603920E+02  0.11257040763E+03  0.11704493258E+03  0.00000000000E+00 0. -1.
         -5    1    3    3    0  503 -0.34011457593E+02  0.14732263836E+02  0.36413578584E+03  0.36604750972E+03  0.47000000000E+01 0.  1.
         11    1    4    4    0    0 -0.13358905555E+02  0.49990929350E+02  0.78618868007E+02  0.94119497351E+02  0.00000000000E+00 0. -1.
        -12    1    4    4    0    0 -0.24905240860E+00 -0.32165792859E+02  0.23963368634E+02  0.40111635389E+02  0.00000000000E+00 0.  1.
</event>
<event>
12    1  0.1627564E-001  0.1759735E+03  0.7818608E-02  0.1171764E+00
         21   -1    0    0  503  502  0.00000000000E+00  0.00000000000E+00  0.35438960622E+03  0.35438960622E+03  0.00000000000E+00 0.  1.
         21   -1    0    0  501  503 -0.00000000000E+00 -0.00000000000E+00 -0.10460846535E+03  0.10460846535E+03  0.00000000000E+00 0.  1.
          6    2    1    2  501    0 -0.37050469881E+02  0.51418176103E+01  0.21806615353E+03  0.28021336517E+03  0.17195204882E+03 0.  0.
         24    2    3    3    0    0  0.51409252807E+01  0.32320288665E+02  0.39771952536E+02  0.94930621168E+02  0.79743240809E+02 0.  0.
         -6    2    1    2    0  502  0.37050469881E+02 -0.51418176103E+01  0.31714987338E+02  0.17878470641E+03  0.17192717999E+03 0.  0.
        -24    2    5    5    0    0  0.18720027997E+02  0.35056913129E+02  0.73907014911E+02  0.11751317760E+03  0.82265870503E+02 0.  0.
          5    1    3    3  501    0 -0.42191395161E+02 -0.27178471055E+02  0.17829420100E+03  0.18528274400E+03  0.47000000000E+01 0. -1.
        -11    1    4    4    0    0 -0.19983816419E+02  0.53434756173E+01  0.52102334274E+02  0.56058530904E+02  0.00000000000E+00 0.  1.
         12    1    4    4    0    0  0.25124741700E+02  0.26976813047E+02 -0.12330381738E+02  0.38872090264E+02  0.00000000000E+00 0. -1.
         -5    1    5    5    0  502  0.18330441883E+02 -0.40198730740E+02 -0.42192027573E+02  0.61271528816E+02  0.47000000000E+01 0.  1.
         13    1    6    6    0    0  0.42364340010E+02  0.31970866237E+02  0.16867360422E+02  0.55690047944E+02  0.00000000000E+00 0. -1.
        -14    1    6    6    0    0 -0.23644312013E+02  0.30860468929E+01  0.57039654488E+02  0.61823129653E+02  0.00000000000E+00 0.  1.
</event>
<event>
12    1  0.1627564E-001  0.3158086E+03  0.7818608E-02  0.1077638E+00
         21   -1    0    0  503  502  0.00000000000E+00  0.00000000000E+00  0.10590305459E+03  0.10590305459E+03  0.00000000000E+00 0.  1.
         21   -1    0    0  501  503 -0.00000000000E+00 -0.00000000000E+00 -0.14307487140E+04  0.14307487140E+04  0.00000000000E+00 0. -1.
          6    2    1    2  501    0 -0.25960186888E+03  0.52003897552E+02 -0.11118501016E+04  0.11557289907E+04  0.17146811887E+03 0.  0.
         24    2    3    3    0    0 -0.14558948771E+03  0.96758059723E+02 -0.69464863734E+03  0.72089464306E+03  0.81203054017E+02 0.  0.
         -6    2    1    2    0  502  0.25960186888E+03 -0.52003897552E+02 -0.21299555785E+03  0.38092277795E+03  0.17215550938E+03 0.  0.
        -24    2    5    5    0    0  0.15941284376E+03  0.31693958022E+02 -0.95065807482E+02  0.20493218785E+03  0.80887156779E+02 0.  0.
          5    1    3    3  501    0 -0.11401238117E+03 -0.44754162171E+02 -0.41720146425E+03  0.43483434761E+03  0.47000000000E+01 0. -1.
        -11    1    4    4    0    0 -0.12580874704E+02  0.36359005706E+02 -0.75394398381E+02  0.84643788971E+02  0.00000000000E+00 0.  1.
         12    1    4    4    0    0 -0.13300861300E+03  0.60399054017E+02 -0.61925423896E+03  0.63625085409E+03  0.00000000000E+00 0. -1.
         -5    1    5    5    0  502  0.10018902511E+03 -0.83697855573E+02 -0.11792975037E+03  0.17599059010E+03  0.47000000000E+01 0.  1.
         13    1    6    6    0    0  0.23952650511E+02 -0.24941858852E+02 -0.21376366496E+02  0.40654333522E+02  0.00000000000E+00 0. -1.
        -14    1    6    6    0    0  0.13546019325E+03  0.56635816874E+02 -0.73689440986E+02  0.16427785433E+03  0.00000000000E+00 0.  1.
</event>
<event>
12    1  0.1627564E-001  0.2227486E+03  0.7818608E-02  0.1132366E+00
         21   -1    0    0  501  502  0.00000000000E+00  0.00000000000E+00  0.98334025596E+03  0.98334025596E+03  0.00000000000E+00 0.  1.
         21   -1    0    0  502  503 -0.00000000000E+00 -0.00000000000E+00 -0.52819406205E+02  0.52819406205E+02  0.00000000000E+00 0. -1.
         -6    2    1    2    0  503 -0.91376689412E+02  0.10279056120E+03  0.59135302260E+03  0.63191403285E+03  0.17521800342E+03 0.  0.
        -24    2    3    3    0    0 -0.15546044163E+01  0.10250300016E+03  0.39961382719E+03  0.42012617035E+03  0.79407218132E+02 0.  0.
          6    2    1    2  501    0  0.91376689412E+02 -0.10279056120E+03  0.33916782715E+03  0.40424562932E+03  0.17165114334E+03 0.  0.
         24    2    5    5    0    0  0.74960370214E+02 -0.13832240880E+03  0.30403051654E+03  0.35143721781E+03  0.79507340512E+02 0.  0.
          5    1    5    5  501    0  0.16416319198E+02  0.35531847594E+02  0.35137310617E+02  0.52808411516E+02  0.47000000000E+01 0. -1.
        -11    1    6    6    0    0  0.81203216767E+02 -0.93521804008E+02  0.26150367261E+03  0.28935179458E+03  0.00000000000E+00 0.  1.
         12    1    6    6    0    0 -0.62428465530E+01 -0.44800604791E+02  0.42526843923E+02  0.62085423222E+02  0.00000000000E+00 0. -1.
         -5    1    3    3    0  503 -0.89822084995E+02  0.28756104503E+00  0.19173919541E+03  0.21178786250E+03  0.47000000000E+01 0.  1.
         11    1    4    4    0    0 -0.17731279010E+02  0.56333286697E+02  0.96856027652E+02  0.11344129556E+03  0.00000000000E+00 0. -1.
        -12    1    4    4    0    0  0.16176674594E+02  0.46169713462E+02  0.30275779954E+03  0.30668487479E+03  0.00000000000E+00 0.  1.
</event>
<event>
12    1  0.1627564E-001  0.1908626E+03  0.7818608E-02  0.1157971E+00
         21   -1    0    0  503  502  0.00000000000E+00  0.00000000000E+00  0.39697315679E+03  0.39697315679E+03  0.00000000000E+00 0. -1.
         21   -1    0    0  501  503 -0.00000000000E+00 -0.00000000000E+00 -0.92924718077E+02  0.92924718077E+02  0.00000000000E+00 0.  1.
          6    2    1    2  501    0 -0.83417036157E+02 -0.12841315070E+02  0.18631854330E+03  0.26672671755E+03  0.17118773608E+03 0.  0.
         24    2    3    3    0    0 -0.53430031266E+02  0.17686127020E+02  0.26857257398E+02  0.10155669338E+03  0.80155363919E+02 0.  0.
         -6    2    1    2    0  502  0.83417036157E+02  0.12841315070E+02  0.11772989541E+03  0.22317115731E+03  0.16976965539E+03 0.  0.
        -24    2    5    5    0    0  0.49580556724E+00  0.27417155844E+02  0.10659463498E+02  0.86882665479E+02  0.81749783737E+02 0.  0.
          5    1    3    3  501    0 -0.29987004891E+02 -0.30527442090E+02  0.15946128590E+03  0.16517002417E+03  0.47000000000E+01 0. -1.
        -11    1    4    4    0    0 -0.64388355204E+02  0.32716212047E+02  0.36148353283E+02  0.80764560679E+02  0.00000000000E+00 0.  1.
         12    1    4    4    0    0  0.10958323938E+02 -0.15030085028E+02 -0.92910958852E+01  0.20792132700E+02  0.00000000000E+00 0. -1.
         -5    1    5    5    0  502  0.82921230590E+02 -0.14575840775E+02  0.10707043191E+03  0.13628849183E+03  0.47000000000E+01 0.  1.
         11    1    6    6    0    0  0.97029802624E+01  0.50190806948E+02  0.26572908607E+02  0.57614098968E+02  0.00000000000E+00 0. -1.
        -12    1    6    6    0    0 -0.92071746951E+01 -0.22773651103E+02 -0.15913445109E+02  0.29268566512E+02  0.00000000000E+00 0.  1.
</event>
<event>
12    1  0.1627564E-001  0.1866890E+03  0.7818608E-02  0.1161965E+00
         21   -1    0    0  501  502  0.00000000000E+00  0.00000000000E+00  0.42870626798E+03  0.42870626798E+03  0.00000000000E+00 0.  1.
         21   -1    0    0  502  503 -0.00000000000E+00 -0.00000000000E+00 -0.16428695043E+03  0.16428695043E+03  0.00000000000E+00 0.  1.
         -6    2    1    2    0  503 -0.95749521097E+01 -0.61335068278E+02  0.34444561325E+03  0.39178508577E+03  0.17606562025E+03 0.  0.
        -24    2    3    3    0    0 -0.16572747058E+02 -0.41883857021E+02  0.35631542427E+03  0.36748897153E+03  0.77836682887E+02 0.  0.
          6    2    1    2  501    0  0.95749521097E+01  0.61335068278E+02 -0.80026295697E+02  0.20120813264E+03  0.17385866194E+03 0.  0.
         24    2    5    5    0    0 -0.46229037166E+02  0.49658895900E+02 -0.95455356877E+02  0.14195811872E+03  0.80232490276E+02 0.  0.
          5    1    5    5  501    0  0.55803989276E+02  0.11676172378E+02  0.15429061180E+02  0.59250013919E+02  0.47000000000E+01 0. -1.
        -13    1    6    6    0    0 -0.23467411948E+02  0.67888801475E+02 -0.48455084704E+02  0.86645854043E+02  0.00000000000E+00 0.  1.
         14    1    6    6    0    0 -0.22761625219E+02 -0.18229905574E+02 -0.47000272173E+02  0.55312264681E+02  0.00000000000E+00 0. -1.
         -5    1    3    3    0  503  0.69977949479E+01 -0.19451211257E+02 -0.11869811016E+02  0.24296114238E+02  0.47000000000E+01 0.  1.
         11    1    4    4    0    0  0.17640337491E+02 -0.53185977937E+01  0.18961335921E+02  0.26438631757E+02  0.00000000000E+00 0. -1.
        -12    1    4    4    0    0 -0.34213084548E+02 -0.36565259227E+02  0.33735408835E+03  0.34105033977E+03  0.00000000000E+00 0.  1.
</event>
<event>
12    1  0.1627564E-001  0.2225406E+03  0.7818608E-02  0.1132069E+00
         21   -1    0    0  501  502  0.00000000000E+00  0.00000000000E+00  0.36154055136E+03  0.36154055136E+03  0.00000000000E+00 0. -1.
         21   -1    0    0  502  503 -0.00000000000E+00 -0.00000000000E+00 -0.17119290607E+03  0.17119290607E+03  0.00000000000E+00 0.  1.
         -6    2    1    2    0  503 -0.10846575545E+03 -0.89572428989E+02 -0.24348575189E+02  0.22351058489E+03  0.17197699934E+03 0.  0.
        -24    2    3    3    0    0 -0.12082128358E+02 -0.93263396463E+02 -0.19468787766E+02  0.12681865587E+03  0.82824506235E+02 0.  0.
          6    2    1    2  501    0  0.10846575545E+03  0.89572428989E+02  0.21469622048E+03  0.30922287254E+03  0.17244209948E+03 0.  0.
         24    2    5    5    0    0  0.34475967879E+02  0.10638555326E+03  0.17738900942E+03  0.22454059689E+03  0.80281633536E+02 0.  0.
          5    1    5    5  501    0  0.73989787572E+02 -0.16813124267E+02  0.37307211055E+02  0.84682275650E+02  0.47000000000E+01 0. -1.
        -11    1    6    6    0    0  0.37285620249E+02  0.23825799493E+02  0.24039518382E+02  0.50356574971E+02  0.00000000000E+00 0.  1.
         12    1    6    6    0    0 -0.28096523694E+01  0.82559753763E+02  0.15334949104E+03  0.17418402191E+03  0.00000000000E+00 0. -1.
         -5    1    3    3    0  503 -0.96383627094E+02  0.36909674739E+01 -0.48797874229E+01  0.96691929022E+02  0.47000000000E+01 0.  1.
         11    1    4    4    0    0  0.20937420393E+02 -0.37830076494E+01  0.14303756879E+02  0.25637554104E+02  0.00000000000E+00 0. -1.
        -12    1    4    4    0    0 -0.33019548750E+02 -0.89480388813E+02 -0.33772544646E+02  0.10118110176E+03  0.00000000000E+00 0.  1.
</event>
<event>
12    1  0.1627564E-001  0.1964495E+03  0.7818608E-02  0.1154240E+00
         21   -1    0    0  503  502  0.00000000000E+00  0.00000000000E+00  0.30524904228E+02  0.30524904228E+02  0.00000000000E+00 0.  1.
         21   -1    0    0  501  503 -0.00000000000E+00 -0.00000000000E+00 -0.12576623252E+04  0.12576623252E+04  0.00000000000E+00 0.  1.
          6    2    1    2  501    0 -0.94262008891E+02 -0.18882373805E+02 -0.49426484258E+03  0.52944180996E+03  0.16361242363E+03 0.  0.
         24    2    3    3    0    0 -0.80948689381E+02  0.18059858657E+02 -0.23061774616E+03  0.26284500866E+03  0.94995288963E+02 0.  0.
         -6    2    1    2    0  502  0.94262008891E+02  0.18882373805E+02 -0.73287257839E+03  0.75874541947E+03  0.17131994933E+03 0.  0.
        -24    2    5    5    0    0 -0.11320968202E+02  0.82216465993E+01 -0.21284864255E+03  0.22798332587E+03  0.80474172514E+02 0.  0.
          5    1    3    3  501    0 -0.13313319510E+02 -0.36942232462E+02 -0.26364709642E+03  0.26659680131E+03  0.47000000000E+01 0. -1.
        -11    1    4    4    0    0 -0.76472593633E+02  0.31152198781E+02 -0.23438478259E+03  0.24850501680E+03  0.00000000000E+00 0.  1.
         12    1    4    4    0    0 -0.44760957488E+01 -0.13092340124E+02  0.37670364273E+01  0.14339991859E+02  0.00000000000E+00 0. -1.
         -5    1    5    5    0  502  0.10558297709E+03  0.10660727206E+02 -0.52002393584E+03  0.53076209360E+03  0.47000000000E+01 0.  1.
         13    1    6    6    0    0 -0.30549494758E+02  0.64652338680E+01 -0.20462930372E+03  0.20699812274E+03  0.00000000000E+00 0. -1.
        -14    1    6    6    0    0  0.19228526556E+02  0.17564127314E+01 -0.82193388359E+01  0.20985203123E+02  0.00000000000E+00 0.  1.
</event>
<event>
12    1  0.1627564E-001  0.2675743E+03  0.7818608E-02  0.1102798E+00
         21   -1    0    0  503  502  0.00000000000E+00  0.00000000000E+00  0.55412864957E+03  0.55412864957E+03  0.00000000000E+00 0.  1.
         21   -1    0    0  501  503 -0.00000000000E+00 -0.00000000000E+00 -0.24436654987E+03  0.24436654987E+03  0.00000000000E+00 0.  1.
          6    2    1    2  501    0 -0.53534113984E+02  0.19713324553E+03 -0.11980961421E+03  0.29240444010E+03  0.17151849778E+03 0.  0.
         24    2    3    3    0    0 -0.81443013424E+02  0.16585926366E+03 -0.14062208182E+03  0.24537022470E+03  0.79307739214E+02 0.  0.
         -6    2    1    2    0  502  0.53534113984E+02 -0.19713324553E+03  0.42957171390E+03  0.50609075934E+03  0.17282529171E+03 0.  0.
        -24    2    5    5    0    0 -0.10082622481E+02 -0.14513759171E+03  0.36759995100E+03  0.40307024405E+03  0.78545005303E+02 0.  0.
          5    1    3    3  501    0  0.27908899441E+02  0.31273981873E+02  0.20812467610E+02  0.47034215399E+02  0.47000000000E+01 0. -1.
        -11    1    4    4    0    0 -0.75961321079E+02  0.69256556464E+02 -0.87479975978E+02  0.13497903211E+03  0.00000000000E+00 0.  1.
         12    1    4    4    0    0 -0.54816923455E+01  0.96602707193E+02 -0.53142105837E+02  0.11039119259E+03  0.00000000000E+00 0. -1.
         -5    1    5    5    0  502  0.63616736465E+02 -0.51995653818E+02  0.61971762899E+02  0.10302051529E+03  0.47000000000E+01 0.  1.
         11    1    6    6    0    0 -0.26730042845E+02 -0.19219126089E+02  0.12462028632E+03  0.12889563903E+03  0.00000000000E+00 0. -1.
        -12    1    6    6    0    0  0.16647420363E+02 -0.12591846562E+03  0.24297966467E+03  0.27417460501E+03  0.00000000000E+00 0.  1.
</event>
<event>
12    1  0.1627564E-001  0.2669367E+03  0.7818608E-02  0.1103191E+00
         21   -1    0    0  501  502  0.00000000000E+00  0.00000000000E+00  0.10390159177E+04  0.10390159177E+04  0.00000000000E+00 0.  1.
         21   -1    0    0  502  503 -0.00000000000E+00 -0.00000000000E+00 -0.40169262594E+03  0.40169262594E+03  0.00000000000E+00 0.  1.
         -6    2    1    2    0  503 -0.17618241292E+03  0.10135685417E+03 -0.33767907413E+03  0.42982536062E+03  0.17149119223E+03 0.  0.
        -24    2    3    3    0    0 -0.55223775955E+02  0.14807276325E+02 -0.60709695620E+02  0.11541170329E+03  0.79782662593E+02 0.  0.
          6    2    1    2  501    0  0.17618241292E+03 -0.10135685417E+03  0.97500236592E+03  0.10108831831E+04  0.17303682185E+03 0.  0.
         24    2    5    5    0    0  0.64668313734E+02 -0.29447175032E+02  0.66583924278E+03  0.67441576564E+03  0.80284499097E+02 0.  0.
          5    1    5    5  501    0  0.11151409919E+03 -0.71909679142E+02  0.30916312314E+03  0.33646741741E+03  0.47000000000E+01 0. -1.
        -13    1    6    6    0    0  0.18243258982E+02 -0.51906916143E+02  0.37979671995E+03  0.38376124469E+03  0.00000000000E+00 0.  1.
         14    1    6    6    0    0  0.46425054753E+02  0.22459741111E+02  0.28604252283E+03  0.29065452095E+03  0.00000000000E+00 0. -1.
         -5    1    3    3    0  503 -0.12095863697E+03  0.86549577849E+02 -0.27696937851E+03  0.31441365733E+03  0.47000000000E+01 0.  1.
         11    1    4    4    0    0 -0.23331828692E+02  0.42414795031E+02 -0.99631725233E+01  0.49423211899E+02  0.00000000000E+00 0. -1.
        -12    1    4    4    0    0 -0.31891947262E+02 -0.27607518706E+02 -0.50746523097E+02  0.65988491388E+02  0.00000000000E+00 0.  1.
</event>
<event>
12    1  0.1627564E-001  0.1822842E+03  0.7818608E-02  0.1165890E+00
         21   -1    0    0  503  502  0.00000000000E+00  0.00000000000E+00  0.19172136679E+03  0.19172136679E+03  0.00000000000E+00 0. -1.
         21   -1    0    0  501  503 -0.00000000000E+00 -0.00000000000E+00 -0.17233856827E+03  0.17233856827E+03  0.00000000000E+00 0. -1.
          6    2    1    2  501    0  0.55588721860E+02  0.17592830333E+02  0.45437965492E+01  0.18234079977E+03  0.17270757799E+03 0.  0.
         24    2    3    3    0    0 -0.18196374096E+02 -0.30659368861E+01  0.50150491053E+02  0.93048663317E+02  0.76173971886E+02 0.  0.
         -6    2    1    2    0  502 -0.55588721860E+02 -0.17592830333E+02  0.14839001976E+02  0.18171913530E+03  0.17147021454E+03 0.  0.
        -24    2    5    5    0    0 -0.20880368258E+02  0.35956888681E+02  0.55610014821E+02  0.10584682345E+03  0.79888601591E+02 0.  0.
          5    1    3    3  501    0  0.73785095956E+02  0.20658767219E+02 -0.45606694504E+02  0.89292136450E+02  0.47000000000E+01 0. -1.
        -13    1    4    4    0    0 -0.92490880584E+01 -0.37375665208E+02  0.10608784833E+02  0.39937855417E+02  0.00000000000E+00 0.  1.
         14    1    4    4    0    0 -0.89472860371E+01  0.34309728322E+02  0.39541706220E+02  0.53110807900E+02  0.00000000000E+00 0. -1.
         -5    1    5    5    0  502 -0.34708353602E+02 -0.53549719014E+02 -0.40771012844E+02  0.75872311844E+02  0.47000000000E+01 0.  1.
         13    1    6    6    0    0 -0.30049069195E+02  0.35237178660E+02 -0.31069235847E+01  0.46413988124E+02  0.00000000000E+00 0. -1.
        -14    1    6    6    0    0  0.91687009372E+01  0.71971002147E+00  0.58716938405E+02  0.59432835328E+02  0.00000000000E+00 0.  1.
</event>
<event>
12    1  0.1627564E-001  0.2036449E+03  0.7818608E-02  0.1148314E+00
         21   -1    0    0  501  502  0.00000000000E+00  0.00000000000E+00  0.15199813953E+03  0.15199813953E+03  0.00000000000E+00 0. -1.
         21   -1    0    0  502  503 -0.00000000000E+00 -0.00000000000E+00 -0.26409441722E+03  0.26409441722E+03  0.00000000000E+00 0.  1.
         -6    2    1    2    0  503 -0.57759419321E+02 -0.89230376339E+02 -0.72479190086E+02  0.21615846993E+03  0.17370388754E+03 0.  0.
        -24    2    3    3    0    0 -0.29241366340E+02 -0.27740838130E+02 -0.91788507710E+02  0.14552432520E+03  0.10548738063E+03 0.  0.
          6    2    1    2  501    0  0.57759419321E+02  0.89230376339E+02 -0.39617087603E+02  0.19993408681E+03  0.16463874045E+03 0.  0.
         24    2    5    5    0    0  0.90013723046E+02  0.82320960182E+02 -0.61808310491E+02  0.15990134379E+03  0.82879199317E+02 0.  0.
          5    1    5    5  501    0 -0.32254303725E+02  0.69094161565E+01  0.22191222888E+02  0.40032743019E+02  0.47000000000E+01 0. -1.
        -11    1    6    6    0    0  0.37398733822E+02  0.73011125102E+02 -0.67409946982E+02  0.10617622442E+03  0.00000000000E+00 0.  1.
         12    1    6    6    0    0  0.52614989224E+02  0.93098350802E+01  0.56016364913E+01  0.53725119373E+02  0.00000000000E+00 0. -1.
         -5    1    3    3    0  503 -0.28518052981E+02 -0.61489538208E+02  0.19309317624E+02  0.70634144732E+02  0.47000000000E+01 0.  1.
         13    1    4    4    0    0 -0.43443731174E+02  0.30167100340E+02 -0.36976811951E+02  0.64534458573E+02  0.00000000000E+00 0. -1.
        -14    1    4    4    0    0  0.14202364834E+02 -0.57907938470E+02 -0.54811695758E+02  0.80989866629E+02  0.00000000000E+00 0.  1.
</event>
<event>
12    1  0.1627564E-001  0.1790793E+03  0.7818608E-02  0.1169700E+00
         21   -1    0    0  503  502  0.00000000000E+00  0.00000000000E+00  0.20405167046E+03  0.20405167046E+03  0.00000000000E+00 0. -1.
         21   -1    0    0  501  503 -0.00000000000E+00 -0.00000000000E+00 -0.15834692464E+03  0.15834692464E+03  0.00000000000E+00 0. -1.
          6    2    1    2  501    0  0.20793221310E+02  0.28695262728E+02 -0.82195016706E+01  0.17926779276E+03  0.17553804476E+03 0.  0.
         24    2    3    3    0    0 -0.43633080292E+02  0.15969431766E+01 -0.45766351985E+02  0.99788718605E+02  0.77180525157E+02 0.  0.
         -6    2    1    2    0  502 -0.20793221310E+02 -0.28695262728E+02  0.53924247492E+02  0.18313080234E+03  0.17138637677E+03 0.  0.
        -24    2    5    5    0    0  0.50940331440E+02  0.23050166666E+01  0.40134086462E+02  0.10363879988E+03  0.80808573037E+02 0.  0.
          5    1    3    3  501    0  0.64426301603E+02  0.27098319552E+02  0.37546850314E+02  0.79479074160E+02  0.47000000000E+01 0. -1.
        -13    1    4    4    0    0  0.19565038714E+02 -0.13380930309E+02 -0.13246956725E+02  0.27153671912E+02  0.00000000000E+00 0.  1.
         14    1    4    4    0    0 -0.63198119006E+02  0.14977873486E+02 -0.32519395260E+02  0.72635046693E+02  0.00000000000E+00 0. -1.
         -5    1    5    5    0  502 -0.71733552750E+02 -0.31000279395E+02  0.13790161031E+02  0.79492002453E+02  0.47000000000E+01 0.  1.
         13    1    6    6    0    0  0.70172134168E+02 -0.86980566677E+01  0.19468512773E+02  0.73340354465E+02  0.00000000000E+00 0. -1.
        -14    1    6    6    0    0 -0.19231802727E+02  0.11003073334E+02  0.20665573689E+02  0.30298445419E+02  0.00000000000E+00 0.  1.
</event>
<event>
12    1  0.1627564E-001  0.2651895E+03  0.7818608E-02  0.1104067E+00
         21   -1    0    0  503  502  0.00000000000E+00  0.00000000000E+00  0.19509298957E+03  0.19509298957E+03  0.00000000000E+00 0.  1.
         21   -1    0    0  501  503 -0.00000000000E+00 -0.00000000000E+00 -0.36375666300E+03  0.36375666300E+03  0.00000000000E+00 0.  1.
          6    2    1    2  501    0 -0.15294262324E+03  0.13239715278E+03 -0.11096986825E+03  0.28745682799E+03  0.17145455442E+03 0.  0.
         24    2    3    3    0    0 -0.54451775157E+02  0.27260836006E+02 -0.10134146126E+03  0.14299614655E+03  0.80434179052E+02 0.  0.
         -6    2    1    2    0  502  0.15294262324E+03 -0.13239715278E+03 -0.57693805182E+02  0.27139282459E+03  0.17147897251E+03 0.  0.
        -24    2    5    5    0    0  0.78709291597E+02 -0.48035404023E+02 -0.92630586788E+02  0.15362117737E+03  0.80724766359E+02 0.  0.
          5    1    3    3  501    0 -0.98490848086E+02  0.10513631677E+03 -0.96284069881E+01  0.14446068144E+03  0.47000000000E+01 0. -1.
        -11    1    4    4    0    0 -0.56070563219E+02  0.32650037251E+02 -0.30087884038E+02  0.71520722578E+02  0.00000000000E+00 0.  1.
         12    1    4    4    0    0  0.16187880613E+01 -0.53892012453E+01 -0.71253577221E+02  0.71475423969E+02  0.00000000000E+00 0. -1.
         -5    1    5    5    0  502  0.74233331646E+02 -0.84361748756E+02  0.34936781606E+02  0.11777164722E+03  0.47000000000E+01 0.  1.
         13    1    6    6    0    0 -0.24743210976E+01 -0.25966292713E+02 -0.56168964362E+02  0.61929986111E+02  0.00000000000E+00 0. -1.
        -14    1    6    6    0    0  0.81183612695E+02 -0.22069111311E+02 -0.36461622426E+02  0.91691191257E+02  0.00000000000E+00 0.  1.
</event>
<event>
12    1  0.1627564E-001  0.1836117E+03  0.7818608E-02  0.1164440E+00
         21   -1    0    0  503  502  0.00000000000E+00  0.00000000000E+00  0.98997401500E+02  0.98997401500E+02  0.00000000000E+00 0. -1.
         21   -1    0    0  501  503 -0.00000000000E+00 -0.00000000000E+00 -0.34519934322E+03  0.34519934322E+03  0.00000000000E+00 0. -1.
          6    2    1    2  501    0 -0.48445981751E+02  0.37634342067E+02 -0.95602513246E+02  0.20700987001E+03  0.17306036199E+03 0.  0.
         24    2    3    3    0    0 -0.55585399120E+02 -0.59683604504E+01 -0.12153679865E+03  0.15556238118E+03  0.79392084560E+02 0.  0.
         -6    2    1    2    0  502  0.48445981751E+02 -0.37634342067E+02 -0.15059942847E+03  0.23718687471E+03  0.17266750947E+03 0.  0.
        -24    2    5    5    0    0  0.87970025996E+02 -0.55201429800E+02 -0.13214796063E+03  0.18992907842E+03  0.88453648896E+02 0.  0.
          5    1    3    3  501    0  0.71394173685E+01  0.43602702517E+02  0.25934285407E+02  0.51447488828E+02  0.47000000000E+01 0. -1.
        -13    1    4    4    0    0  0.32291350169E+01 -0.71910203142E+01 -0.86979381503E+02  0.87335851131E+02  0.00000000000E+00 0.  1.
         14    1    4    4    0    0 -0.58814534137E+02  0.12226598638E+01 -0.34557417150E+02  0.68226530052E+02  0.00000000000E+00 0. -1.
         -5    1    5    5    0  502 -0.39524044245E+02  0.17567087733E+02 -0.18451467842E+02  0.47257796292E+02  0.47000000000E+01 0.  1.
         13    1    6    6    0    0  0.69505484247E+02 -0.18590732376E+01 -0.35658071184E+02  0.78140684245E+02  0.00000000000E+00 0. -1.
        -14    1    6    6    0    0  0.18464541749E+02 -0.53342356563E+02 -0.96489889447E+02  0.11178839417E+03  0.00000000000E+00 0.  1.
</event>
<event>
12    1  0.1627564E-001  0.2042284E+03  0.7818608E-02  0.1146245E+00
         21   -1    0    0  501  502  0.00000000000E+00  0.00000000000E+00  0.44684176075E+03  0.44684176075E+03  0.00000000000E+00 0. -1.
         21   -1    0    0  502  503 -0.00000000000E+00 -0.00000000000E+00 -0.98980175349E+02  0.98980175349E+02  0.00000000000E+00 0. -1.
         -6    2    1    2    0  503 -0.11018724915E+03 -0.39354300958E+01  0.23944337120E+03  0.31470999552E+03  0.17190850991E+03 0.  0.
        -24    2    3    3    0    0 -0.12582332219E+03  0.20443181281E+01  0.11187141731E+03  0.18595853888E+03  0.78928299907E+02 0.  0.
          6    2    1    2  501    0  0.11018724915E+03  0.39354300958E+01  0.10841821420E+03  0.23111194058E+03  0.17176001404E+03 0.  0.
         24    2    5    5    0    0  0.45504489666E+02  0.61757402100E+02  0.29416140786E+02  0.11367831071E+03  0.78567255859E+02 0.  0.
          5    1    5    5  501    0  0.64682759484E+02 -0.57821972004E+02  0.79002073412E+02  0.11743362987E+03  0.47000000000E+01 0. -1.
        -11    1    6    6    0    0  0.32932504642E+02  0.56945073098E+02  0.54358309071E+02  0.85335320807E+02  0.00000000000E+00 0.  1.
         12    1    6    6    0    0  0.12571985024E+02  0.48123290018E+01 -0.24942168285E+02  0.28342989903E+02  0.00000000000E+00 0. -1.
         -5    1    3    3    0  503  0.15636073038E+02 -0.59797482239E+01  0.12757195388E+03  0.12875145664E+03  0.47000000000E+01 0.  1.
         11    1    4    4    0    0 -0.30500692786E+02  0.36137203490E+02  0.37037513479E+02  0.60066356150E+02  0.00000000000E+00 0. -1.
        -12    1    4    4    0    0 -0.95322629401E+02 -0.34092885362E+02  0.74833903836E+02  0.12589218273E+03  0.00000000000E+00 0.  1.
</event>
<event>
12    1  0.1627564E-001  0.2056110E+03  0.7818608E-02  0.1145237E+00
         21   -1    0    0  503  502  0.00000000000E+00  0.00000000000E+00  0.11544605369E+03  0.11544605369E+03  0.00000000000E+00 0. -1.
         21   -1    0    0  501  503 -0.00000000000E+00 -0.00000000000E+00 -0.56432569111E+03  0.56432569111E+03  0.00000000000E+00 0.  1.
          6    2    1    2  501    0 -0.10849188398E+03  0.24022268279E+02 -0.42622930292E+03  0.47291691651E+03  0.17213783138E+03 0.  0.
         24    2    3    3    0    0 -0.57186606573E+02  0.17381152397E+02 -0.96648512914E+02  0.13926751512E+03  0.80511448182E+02 0.  0.
         -6    2    1    2    0  502  0.10849188398E+03 -0.24022268279E+02 -0.22650334498E+02  0.20685482830E+03  0.17299804644E+03 0.  0.
        -24    2    5    5    0    0  0.83349034457E+02  0.48273198058E+02 -0.33812153263E+02  0.12935983792E+03  0.79456546383E+02 0.  0.
          5    1    3    3  501    0 -0.51305277405E+02  0.66411158826E+01 -0.32958079001E+03  0.33364940140E+03  0.47000000000E+01 0. -1.
        -13    1    4    4    0    0  0.14688611847E+02 -0.63101539103E+01 -0.44704396730E+02  0.47476904357E+02  0.00000000000E+00 0.  1.
         14    1    4    4    0    0 -0.71875218421E+02  0.23691306307E+02 -0.51944116184E+02  0.91790610760E+02  0.00000000000E+00 0. -1.
         -5    1    5    5    0  502  0.25142849521E+02 -0.72295466337E+02  0.11161818764E+02  0.77494990374E+02  0.47000000000E+01 0.  1.
         11    1    6    6    0    0  0.13598611910E+02  0.25300643891E+02  0.22769857845E+02  0.36653939126E+02  0.00000000000E+00 0. -1.
        -12    1    6    6    0    0  0.69750422547E+02  0.22972554167E+02 -0.56582011108E+02  0.92705898795E+02  0.00000000000E+00 0.  1.
</event>
<event>
12    1  0.1627564E-001  0.1771078E+03  0.7818608E-02  0.1171089E+00
         21   -1    0    0  503  502  0.00000000000E+00  0.00000000000E+00  0.80360853583E+03  0.80360853583E+03  0.00000000000E+00 0.  1.
         21   -1    0    0  501  503 -0.00000000000E+00 -0.00000000000E+00 -0.40407865625E+02  0.40407865625E+02  0.00000000000E+00 0.  1.
          6    2    1    2  501    0  0.86306867515E+01  0.48857371298E+02  0.29114706497E+03  0.33983212253E+03  0.16810034675E+03 0.  0.
         24    2    3    3    0    0  0.67060183186E+02  0.40988623162E+02  0.22004535416E+03  0.24734716953E+03  0.81138948661E+02 0.  0.
         -6    2    1    2    0  502 -0.86306867515E+01 -0.48857371298E+02  0.47205360524E+03  0.50418427893E+03  0.17001661512E+03 0.  0.
        -24    2    5    5    0    0  0.29849004783E+02 -0.86984254953E+02  0.37424947445E+03  0.39228216136E+03  0.73248899636E+02 0.  0.
          5    1    3    3  501    0 -0.58429496435E+02  0.78687481360E+01  0.71101710813E+02  0.92484953000E+02  0.47000000000E+01 0. -1.
        -11    1    4    4    0    0  0.14603761221E+02  0.12509531681E+02  0.16511043631E+03  0.16622639503E+03  0.00000000000E+00 0.  1.
         12    1    4    4    0    0  0.52456421965E+02  0.28479091481E+02  0.54934917845E+02  0.81120774501E+02  0.00000000000E+00 0. -1.
         -5    1    5    5    0  502 -0.38479691534E+02  0.38126883655E+02  0.97804130787E+02  0.11190211757E+03  0.47000000000E+01 0.  1.
         11    1    6    6    0    0  0.35277024675E+02 -0.20981509011E+02  0.22897549759E+03  0.23262517208E+03  0.00000000000E+00 0. -1.
        -12    1    6    6    0    0 -0.54280198921E+01 -0.66002745941E+02  0.14527397686E+03  0.15965698928E+03  0.00000000000E+00 0.  1.
</event>
<event>
12    1  0.1627564E-001  0.1737458E+03  0.7818608E-02  0.1174432E+00
         21   -1    0    0  501  502  0.00000000000E+00  0.00000000000E+00  0.15634925595E+03  0.15634925595E+03  0.00000000000E+00 0.  1.
         21   -1    0    0  502  503 -0.00000000000E+00 -0.00000000000E+00 -0.42520777780E+03  0.42520777780E+03  0.00000000000E+00 0.  1.
         -6    2    1    2    0  503 -0.95129093667E+01 -0.23818084341E+02 -0.35044811790E+03  0.39115404456E+03  0.17184238899E+03 0.  0.
        -24    2    3    3    0    0 -0.61116074299E+02 -0.23437214362E+02 -0.30601672697E+03  0.32289519757E+03  0.79565029208E+02 0.  0.
          6    2    1    2  501    0  0.95129093667E+01  0.23818084341E+02  0.81589596049E+02  0.19040298918E+03  0.17011360768E+03 0.  0.
         24    2    5    5    0    0 -0.57281562152E+01  0.36819033323E+02 -0.18096637399E+02  0.88615220301E+02  0.78337194202E+02 0.  0.
          5    1    5    5  501    0  0.15241065582E+02 -0.13000948981E+02  0.99686233448E+02  0.10178776888E+03  0.47000000000E+01 0. -1.
        -11    1    6    6    0    0  0.35498863947E+02  0.17026653708E+02 -0.16961614128E+02  0.42869250423E+02  0.00000000000E+00 0.  1.
         12    1    6    6    0    0 -0.41227020162E+02  0.19792379615E+02 -0.11350232716E+01  0.45745969878E+02  0.00000000000E+00 0. -1.
         -5    1    3    3    0  503  0.51603164933E+02 -0.38086997962E+00 -0.44431390926E+02  0.68258846992E+02  0.47000000000E+01 0.  1.
         11    1    4    4    0    0 -0.34288629141E+02 -0.23044699581E+02 -0.47344627208E+02  0.62835356231E+02  0.00000000000E+00 0. -1.
        -12    1    4    4    0    0 -0.26827445158E+02 -0.39251478057E+00 -0.25867209976E+03  0.26005984134E+03  0.00000000000E+00 0.  1.
</event>
<event>
12    1  0.1627564E-001  0.2108698E+03  0.7818608E-02  0.1141312E+00
         21   -1    0    0  501  502  0.00000000000E+00  0.00000000000E+00  0.71870958400E+02  0.71870958400E+02  0.00000000000E+00 0.  1.
         21   -1    0    0  502  503 -0.00000000000E+00 -0.00000000000E+00 -0.62085296550E+03  0.62085296550E+03  0.00000000000E+00 0.  1.
         -6    2    1    2    0  503  0.29162161873E+00  0.11753628732E+03 -0.31374168064E+03  0.37680605355E+03  0.17243577337E+03 0.  0.
        -24    2    3    3    0    0 -0.62693388629E+02  0.87711426184E+02 -0.16431121294E+03  0.21185700524E+03  0.79129392215E+02 0.  0.
          6    2    1    2  501    0 -0.29162161873E+00 -0.11753628732E+03 -0.23524032646E+03  0.31591787035E+03  0.17507491465E+03 0.  0.
         24    2    5    5    0    0  0.29806001883E+02 -0.65835265698E+02 -0.44741908862E+02  0.11619155841E+03  0.79220956061E+02 0.  0.
          5    1    5    5  501    0 -0.30097623502E+02 -0.51701021620E+02 -0.19049841760E+03  0.19972631195E+03  0.47000000000E+01 0. -1.
        -11    1    6    6    0    0  0.53994316747E+02 -0.26672680429E+02 -0.33066042633E+02  0.68703575581E+02  0.00000000000E+00 0.  1.
         12    1    6    6    0    0 -0.24188314864E+02 -0.39162585269E+02 -0.11675866229E+02  0.47487982828E+02  0.00000000000E+00 0. -1.
         -5    1    3    3    0  503  0.62985010248E+02  0.29824861134E+02 -0.14943046771E+03  0.16494904831E+03  0.47000000000E+01 0.  1.
         13    1    4    4    0    0  0.85843191956E+01  0.37754402116E+02 -0.20639869925E+02  0.43875843532E+02  0.00000000000E+00 0. -1.
        -14    1    4    4    0    0 -0.71277707825E+02  0.49957024068E+02 -0.14367134301E+03  0.16798116171E+03  0.00000000000E+00 0.  1.
</event>
<event>
12    1  0.1627564E-001  0.2947156E+03  0.7818608E-02  0.1087977E+00
         21   -1    0    0  501  502  0.00000000000E+00  0.00000000000E+00  0.20342417467E+03  0.20342417467E+03  0.00000000000E+00 0.  1.
         21   -1    0    0  502  503 -0.00000000000E+00 -0.00000000000E+00 -0.48040532050E+03  0.48040532050E+03  0.00000000000E+00 0. -1.
         -6    2    1    2    0  503 -0.25703310787E+02 -0.23749972338E+03 -0.23790736419E+02  0.29567432441E+03  0.17259932846E+03 0.  0.
        -24    2    3    3    0    0 -0.78132734411E+02 -0.19519408975E+03 -0.32564364863E+02  0.22757382768E+03  0.80770986911E+02 0.  0.
          6    2    1    2  501    0  0.25703310787E+02  0.23749972338E+03 -0.25319040940E+03  0.38815517076E+03  0.17173314877E+03 0.  0.
         24    2    5    5    0    0  0.38402055333E+02  0.21359275680E+03 -0.13680574927E+03  0.26857139144E+03  0.79487078520E+02 0.  0.
          5    1    5    5  501    0 -0.12698744547E+02  0.23906966574E+02 -0.11638466013E+03  0.11958377932E+03  0.47000000000E+01 0. -1.
        -13    1    6    6    0    0 -0.20724268614E+02  0.29143061878E+02 -0.10261726941E+02  0.37203714935E+02  0.00000000000E+00 0.  1.
         14    1    6    6    0    0  0.59126323947E+02  0.18444969493E+03 -0.12654402233E+03  0.23136767650E+03  0.00000000000E+00 0. -1.
         -5    1    3    3    0  503  0.52429423624E+02 -0.42305633624E+02  0.87736284439E+01  0.68100496724E+02  0.47000000000E+01 0.  1.
         13    1    4    4    0    0  0.87961577765E+01 -0.82162191801E+02 -0.12807625817E+02  0.83618379752E+02  0.00000000000E+00 0. -1.
        -14    1    4    4    0    0 -0.86928892188E+02 -0.11303189795E+03 -0.19756739046E+02  0.14395544793E+03  0.00000000000E+00 0.  1.
</event>
<event>
12    1  0.1627564E-001  0.2210781E+03  0.7818608E-02  0.1133217E+00
         21   -1    0    0  501  502  0.00000000000E+00  0.00000000000E+00  0.55559802740E+03  0.55559802740E+03  0.00000000000E+00 0.  1.
         21   -1    0    0  502  503 -0.00000000000E+00 -0.00000000000E+00 -0.13554711137E+03  0.13554711137E+03  0.00000000000E+00 0.  1.
         -6    2    1    2    0  503 -0.83065297826E+02 -0.10969226423E+03  0.44414412401E+01  0.22039384926E+03  0.17210893602E+03 0.  0.
        -24    2    3    3    0    0 -0.71837374064E+02 -0.14408584763E+03 -0.12288093445E+02  0.18025718047E+03  0.80126862347E+02 0.  0.
          6    2    1    2  501    0  0.83065297826E+02  0.10969226423E+03  0.41560947479E+03  0.47075128951E+03  0.17304133756E+03 0.  0.
         24    2    5    5    0    0 -0.13335186431E+02  0.15730650194E+02  0.17582081086E+03  0.19571941567E+03  0.83473658045E+02 0.  0.
          5    1    5    5  501    0  0.96400484258E+02  0.93961614034E+02  0.23978866393E+03  0.27503187384E+03  0.47000000000E+01 0. -1.
        -11    1    6    6    0    0  0.22521245506E+02 -0.23678643564E+02  0.64578042747E+02  0.72375467288E+02  0.00000000000E+00 0.  1.
         12    1    6    6    0    0 -0.35856431937E+02  0.39409293758E+02  0.11124276811E+03  0.12334394838E+03  0.00000000000E+00 0. -1.
         -5    1    3    3    0  503 -0.11227923762E+02  0.34393583403E+02  0.16729534685E+02  0.40136668796E+02  0.47000000000E+01 0.  1.
         11    1    4    4    0    0 -0.19062934281E+02 -0.32686564281E+02  0.31713336208E+02  0.49371475989E+02  0.00000000000E+00 0. -1.
        -12    1    4    4    0    0 -0.52774439784E+02 -0.11139928335E+03 -0.44001429653E+02  0.13088570448E+03  0.00000000000E+00 0.  1.
</event>
<event>
12    1  0.1627564E-001  0.2216178E+03  0.7818608E-02  0.1132908E+00
         21   -1    0    0  501  502  0.00000000000E+00  0.00000000000E+00  0.17309530252E+03  0.17309530252E+03  0.00000000000E+00 0.  1.
         21   -1    0    0  502  503 -0.00000000000E+00 -0.00000000000E+00 -0.28224408104E+03  0.28224408104E+03  0.00000000000E+00 0.  1.
         -6    2    1    2    0  503  0.10451558521E+03 -0.91157729167E+02 -0.58046295654E+02  0.22909352068E+03  0.17286188024E+03 0.  0.
        -24    2    3    3    0    0  0.25728068052E+02 -0.60988862338E+00  0.18723942469E+02  0.86537764049E+02  0.80472934177E+02 0.  0.
          6    2    1    2  501    0 -0.10451558521E+03  0.91157729167E+02 -0.51102482867E+02  0.22624586288E+03  0.17129649026E+03 0.  0.
         24    2    5    5    0    0 -0.10069676704E+03  0.31470797393E+02  0.20016496654E+02  0.13320225781E+03  0.78815806575E+02 0.  0.
          5    1    5    5  501    0 -0.38188181699E+01  0.59686931773E+02 -0.71118979522E+02  0.93043605073E+02  0.47000000000E+01 0. -1.
        -13    1    6    6    0    0 -0.42470741402E+01  0.27710901333E+02 -0.13381746039E+02  0.31064494499E+02  0.00000000000E+00 0.  1.
         14    1    6    6    0    0 -0.96449692899E+02  0.37598960602E+01  0.33398242693E+02  0.10213776331E+03  0.00000000000E+00 0. -1.
         -5    1    3    3    0  503  0.78787517157E+02 -0.90547840543E+02 -0.76770238123E+02  0.14255575663E+03  0.47000000000E+01 0.  1.
         13    1    4    4    0    0  0.40829854741E+02  0.21516045157E+02 -0.10039913352E+02  0.47231526521E+02  0.00000000000E+00 0. -1.
        -14    1    4    4    0    0 -0.15101786689E+02 -0.22125933780E+02  0.28763855822E+02  0.39306237528E+02  0.00000000000E+00 0.  1.
</event>
<event>
12    1  0.1627564E-001  0.1989497E+03  0.7818608E-02  0.1150657E+00
         21   -1    0    0  501  502  0.00000000000E+00  0.00000000000E+00  0.25525383141E+04  0.25525383141E+04  0.00000000000E+00 0. -1.
         21   -1    0    0  502  503 -0.00000000000E+00 -0.00000000000E+00 -0.15915061585E+02  0.15915061585E+02  0.00000000000E+00 0.  1.
         -6    2    1    2    0  503 -0.68881482994E+02 -0.72795272893E+02  0.10603618876E+04  0.10788643621E+04  0.17186380848E+03 0.  0.
        -24    2    3    3    0    0 -0.49684649663E+02 -0.11338539471E+03  0.91097783344E+03  0.92280744287E+03  0.79800698382E+02 0.  0.
          6    2    1    2  501    0  0.68881482994E+02  0.72795272893E+02  0.14762613648E+04  0.14895890135E+04  0.17170906038E+03 0.  0.
         24    2    5    5    0    0  0.96130815209E+02  0.35911951778E+02  0.13324180063E+04  0.13385396597E+04  0.76288106859E+02 0.  0.
          5    1    5    5  501    0 -0.27249332215E+02  0.36883321115E+02  0.14384335852E+03  0.15104935376E+03  0.47000000000E+01 0. -1.
        -13    1    6    6    0    0  0.19056722411E+02  0.35422611087E+02  0.23493275316E+03  0.23835125037E+03  0.00000000000E+00 0.  1.
         14    1    6    6    0    0  0.77074092798E+02  0.48934069093E+00  0.10974852532E+04  0.11001884094E+04  0.00000000000E+00 0. -1.
         -5    1    3    3    0  503 -0.19196833331E+02  0.40590121815E+02  0.14938405421E+03  0.15605691927E+03  0.47000000000E+01 0.  1.
         13    1    4    4    0    0 -0.10925942931E+02 -0.12268865047E+02  0.40677722049E+03  0.40710884096E+03  0.00000000000E+00 0. -1.
        -14    1    4    4    0    0 -0.38758706732E+02 -0.10111652966E+03  0.50420061295E+03  0.51569860191E+03  0.00000000000E+00 0.  1.
</event>
<event>
12    1  0.1627564E-001  0.2107294E+03  0.7818608E-02  0.1141010E+00
         21   -1    0    0  501  502  0.00000000000E+00  0.00000000000E+00  0.43081928474E+03  0.43081928474E+03  0.00000000000E+00 0. -1.
         21   -1    0    0  502  503 -0.00000000000E+00 -0.00000000000E+00 -0.10441896845E+03  0.10441896845E+03  0.00000000000E+00 0.  1.
         -6    2    1    2    0  503 -0.11058606751E+03  0.50168712339E+02  0.19409359925E+03  0.28641713561E+03  0.17209378919E+03 0.  0.
        -24    2    3    3    0    0 -0.98791007795E+02  0.91576367219E+02  0.18416208574E+03  0.24198243884E+03  0.80584940465E+02 0.  0.
          6    2    1    2  501    0  0.11058606751E+03 -0.50168712339E+02  0.13230671704E+03  0.24882111758E+03  0.17222282995E+03 0.  0.
         24    2    5    5    0    0  0.45581191667E+02 -0.25983389415E+02  0.14909962295E+03  0.17730429847E+03  0.80332652968E+02 0.  0.
          5    1    5    5  501    0  0.65004875838E+02 -0.24185322924E+02 -0.16792905902E+02  0.71516819115E+02  0.47000000000E+01 0. -1.
        -11    1    6    6    0    0  0.42973438620E+02  0.19690784620E+02  0.53957385556E+02  0.71734530610E+02  0.00000000000E+00 0.  1.
         12    1    6    6    0    0  0.26077530466E+01 -0.45674174035E+02  0.95142237390E+02  0.10556976786E+03  0.00000000000E+00 0. -1.
         -5    1    3    3    0  503 -0.11795059711E+02 -0.41407654881E+02  0.99315135047E+01  0.44434696767E+02  0.47000000000E+01 0.  1.
         11    1    4    4    0    0 -0.48122085278E+02  0.25242260268E+02  0.20159434260E+02  0.57959551281E+02  0.00000000000E+00 0. -1.
        -12    1    4    4    0    0 -0.50668922516E+02  0.66334106952E+02  0.16400265148E+03  0.18402288756E+03  0.00000000000E+00 0.  1.
</event>
<event>
12    1  0.1627564E-001  0.1728275E+03  0.7818608E-02  0.1175029E+00
         21   -1    0    0  503  502  0.00000000000E+00  0.00000000000E+00  0.99673136630E+02  0.99673136630E+02  0.00000000000E+00 0.  1.
         21   -1    0    0  501  503 -0.00000000000E+00 -0.00000000000E+00 -0.30458059506E+03  0.30458059506E+03  0.00000000000E+00 0.  1.
          6    2    1    2  501    0 -0.42776467346E+01 -0.15054340150E+02 -0.12991466944E+03  0.21621092306E+03  0.17211743228E+03 0.  0.
         24    2    3    3    0    0  0.32347685262E+02 -0.40728873670E+02 -0.20842927909E+02  0.98230706854E+02  0.80682279547E+02 0.  0.
         -6    2    1    2    0  502  0.42776467346E+01  0.15054340150E+02 -0.74992788987E+02  0.18804280863E+03  0.17173016059E+03 0.  0.
        -24    2    5    5    0    0  0.62591749992E+02  0.51700657422E+01 -0.78689203131E+02  0.12859546220E+03  0.80002159114E+02 0.  0.
          5    1    3    3  501    0 -0.36625331997E+02  0.25674533521E+02 -0.10907174153E+03  0.11798021621E+03  0.47000000000E+01 0. -1.
        -13    1    4    4    0    0  0.22437608609E+02 -0.41556862984E+02 -0.49189046889E+02  0.68190772653E+02  0.00000000000E+00 0.  1.
         14    1    4    4    0    0  0.99100766530E+01  0.82798931420E+00  0.28346118980E+02  0.30039934201E+02  0.00000000000E+00 0. -1.
         -5    1    5    5    0  502 -0.58314103257E+02  0.98842744074E+01  0.36964141442E+01  0.59447346423E+02  0.47000000000E+01 0.  1.
         11    1    6    6    0    0  0.64492572161E+01 -0.31187108467E+02 -0.40680945079E+02  0.51663990803E+02  0.00000000000E+00 0. -1.
        -12    1    6    6    0    0  0.56142492776E+02  0.36357174209E+02 -0.38008258053E+02  0.76931471400E+02  0.00000000000E+00 0.  1.
</event>
<event>
12    1  0.1627564E-001  0.2265333E+03  0.7818608E-02  0.1129393E+00
         21   -1    0    0  501  502  0.00000000000E+00  0.00000000000E+00  0.81255978644E+03  0.81255978644E+03  0.00000000000E+00 0. -1.
         21   -1    0    0  502  503 -0.00000000000E+00 -0.00000000000E+00 -0.26858679632E+03  0.26858679632E+03  0.00000000000E+00 0.  1.
         -6    2    1    2    0  503 -0.22387992922E+02  0.14258633979E+03 -0.20106678313E+03  0.30289469887E+03  0.17460028867E+03 0.  0.
        -24    2    3    3    0    0 -0.31151116996E+02  0.95658791881E+02 -0.21651286758E+03  0.25249967311E+03  0.82202594480E+02 0.  0.
          6    2    1    2  501    0  0.22387992922E+02 -0.14258633979E+03  0.74503977325E+03  0.77825188390E+03  0.17250983897E+03 0.  0.
         24    2    5    5    0    0 -0.22455633093E+02 -0.18657248369E+02  0.19764221760E+03  0.21519278893E+03  0.79957125104E+02 0.  0.
          5    1    5    5  501    0  0.44843626015E+02 -0.12392909142E+03  0.54739755565E+03  0.56305909497E+03  0.47000000000E+01 0. -1.
        -11    1    6    6    0    0 -0.38813658271E+02  0.19118802434E+02  0.11488713628E+03  0.12276433830E+03  0.00000000000E+00 0.  1.
         12    1    6    6    0    0  0.16358025178E+02 -0.37776050803E+02  0.82755081322E+02  0.92428450634E+02  0.00000000000E+00 0. -1.
         -5    1    3    3    0  503  0.87631240732E+01  0.46927547911E+02  0.15446084449E+02  0.50395025759E+02  0.47000000000E+01 0.  1.
         13    1    4    4    0    0 -0.15754687389E+02  0.11772662929E+02  0.13598641569E+00  0.19667848369E+02  0.00000000000E+00 0. -1.
        -14    1    4    4    0    0 -0.15396429607E+02  0.83886128952E+02 -0.21664885399E+03  0.23283182474E+03  0.00000000000E+00 0.  1.
</event>
<event>
12    1  0.1627564E-001  0.2000339E+03  0.7818608E-02  0.1152188E+00
         21   -1    0    0  501  502  0.00000000000E+00  0.00000000000E+00  0.16388898600E+03  0.16388898600E+03  0.00000000000E+00 0. -1.
         21   -1    0    0  502  503 -0.00000000000E+00 -0.00000000000E+00 -0.26813756543E+03  0.26813756543E+03  0.00000000000E+00 0. -1.
         -6    2    1    2    0  503 -0.95548315112E+02 -0.37111374643E+02  0.30144458700E+02  0.19103891241E+03  0.15836806185E+03 0.  0.
        -24    2    3    3    0    0 -0.11990010102E+03 -0.38244527321E+02 -0.39944258125E+01  0.14882698343E+03  0.79340011753E+02 0.  0.
          6    2    1    2  501    0  0.95548315112E+02  0.37111374643E+02 -0.13439303813E+03  0.24098763903E+03  0.17177548958E+03 0.  0.
         24    2    5    5    0    0 -0.16021780593E+02  0.36938212075E+02 -0.60858220815E+02  0.10728133552E+03  0.78641165719E+02 0.  0.
          5    1    5    5  501    0  0.11157009571E+03  0.17316256879E+00 -0.73534817314E+02  0.13370630351E+03  0.47000000000E+01 0. -1.
        -11    1    6    6    0    0 -0.26563881921E+02 -0.12797692154E+02 -0.20701286103E+01  0.29558521270E+02  0.00000000000E+00 0.  1.
         12    1    6    6    0    0  0.10542101328E+02  0.49735904229E+02 -0.58788092205E+02  0.77722814250E+02  0.00000000000E+00 0. -1.
         -5    1    3    3    0  503  0.24351785909E+02  0.11331526779E+01  0.34138884513E+02  0.42211928974E+02  0.47000000000E+01 0.  1.
         11    1    4    4    0    0 -0.55170113519E+02 -0.15125370140E+01  0.34448110293E+02  0.65059215310E+02  0.00000000000E+00 0. -1.
        -12    1    4    4    0    0 -0.64729987502E+02 -0.36731990307E+02 -0.38442536106E+02  0.83767768122E+02  0.00000000000E+00 0.  1.
</event>
<event>
12    1  0.1627564E-001  0.2247484E+03  0.7818608E-02  0.1130397E+00
         21   -1    0    0  501  502  0.00000000000E+00  0.00000000000E+00  0.61148036437E+02  0.61148036437E+02  0.00000000000E+00 0. -1.
         21   -1    0    0  502  503 -0.00000000000E+00 -0.00000000000E+00 -0.82737932845E+03  0.82737932845E+03  0.00000000000E+00 0. -1.
         -6    2    1    2    0  503 -0.14208401056E+03 -0.32230678347E+02 -0.40152214915E+03  0.46012963424E+03  0.17109225982E+03 0.  0.
        -24    2    3    3    0    0 -0.10433519257E+03 -0.47963437041E+02 -0.15017521712E+03  0.20543400571E+03  0.80400318174E+02 0.  0.
          6    2    1    2  501    0  0.14208401056E+03  0.32230678347E+02 -0.36470914286E+03  0.42839773064E+03  0.17112911514E+03 0.  0.
         24    2    5    5    0    0  0.15547246475E+02  0.49322149221E+02 -0.16798666120E+03  0.19382259166E+03  0.81690191683E+02 0.  0.
          5    1    5    5  501    0  0.12653676408E+03 -0.17091470874E+02 -0.19672248166E+03  0.23457513898E+03  0.47000000000E+01 0. -1.
        -11    1    6    6    0    0  0.34054274594E+01  0.14639013111E+02  0.58620702749E+01  0.16132622507E+02  0.00000000000E+00 0.  1.
         12    1    6    6    0    0  0.12141819016E+02  0.34683136110E+02 -0.17384873148E+03  0.17768996915E+03  0.00000000000E+00 0. -1.
         -5    1    3    3    0  503 -0.37748817986E+02  0.15732758694E+02 -0.25134693202E+03  0.25469562853E+03  0.47000000000E+01 0.  1.
         11    1    4    4    0    0 -0.94349085954E+02 -0.63227661822E+02 -0.14872954937E+03  0.18713622336E+03  0.00000000000E+00 0. -1.
        -12    1    4    4    0    0 -0.99861066160E+01  0.15264224781E+02 -0.14456677560E+01  0.18297782346E+02  0.00000000000E+00 0.  1.
</event>
<event>
12    1  0.1627564E-001  0.2269749E+03  0.7818608E-02  0.1128809E+00
         21   -1    0    0  501  502  0.00000000000E+00  0.00000000000E+00  0.51102155317E+03  0.51102155317E+03  0.00000000000E+00 0. -1.
         21   -1    0    0  502  503 -0.00000000000E+00 -0.00000000000E+00 -0.16651317284E+03  0.16651317284E+03  0.00000000000E+00 0. -1.
         -6    2    1    2    0  503 -0.14776164490E+03 -0.10351772339E+02 -0.40656876384E+02  0.23046660952E+03  0.17181738449E+03 0.  0.
        -24    2    3    3    0    0 -0.16733569705E+02 -0.21920438944E+02  0.18708243614E+02  0.86076519803E+02  0.79364040243E+02 0.  0.
          6    2    1    2  501    0  0.14776164490E+03  0.10351772339E+02  0.38516525671E+03  0.44706811650E+03  0.17197954214E+03 0.  0.
         24    2    5    5    0    0  0.14236981924E+03 -0.27285444802E+02  0.20053238529E+03  0.25850242739E+03  0.74810470444E+02 0.  0.
          5    1    5    5  501    0  0.53918256535E+01  0.37637217142E+02  0.18463287142E+03  0.18856568910E+03  0.47000000000E+01 0. -1.
        -13    1    6    6    0    0  0.79525253234E+02  0.18823870828E+02  0.76072775738E+02  0.11164977037E+03  0.00000000000E+00 0.  1.
         14    1    6    6    0    0  0.62844566008E+02 -0.46109315631E+02  0.12445960956E+03  0.14685265703E+03  0.00000000000E+00 0. -1.
         -5    1    3    3    0  503 -0.13102807519E+03  0.11568666605E+02 -0.59365119998E+02  0.14439008971E+03  0.47000000000E+01 0.  1.
         13    1    4    4    0    0 -0.11964609686E+02  0.99981457815E+01 -0.26371055421E+02  0.30635720458E+02  0.00000000000E+00 0. -1.
        -14    1    4    4    0    0 -0.47689600192E+01 -0.31918584726E+02  0.45079299034E+02  0.55440799344E+02  0.00000000000E+00 0.  1.
</event>
<event>
12    1  0.1627564E-001  0.2352274E+03  0.7818608E-02  0.1123128E+00
         21   -1    0    0  503  502  0.00000000000E+00  0.00000000000E+00  0.32567550649E+03  0.32567550649E+03  0.00000000000E+00 0.  1.
         21   -1    0    0  501  503 -0.00000000000E+00 -0.00000000000E+00 -0.24459973908E+03  0.24459973908E+03  0.00000000000E+00 0. -1.
          6    2    1    2  501    0 -0.16001129824E+03  0.52620192897E+01 -0.11758520016E+03  0.26238223832E+03  0.17142594692E+03 0.  0.
         24    2    3    3    0    0 -0.16429239241E+03  0.52706284761E+01 -0.14536794332E+03  0.23388138466E+03  0.80925233505E+02 0.  0.
         -6    2    1    2    0  502  0.16001129824E+03 -0.52620192897E+01  0.19866096756E+03  0.30789300725E+03  0.17233867665E+03 0.  0.
        -24    2    5    5    0    0  0.15054101750E+03  0.41276006991E+02  0.19313054957E+03  0.25984980138E+03  0.76525834835E+02 0.  0.
          5    1    3    3  501    0  0.42810941729E+01 -0.86091863765E-02  0.27782743161E+02  0.28500853654E+02  0.47000000000E+01 0. -1.
        -11    1    4    4    0    0 -0.51929730041E+02  0.21958893905E+02 -0.10162159527E+02  0.57290133268E+02  0.00000000000E+00 0.  1.
         12    1    4    4    0    0 -0.11236266237E+03 -0.16688265429E+02 -0.13520578379E+03  0.17659125139E+03  0.00000000000E+00 0. -1.
         -5    1    5    5    0  502  0.94702807400E+01 -0.46538026280E+02  0.55304179940E+01  0.48043205873E+02  0.47000000000E+01 0.  1.
         11    1    6    6    0    0  0.13048455328E+03  0.31441177625E+01  0.13918102546E+03  0.19080739495E+03  0.00000000000E+00 0. -1.
        -12    1    6    6    0    0  0.20056464214E+02  0.38131889228E+02  0.53949524114E+02  0.69042406425E+02  0.00000000000E+00 0.  1.
</event>
<event>
12    1  0.1627564E-001  0.3606290E+03  0.7818608E-02  0.1058634E+00
         21   -1    0    0  503  502  0.00000000000E+00  0.00000000000E+00  0.56745467251E+02  0.56745467251E+02  0.00000000000E+00 0. -1.
         21   -1    0    0  501  503 -0.00000000000E+00 -0.00000000000E+00 -0.24240144808E+04  0.24240144808E+04  0.00000000000E+00 0.  1.
          6    2    1    2  501    0 -0.18473776779E+03 -0.25612343879E+03 -0.14980887839E+04  0.15408839371E+04  0.17414374669E+03 0.  0.
         24    2    3    3    0    0 -0.42672862761E+02 -0.11034295309E+03 -0.83959368892E+03  0.85162907327E+03  0.79736913892E+02 0.  0.
         -6    2    1    2    0  502  0.18473776779E+03  0.25612343879E+03 -0.86918022967E+03  0.93987601094E+03  0.16782546157E+03 0.  0.
        -24    2    5    5    0    0  0.11012104009E+03  0.94865798499E+02 -0.54995709693E+03  0.57450335039E+03  0.80468179714E+02 0.  0.
          5    1    3    3  501    0 -0.14206490503E+03 -0.14578048570E+03 -0.65849509494E+03  0.68925486383E+03  0.47000000000E+01 0. -1.
        -13    1    4    4    0    0  0.23622403092E+02 -0.33552209090E+02 -0.22253816608E+03  0.22628964630E+03  0.00000000000E+00 0.  1.
         14    1    4    4    0    0 -0.66295265853E+02 -0.76790743998E+02 -0.61705552285E+03  0.62533942696E+03  0.00000000000E+00 0. -1.
         -5    1    5    5    0  502  0.74616727695E+02  0.16125764029E+03 -0.31922313273E+03  0.36537266055E+03  0.47000000000E+01 0.  1.
         11    1    6    6    0    0  0.35159550221E+02  0.75793592364E+01 -0.50713963239E+02  0.62173521097E+02  0.00000000000E+00 0. -1.
        -12    1    6    6    0    0  0.74961489871E+02  0.87286439262E+02 -0.49924313370E+03  0.51232982929E+03  0.00000000000E+00 0.  1.
</event>
<event>
12    1  0.1627564E-001  0.2190244E+03  0.7818608E-02  0.1134673E+00
         21   -1    0    0  503  502  0.00000000000E+00  0.00000000000E+00  0.19954563167E+03  0.19954563167E+03  0.00000000000E+00 0. -1.
         21   -1    0    0  501  503 -0.00000000000E+00 -0.00000000000E+00 -0.24062748790E+03  0.24062748790E+03  0.00000000000E+00 0. -1.
          6    2    1    2  501    0  0.53237244051E+02 -0.12397140227E+03 -0.31326004965E+02  0.22093157162E+03  0.17212300258E+03 0.  0.
         24    2    3    3    0    0  0.50001416292E+02 -0.16946552409E+02 -0.57128312870E+02  0.11069256690E+03  0.78751971183E+02 0.  0.
         -6    2    1    2    0  502 -0.53237244051E+02  0.12397140227E+03 -0.97558512653E+01  0.21924154796E+03  0.17253569770E+03 0.  0.
        -24    2    5    5    0    0  0.34811782710E+02  0.67181320963E+02  0.85564582074E+01  0.11277476850E+03  0.83185006657E+02 0.  0.
          5    1    3    3  501    0  0.32358277589E+01 -0.10702484986E+03  0.25802307904E+02  0.11023900472E+03  0.47000000000E+01 0. -1.
        -13    1    4    4    0    0 -0.20805932164E+02  0.34905427004E+01 -0.11848669864E+02  0.24196315403E+02  0.00000000000E+00 0.  1.
         14    1    4    4    0    0  0.70807348456E+02 -0.20437095109E+02 -0.45279643006E+02  0.86496251495E+02  0.00000000000E+00 0. -1.
         -5    1    5    5    0  502 -0.88049026761E+02  0.56790081306E+02 -0.18312309473E+02  0.10646677945E+03  0.47000000000E+01 0.  1.
         13    1    6    6    0    0  0.39941914130E+02  0.74517141868E+02 -0.16522471421E+02  0.86146114239E+02  0.00000000000E+00 0. -1.
        -14    1    6    6    0    0 -0.51301314200E+01 -0.73358209050E+01  0.25078929628E+02  0.26628654266E+02  0.00000000000E+00 0.  1.
</event>
<event>
12    1  0.1627564E-001  0.2444969E+03  0.7818608E-02  0.1116886E+00
         21   -1    0    0  501  502  0.00000000000E+00  0.00000000000E+00  0.98615628035E+02  0.98615628035E+02  0.00000000000E+00 0.  1.
         21   -1    0    0  502  503 -0.00000000000E+00 -0.00000000000E+00 -0.74733732269E+03  0.74733732269E+03  0.00000000000E+00 0.  1.
         -6    2    1    2    0  503  0.11446396720E+03 -0.13009943935E+03 -0.50854137492E+03  0.56412100628E+03  0.17201835895E+03 0.  0.
        -24    2    3    3    0    0  0.70918453104E+02 -0.11855543472E+03 -0.22022606057E+03  0.27226952637E+03  0.80909573850E+02 0.  0.
          6    2    1    2  501    0 -0.11446396720E+03  0.13009943935E+03 -0.14018031974E+03  0.28183194445E+03  0.17248437309E+03 0.  0.
         24    2    5    5    0    0 -0.11094559145E+03  0.10382325938E+03 -0.17006057691E+03  0.24161085085E+03  0.79793545949E+02 0.  0.
          5    1    5    5  501    0 -0.35183757482E+01  0.26276179972E+02  0.29880257173E+02  0.40221093602E+02  0.47000000000E+01 0. -1.
        -11    1    6    6    0    0 -0.75820924954E+02  0.25443946330E+02 -0.51184960388E+02  0.94953184442E+02  0.00000000000E+00 0.  1.
         12    1    6    6    0    0 -0.35124666501E+02  0.78379313050E+02 -0.11887561652E+03  0.14665766640E+03  0.00000000000E+00 0. -1.
         -5    1    3    3    0  503  0.43545514099E+02 -0.11544004631E+02 -0.28831531434E+03  0.29185147991E+03  0.47000000000E+01 0.  1.
         13    1    4    4    0    0 -0.14887492171E+01 -0.75681168123E+02 -0.11194623444E+03  0.13513628302E+03  0.00000000000E+00 0. -1.
        -14    1    4    4    0    0  0.72407202321E+02 -0.42874266598E+02 -0.10827982614E+03  0.13713324335E+03  0.00000000000E+00 0.  1.
</event>
<event>
12    1  0.1627564E-001  0.2102077E+03  0.7818608E-02  0.1143436E+00
         21   -1    0    0  503  502  0.00000000000E+00  0.00000000000E+00  0.53671342336E+03  0.53671342336E+03  0.00000000000E+00 0.  1.
         21   -1    0    0  501  503 -0.00000000000E+00 -0.00000000000E+00 -0.16536723386E+03  0.16536723386E+03  0.00000000000E+00 0. -1.
          6    2    1    2  501    0 -0.79113368584E+02 -0.93113276156E+02 -0.66637790753E+02  0.22051727233E+03  0.17105047487E+03 0.  0.
         24    2    3    3    0    0  0.48864341300E+01 -0.92194296505E+02 -0.62738141638E+02  0.13629074062E+03  0.78201189355E+02 0.  0.
         -6    2    1    2    0  502  0.79113368584E+02  0.93113276156E+02  0.43798398026E+03  0.48156338489E+03  0.15856960434E+03 0.  0.
        -24    2    5    5    0    0  0.84450798756E+02  0.90826561708E+02  0.44737607247E+03  0.46956260909E+03  0.70443537056E+02 0.  0.
          5    1    3    3  501    0 -0.83999802714E+02 -0.91897965170E+00 -0.38996491146E+01  0.84226531704E+02  0.47000000000E+01 0. -1.
        -13    1    4    4    0    0 -0.11932414114E+02 -0.79285156653E+02 -0.11704105274E+02  0.81027801724E+02  0.00000000000E+00 0.  1.
         14    1    4    4    0    0  0.16818848244E+02 -0.12909139852E+02 -0.51034036364E+02  0.55262938898E+02  0.00000000000E+00 0. -1.
         -5    1    5    5    0  502 -0.53374301715E+01  0.22867144483E+01 -0.93920922119E+01  0.12000775805E+02  0.47000000000E+01 0.  1.
         13    1    6    6    0    0 -0.92026144004E+01  0.28212910730E+02  0.81460734901E+02  0.86697795671E+02  0.00000000000E+00 0. -1.
        -14    1    6    6    0    0  0.93653413156E+02  0.62613650978E+02  0.36591533757E+03  0.38286481342E+03  0.00000000000E+00 0.  1.
</event>
<event>
12    1  0.1627564E-001  0.1736910E+03  0.7818608E-02  0.1174161E+00
         21   -1    0    0  501  502  0.00000000000E+00  0.00000000000E+00  0.39134532971E+03  0.39134532971E+03  0.00000000000E+00 0. -1.
         21   -1    0    0  502  503 -0.00000000000E+00 -0.00000000000E+00 -0.12873362036E+03  0.12873362036E+03  0.00000000000E+00 0. -1.
         -6    2    1    2    0  503  0.13294487245E+02 -0.91960979676E+01 -0.33798607982E+02  0.17652745849E+03  0.17250590161E+03 0.  0.
        -24    2    3    3    0    0 -0.49537152936E+01 -0.65207138255E+02  0.94510369432E+01  0.10329593989E+03  0.79399111607E+02 0.  0.
          6    2    1    2  501    0 -0.13294487245E+02  0.91960979676E+01  0.29641031734E+03  0.34355149158E+03  0.17293709705E+03 0.  0.
         24    2    5    5    0    0  0.13274762706E+02 -0.54761456709E+02  0.20621637137E+03  0.22973790833E+03  0.84138446848E+02 0.  0.
          5    1    5    5  501    0 -0.26569249951E+02  0.63957554676E+02  0.90193945969E+02  0.11381358325E+03  0.47000000000E+01 0. -1.
        -13    1    6    6    0    0  0.42454434843E+02 -0.30855351313E+02  0.16813664667E+03  0.17613734327E+03  0.00000000000E+00 0.  1.
         14    1    6    6    0    0 -0.29179672137E+02 -0.23906105396E+02  0.38079724699E+02  0.53600565057E+02  0.00000000000E+00 0. -1.
         -5    1    3    3    0  503  0.18248202539E+02  0.56011040287E+02 -0.43249644925E+02  0.73231518597E+02  0.47000000000E+01 0.  1.
         13    1    4    4    0    0  0.36242419848E+02 -0.29560752213E+02  0.13470756763E+02  0.48670446429E+02  0.00000000000E+00 0. -1.
        -14    1    4    4    0    0 -0.41196135142E+02 -0.35646386042E+02 -0.40197198199E+01  0.54625493461E+02  0.00000000000E+00 0.  1.
</event>
<event>
12    1  0.1627564E-001  0.1988627E+03  0.7818608E-02  0.1153528E+00
         21   -1    0    0  503  502  0.00000000000E+00  0.00000000000E+00  0.97851469043E+02  0.97851469043E+02  0.00000000000E+00 0.  1.
         21   -1    0    0  501  503 -0.00000000000E+00 -0.00000000000E+00 -0.53605309933E+03  0.53605309933E+03  0.00000000000E+00 0.  1.
          6    2    1    2  501    0 -0.24833363434E+02 -0.64144307357E+02 -0.38571458401E+03  0.42823190436E+03  0.17284569849E+03 0.  0.
         24    2    3    3    0    0  0.16963194266E+02 -0.95953517648E+02 -0.32268170401E+03  0.34604910776E+03  0.78305014993E+02 0.  0.
         -6    2    1    2    0  502  0.24833363434E+02  0.64144307357E+02 -0.52487046276E+02  0.20567266401E+03  0.18658822736E+03 0.  0.
        -24    2    5    5    0    0 -0.25203373488E+02  0.50753689875E+02  0.35358400696E+02  0.10358497508E+03  0.79173755066E+02 0.  0.
          5    1    3    3  501    0 -0.41796557700E+02  0.31809210291E+02 -0.63032880009E+02  0.82182796601E+02  0.47000000000E+01 0. -1.
        -11    1    4    4    0    0 -0.12425626369E+02 -0.30804709724E+02 -0.21001469504E+03  0.21262525359E+03  0.00000000000E+00 0.  1.
         12    1    4    4    0    0  0.29388820635E+02 -0.65148807923E+02 -0.11266700896E+03  0.13342385417E+03  0.00000000000E+00 0. -1.
         -5    1    5    5    0  502  0.50036736922E+02  0.13390617481E+02 -0.87845446972E+02  0.10208768893E+03  0.47000000000E+01 0.  1.
         11    1    6    6    0    0  0.17814635470E+02  0.38219356852E+02 -0.60196524431E+01  0.42594796520E+02  0.00000000000E+00 0. -1.
        -12    1    6    6    0    0 -0.43018008958E+02  0.12534333024E+02  0.41378053140E+02  0.60990178559E+02  0.00000000000E+00 0.  1.
</event>
<event>
12    1  0.1627564E-001  0.3514557E+03  0.7818608E-02  0.1062333E+00
         21   -1    0    0  503  502  0.00000000000E+00  0.00000000000E+00  0.15040369637E+03  0.15040369637E+03  0.00000000000E+00 0.  1.
         21   -1    0    0  501  503 -0.00000000000E+00 -0.00000000000E+00 -0.18510978929E+04  0.18510978929E+04  0.00000000000E+00 0.  1.
          6    2    1    2  501    0  0.23866214320E+03 -0.18643411646E+03 -0.16009968975E+04  0.16391193366E+04  0.17833629849E+03 0.  0.
         24    2    3    3    0    0  0.15628854040E+03 -0.32973131411E+02 -0.84580999142E+03  0.86409350637E+03  0.75826848231E+02 0.  0.
         -6    2    1    2    0  502 -0.23866214320E+03  0.18643411646E+03 -0.99697299012E+02  0.36238225268E+03  0.17223253831E+03 0.  0.
        -24    2    5    5    0    0 -0.19341791302E+03  0.18495456264E+03 -0.13399092617E+03  0.30539653247E+03  0.60784820732E+02 0.  0.
          5    1    3    3  501    0  0.82373602800E+02 -0.15346098505E+03 -0.75518690611E+03  0.77502583023E+03  0.47000000000E+01 0. -1.
        -11    1    4    4    0    0  0.43961942763E+02 -0.45362072772E+02 -0.33927067714E+03  0.34510137992E+03  0.00000000000E+00 0.  1.
         12    1    4    4    0    0  0.11232659764E+03  0.12388941361E+02 -0.50653931428E+03  0.51899212645E+03  0.00000000000E+00 0. -1.
         -5    1    5    5    0  502 -0.45244230184E+02  0.14795538211E+01  0.34293627162E+02  0.56985720215E+02  0.47000000000E+01 0.  1.
         11    1    6    6    0    0 -0.23425699306E+02  0.17064352566E+01 -0.19231372566E+02  0.30356564365E+02  0.00000000000E+00 0. -1.
        -12    1    6    6    0    0 -0.16999221371E+03  0.18324812738E+03 -0.11475955361E+03  0.27503996810E+03  0.00000000000E+00 0.  1.
</event>
<event>
12    1  0.1627564E-001  0.1813226E+03  0.7818608E-02  0.1169794E+00
         21   -1    0    0  501  502  0.00000000000E+00  0.00000000000E+00  0.26988627232E+03  0.26988627232E+03  0.00000000000E+00 0. -1.
         21   -1    0    0  502  503 -0.00000000000E+00 -0.00000000000E+00 -0.14948572820E+03  0.14948572820E+03  0.00000000000E+00 0. -1.
         -6    2    1    2    0  503  0.32311352966E+02 -0.44207854612E+02 -0.41365993855E+02  0.18598126475E+03  0.17285695662E+03 0.  0.
        -24    2    3    3    0    0 -0.38224253665E+02  0.58580321266E+01 -0.45633773702E+02  0.99250827403E+02  0.79201485650E+02 0.  0.
          6    2    1    2  501    0 -0.32311352966E+02  0.44207854612E+02  0.16176653797E+03  0.23339073577E+03  0.15907377156E+03 0.  0.
         24    2    5    5    0    0  0.29385594215E+02  0.51279707070E+02  0.67643379740E+02  0.12052894727E+03  0.80364661406E+02 0.  0.
          5    1    5    5  501    0 -0.61696947180E+02 -0.70718524584E+01  0.94123158232E+02  0.11286178850E+03  0.47000000000E+01 0. -1.
        -13    1    6    6    0    0  0.43438460596E+02  0.48595104251E+02  0.16240892772E+02  0.67172543603E+02  0.00000000000E+00 0.  1.
         14    1    6    6    0    0 -0.14052866381E+02  0.26846028198E+01  0.51402486968E+02  0.53356403667E+02  0.00000000000E+00 0. -1.
         -5    1    3    3    0  503  0.70535606631E+02 -0.50065886739E+02  0.42677798472E+01  0.86730437348E+02  0.47000000000E+01 0.  1.
         13    1    4    4    0    0 -0.62920057001E+01  0.40459674715E+02 -0.18785816184E+02  0.45049766963E+02  0.00000000000E+00 0. -1.
        -14    1    4    4    0    0 -0.31932247965E+02 -0.34601642588E+02 -0.26847957517E+02  0.54201060440E+02  0.00000000000E+00 0.  1.
</event>
<event>
12    1  0.1627564E-001  0.2970054E+03  0.7818608E-02  0.1086890E+00
         21   -1    0    0  503  502  0.00000000000E+00  0.00000000000E+00  0.13902288484E+03  0.13902288484E+03  0.00000000000E+00 0. -1.
         21   -1    0    0  501  503 -0.00000000000E+00 -0.00000000000E+00 -0.67784587921E+03  0.67784587921E+03  0.00000000000E+00 0.  1.
          6    2    1    2  501    0  0.13789915888E+03  0.19830081893E+03 -0.16380569181E+03  0.33918213528E+03  0.17283756366E+03 0.  0.
         24    2    3    3    0    0  0.93374647075E+02  0.21466281204E+03 -0.12343456259E+03  0.27671562389E+03  0.80848609603E+02 0.  0.
         -6    2    1    2    0  502 -0.13789915888E+03 -0.19830081893E+03 -0.37501730257E+03  0.47768662877E+03  0.17090098089E+03 0.  0.
        -24    2    5    5    0    0 -0.21135339914E+02 -0.11075952270E+03 -0.24917656228E+03  0.28492965774E+03  0.79884768291E+02 0.  0.
          5    1    3    3  501    0  0.44524511807E+02 -0.16361993109E+02 -0.40371129223E+02  0.62466511387E+02  0.47000000000E+01 0. -1.
        -13    1    4    4    0    0  0.56442950289E+02  0.42110051279E+02 -0.25468569770E+02  0.74884651980E+02  0.00000000000E+00 0.  1.
         14    1    4    4    0    0  0.36931696787E+02  0.17255276076E+03 -0.97965992817E+02  0.20183097191E+03  0.00000000000E+00 0. -1.
         -5    1    5    5    0  502 -0.11676381897E+03 -0.87541296232E+02 -0.12584074029E+03  0.19275697103E+03  0.47000000000E+01 0.  1.
         13    1    6    6    0    0  0.52046882580E+01 -0.83044559893E+02 -0.95944484037E+02  0.12699933750E+03  0.00000000000E+00 0. -1.
        -14    1    6    6    0    0 -0.26340028172E+02 -0.27714962808E+02 -0.15323207824E+03  0.15793032024E+03  0.00000000000E+00 0.  1.
</event>
<event>
12    1  0.1627564E-001  0.2053143E+03  0.7818608E-02  0.1145561E+00
         21   -1    0    0  501  502  0.00000000000E+00  0.00000000000E+00  0.16025798874E+03  0.16025798874E+03  0.00000000000E+00 0. -1.
         21   -1    0    0  502  503 -0.00000000000E+00 -0.00000000000E+00 -0.33957302369E+03  0.33957302369E+03  0.00000000000E+00 0. -1.
         -6    2    1    2    0  503 -0.18703155333E+01 -0.11179385164E+03 -0.20922255531E+03  0.29234988795E+03  0.17085963826E+03 0.  0.
        -24    2    3    3    0    0 -0.80914664561E+01 -0.67466835159E+02 -0.22214061831E+03  0.24552517801E+03  0.79491591121E+02 0.  0.
          6    2    1    2  501    0  0.18703155333E+01  0.11179385164E+03  0.29907520367E+02  0.20748112448E+03  0.17219928541E+03 0.  0.
         24    2    5    5    0    0  0.16269533032E+02 -0.25018410209E+01  0.41577810468E+02  0.91597007806E+02  0.79939605967E+02 0.  0.
          5    1    5    5  501    0 -0.14399217499E+02  0.11429569266E+03 -0.11670290101E+02  0.11588411667E+03  0.47000000000E+01 0. -1.
        -11    1    6    6    0    0  0.39947122482E+02  0.18377038525E+02  0.40852930168E+02  0.60020413552E+02  0.00000000000E+00 0.  1.
         12    1    6    6    0    0 -0.23677589450E+02 -0.20878879546E+02  0.72488029958E+00  0.31576594255E+02  0.00000000000E+00 0. -1.
         -5    1    3    3    0  503  0.62211509227E+01 -0.44327016483E+02  0.12918062995E+02  0.46824709936E+02  0.47000000000E+01 0.  1.
         11    1    4    4    0    0 -0.59187904037E+01 -0.16551617007E+01 -0.14052154281E+03  0.14065587664E+03  0.00000000000E+00 0. -1.
        -12    1    4    4    0    0 -0.21726760524E+01 -0.65811673458E+02 -0.81619075502E+02  0.10486930137E+03  0.00000000000E+00 0.  1.
</event>
<event>
12    1  0.1627564E-001  0.1759121E+03  0.7818608E-02  0.1172419E+00
         21   -1    0    0  501  502  0.00000000000E+00  0.00000000000E+00  0.76714396397E+02  0.76714396397E+02  0.00000000000E+00 0.  1.
         21   -1    0    0  502  503 -0.00000000000E+00 -0.00000000000E+00 -0.50196046779E+03  0.50196046779E+03  0.00000000000E+00 0.  1.
         -6    2    1    2    0  503 -0.15696541078E+02  0.13000142284E+02 -0.34549990832E+03  0.38770511787E+03  0.17472746398E+03 0.  0.
        -24    2    3    3    0    0  0.53731510805E+02 -0.28137040655E+02 -0.18291709743E+03  0.20613479373E+03  0.73171854865E+02 0.  0.
          6    2    1    2  501    0  0.15696541078E+02 -0.13000142284E+02 -0.79746163071E+02  0.19096974632E+03  0.17232123602E+03 0.  0.
         24    2    5    5    0    0 -0.40192722707E+02 -0.23601304726E+01 -0.92910224791E+02  0.13238474672E+03  0.85278286323E+02 0.  0.
          5    1    5    5  501    0  0.55889263785E+02 -0.10640011812E+02  0.13164061721E+02  0.58584999605E+02  0.47000000000E+01 0. -1.
        -11    1    6    6    0    0 -0.43795874288E+02 -0.11460666141E+02 -0.68691799436E+01  0.45788766157E+02  0.00000000000E+00 0.  1.
         12    1    6    6    0    0  0.36031515806E+01  0.91005356686E+01 -0.86041044848E+02  0.86595980561E+02  0.00000000000E+00 0. -1.
         -5    1    3    3    0  503 -0.69428051883E+02  0.41137182939E+02 -0.16258281089E+03  0.18157032413E+03  0.47000000000E+01 0.  1.
         13    1    4    4    0    0 -0.17914679456E+02 -0.73012568288E+01 -0.51493084250E+02  0.55007106967E+02  0.00000000000E+00 0. -1.
        -14    1    4    4    0    0  0.71646190261E+02 -0.20835783826E+02 -0.13142401318E+03  0.15112768676E+03  0.00000000000E+00 0.  1.
</event>
<event>
12    1  0.1627564E-001  0.2665189E+03  0.7818608E-02  0.1103325E+00
         21   -1    0    0  503  502  0.00000000000E+00  0.00000000000E+00  0.38635967321E+03  0.38635967321E+03  0.00000000000E+00 0. -1.
         21   -1    0    0  501  503 -0.00000000000E+00 -0.00000000000E+00 -0.25849837302E+03  0.25849837302E+03  0.00000000000E+00 0.  1.
          6    2    1    2  501    0  0.15768882110E+03  0.12756535158E+03 -0.10951551902E+03  0.28814225453E+03  0.17289773484E+03 0.  0.
         24    2    3    3    0    0  0.61388084278E+02  0.30063813763E+02  0.85821588435E+01  0.10717393325E+03  0.82099139628E+02 0.  0.
         -6    2    1    2    0  502 -0.15768882110E+03 -0.12756535158E+03  0.23737681921E+03  0.35671579171E+03  0.17251005343E+03 0.  0.
        -24    2    5    5    0    0 -0.15628963338E+03 -0.82927972619E+02  0.24241215367E+03  0.31152842710E+03  0.83563212621E+02 0.  0.
          5    1    3    3  501    0  0.96300736822E+02  0.97501537821E+02 -0.11809767786E+03  0.18096832128E+03  0.47000000000E+01 0. -1.
        -13    1    4    4    0    0  0.51544178021E+02  0.22711784118E+01 -0.29172410783E+02  0.59270482453E+02  0.00000000000E+00 0.  1.
         14    1    4    4    0    0  0.98439062571E+01  0.27792635351E+02  0.37754569627E+02  0.47903450793E+02  0.00000000000E+00 0. -1.
         -5    1    5    5    0  502 -0.13991877242E+01 -0.44637378965E+02 -0.50353344589E+01  0.45187364609E+02  0.47000000000E+01 0.  1.
         13    1    6    6    0    0 -0.86739457696E+02 -0.90317280046E+02  0.16607621969E+03  0.20799580607E+03  0.00000000000E+00 0. -1.
        -14    1    6    6    0    0 -0.69550175681E+02  0.73893074276E+01  0.76335933974E+02  0.10353262103E+03  0.00000000000E+00 0.  1.
</event>
<event>
12    1  0.1627564E-001  0.1790769E+03  0.7818608E-02  0.1169084E+00
         21   -1    0    0  503  502  0.00000000000E+00  0.00000000000E+00  0.19115634454E+03  0.19115634454E+03  0.00000000000E+00 0. -1.
         21   -1    0    0  501  503 -0.00000000000E+00 -0.00000000000E+00 -0.23103132718E+03  0.23103132718E+03  0.00000000000E+00 0. -1.
          6    2    1    2  501    0 -0.31106101459E+02 -0.37252339574E+02 -0.13161713884E+03  0.22097847072E+03  0.17074275075E+03 0.  0.
         24    2    3    3    0    0 -0.63393566025E+02 -0.29488310458E+02 -0.25074978029E+02  0.10928208516E+03  0.80159309796E+02 0.  0.
         -6    2    1    2    0  502  0.31106101459E+02  0.37252339574E+02  0.91742156204E+02  0.20120920101E+03  0.17237515190E+03 0.  0.
        -24    2    5    5    0    0  0.10903858058E+02  0.51874566387E+01  0.12426486344E+03  0.15104842109E+03  0.85018029849E+02 0.  0.
          5    1    3    3  501    0  0.32287464566E+02 -0.77640291155E+01 -0.10654216081E+03  0.11169638556E+03  0.47000000000E+01 0. -1.
        -13    1    4    4    0    0 -0.10402266930E+02  0.26942527249E+02 -0.50055805819E+01  0.29311478448E+02  0.00000000000E+00 0.  1.
         14    1    4    4    0    0 -0.52991299095E+02 -0.56430837707E+02 -0.20069397447E+02  0.79970606713E+02  0.00000000000E+00 0. -1.
         -5    1    5    5    0  502  0.20202243401E+02  0.32064882935E+02 -0.32522707239E+02  0.50160779920E+02  0.47000000000E+01 0.  1.
         13    1    6    6    0    0  0.41895198501E+02  0.19291390513E+02  0.97073019551E+02  0.10747342244E+03  0.00000000000E+00 0. -1.
        -14    1    6    6    0    0 -0.30991340443E+02 -0.14103933874E+02  0.27191843892E+02  0.43574998651E+02  0.00000000000E+00 0.  1.
</event>
<event>
12    1  0.1627564E-001  0.1943219E+03  0.7818608E-02  0.1154762E+00
         21   -1    0    0  501  502  0.00000000000E+00  0.00000000000E+00  0.95320028200E+03  0.95320028200E+03  0.00000000000E+00 0.  1.
         21   -1    0    0  502  503 -0.00000000000E+00 -0.00000000000E+00 -0.55229645449E+02  0.55229645449E+02  0.00000000000E+00 0.  1.
         -6    2    1    2    0  503  0.87485600328E+02 -0.21860653016E+02  0.18029231000E+03  0.26507796507E+03  0.17213190322E+03 0.  0.
        -24    2    3    3    0    0 -0.24026489663E+02 -0.81677456479E+01  0.64267017485E+02  0.10350321324E+03  0.77062840203E+02 0.  0.
          6    2    1    2  501    0 -0.87485600328E+02  0.21860653016E+02  0.71767832655E+03  0.74335196237E+03  0.17140111187E+03 0.  0.
         24    2    5    5    0    0 -0.10884626202E+03  0.50542901442E+02  0.65720801265E+03  0.67294103917E+03  0.80778565678E+02 0.  0.
          5    1    5    5  501    0  0.21360661691E+02 -0.28682248426E+02  0.60470313903E+02  0.70410923202E+02  0.47000000000E+01 0. -1.
        -11    1    6    6    0    0 -0.79834493783E+02  0.62248108731E+02  0.35603758453E+03  0.37015015202E+03  0.00000000000E+00 0.  1.
         12    1    6    6    0    0 -0.29011768236E+02 -0.11705207288E+02  0.30117042811E+03  0.30279088716E+03  0.00000000000E+00 0. -1.
         -5    1    3    3    0  503  0.11151208999E+03 -0.13692907369E+02  0.11602529252E+03  0.16157475183E+03  0.47000000000E+01 0.  1.
         13    1    4    4    0    0 -0.16170110379E+02  0.22685711408E+02  0.65978781139E+02  0.71619225996E+02  0.00000000000E+00 0. -1.
        -14    1    4    4    0    0 -0.78563792846E+01 -0.30853457056E+02 -0.17117636540E+01  0.31883987244E+02  0.00000000000E+00 0.  1.
</event>
<event>
12    1  0.1627564E-001  0.2499090E+03  0.7818608E-02  0.1113412E+00
         21   -1    0    0  501  502  0.00000000000E+00  0.00000000000E+00  0.27765033407E+03  0.27765033407E+03  0.00000000000E+00 0.  1.
         21   -1    0    0  502  503 -0.00000000000E+00 -0.00000000000E+00 -0.23510410436E+03  0.23510410436E+03  0.00000000000E+00 0. -1.
         -6    2    1    2    0  503 -0.11913046527E+03  0.13636528898E+03  0.75308555939E+02  0.26070708109E+03  0.17178254783E+03 0.  0.
        -24    2    3    3    0    0 -0.11624511197E+03  0.87828994202E+02 -0.68152077385E+01  0.16515343263E+03  0.77474840904E+02 0.  0.
          6    2    1    2  501    0  0.11913046527E+03 -0.13636528898E+03 -0.32762326228E+02  0.25204735735E+03  0.17224093745E+03 0.  0.
         24    2    5    5    0    0 -0.53466189859E+01 -0.75848383152E+02 -0.19373100815E+01  0.11017025555E+03  0.79700492315E+02 0.  0.
          5    1    5    5  501    0  0.12447708425E+03 -0.60516905828E+02 -0.30825016146E+02  0.14187710180E+03  0.47000000000E+01 0. -1.
        -11    1    6    6    0    0 -0.35775128530E+02 -0.19200761137E+02 -0.17177353009E+02  0.44086171369E+02  0.00000000000E+00 0.  1.
         12    1    6    6    0    0  0.30428509544E+02 -0.56647622015E+02  0.15240042928E+02  0.66084084177E+02  0.00000000000E+00 0. -1.
         -5    1    3    3    0  503 -0.28853533011E+01  0.48536294778E+02  0.82123763678E+02  0.95553648465E+02  0.47000000000E+01 0.  1.
         11    1    4    4    0    0 -0.46947019814E+02  0.81113405913E+02  0.76933044989E+01  0.94035069109E+02  0.00000000000E+00 0. -1.
        -12    1    4    4    0    0 -0.69298092151E+02  0.67155882888E+01 -0.14508512237E+02  0.71118363516E+02  0.00000000000E+00 0.  1.
</event>
<event>
12    1  0.1627564E-001  0.1820633E+03  0.7818608E-02  0.1166018E+00
         21   -1    0    0  503  502  0.00000000000E+00  0.00000000000E+00  0.11957056126E+03  0.11957056126E+03  0.00000000000E+00 0.  1.
         21   -1    0    0  501  503 -0.00000000000E+00 -0.00000000000E+00 -0.63138168853E+03  0.63138168853E+03  0.00000000000E+00 0.  1.
          6    2    1    2  501    0 -0.28092680870E+02  0.51434301405E+02 -0.53736371912E+03  0.56710456504E+03  0.17150258011E+03 0.  0.
         24    2    3    3    0    0 -0.31540907372E+02  0.59235972895E+02 -0.54492438343E+03  0.55477533194E+03  0.79557249513E+02 0.  0.
         -6    2    1    2    0  502  0.28092680870E+02 -0.51434301405E+02  0.25552591852E+02  0.18384768475E+03  0.17237270711E+03 0.  0.
        -24    2    5    5    0    0 -0.16080010845E+02  0.27350487694E+02  0.14231541612E+02  0.92696569203E+02  0.85927302061E+02 0.  0.
          5    1    3    3  501    0  0.34482265024E+01 -0.78016714899E+01  0.75606643097E+01  0.12329233101E+02  0.47000000000E+01 0. -1.
        -11    1    4    4    0    0 -0.43435908635E+02  0.70240256709E+02 -0.37013747401E+03  0.37923887127E+03  0.00000000000E+00 0.  1.
         12    1    4    4    0    0  0.11895001263E+02 -0.11004283814E+02 -0.17478690942E+03  0.17553646067E+03  0.00000000000E+00 0. -1.
         -5    1    5    5    0  502  0.44172691715E+02 -0.78784789099E+02  0.11321050240E+02  0.91151115546E+02  0.47000000000E+01 0.  1.
         11    1    6    6    0    0  0.45103778384E+01  0.48368520455E+02  0.32143587227E+02  0.58250042739E+02  0.00000000000E+00 0. -1.
        -12    1    6    6    0    0 -0.20590388683E+02 -0.21018032762E+02 -0.17912045614E+02  0.34446526464E+02  0.00000000000E+00 0.  1.
</event>
<event>
12    1  0.1627564E-001  0.1937144E+03  0.7818608E-02  0.1155294E+00
         21   -1    0    0  501  502  0.00000000000E+00  0.00000000000E+00  0.28538365702E+02  0.28538365702E+02  0.00000000000E+00 0.  1.
         21   -1    0    0  502  503 -0.00000000000E+00 -0.00000000000E+00 -0.13107667549E+04  0.13107667549E+04  0.00000000000E+00 0.  1.
         -6    2    1    2    0  503  0.55652641072E+02 -0.68401471936E+02 -0.63411176362E+03  0.66304071353E+03  0.17247979943E+03 0.  0.
        -24    2    3    3    0    0  0.59129067364E+01  0.22708246364E+02 -0.37999860795E+03  0.38850363438E+03  0.77366045299E+02 0.  0.
          6    2    1    2  501    0 -0.55652641072E+02  0.68401471936E+02 -0.64811662555E+03  0.67626440705E+03  0.17176265631E+03 0.  0.
         24    2    5    5    0    0 -0.14608779599E+02  0.69991931950E+02 -0.20399909795E+03  0.23022674446E+03  0.79223954201E+02 0.  0.
          5    1    5    5  501    0 -0.41043861473E+02 -0.15904600145E+01 -0.44411752759E+03  0.44603766258E+03  0.47000000000E+01 0. -1.
        -11    1    6    6    0    0 -0.21980854216E+02  0.74008309342E+02 -0.20729721505E+03  0.22120696908E+03  0.00000000000E+00 0.  1.
         12    1    6    6    0    0  0.73720746166E+01 -0.40163773914E+01  0.32981170946E+01  0.90197753782E+01  0.00000000000E+00 0. -1.
         -5    1    3    3    0  503  0.49739734336E+02 -0.91109718300E+02 -0.25411315567E+03  0.27453707914E+03  0.47000000000E+01 0.  1.
         13    1    4    4    0    0 -0.11139125309E+02  0.37085942921E+01 -0.52063534291E+01  0.12842892988E+02  0.00000000000E+00 0. -1.
        -14    1    4    4    0    0  0.17052032046E+02  0.18999652072E+02 -0.37479225452E+03  0.37566074139E+03  0.00000000000E+00 0.  1.
</event>
<event>
12    1  0.1627564E-001  0.3192417E+03  0.7818608E-02  0.1076059E+00
         21   -1    0    0  501  502  0.00000000000E+00  0.00000000000E+00  0.49807391497E+03  0.49807391497E+03  0.00000000000E+00 0.  1.
         21   -1    0    0  502  503 -0.00000000000E+00 -0.00000000000E+00 -0.56876205504E+03  0.56876205504E+03  0.00000000000E+00 0.  1.
         -6    2    1    2    0  503 -0.25616329364E+02 -0.26711989053E+03 -0.46234171377E+03  0.56155605900E+03  0.17197707657E+03 0.  0.
        -24    2    3    3    0    0 -0.68130989074E+02 -0.13392755752E+03 -0.31585803176E+03  0.35900420648E+03  0.80865949031E+02 0.  0.
          6    2    1    2  501    0  0.25616329364E+02  0.26711989053E+03  0.39165357370E+03  0.50527991102E+03  0.17293361281E+03 0.  0.
         24    2    5    5    0    0  0.52206210052E+01  0.20766205979E+03  0.38186189546E+03  0.44148974313E+03  0.77096693377E+02 0.  0.
          5    1    5    5  501    0  0.20395708359E+02  0.59457830738E+02  0.97916782409E+01  0.63790167881E+02  0.47000000000E+01 0. -1.
        -11    1    6    6    0    0 -0.24039793880E+02  0.12564277608E+03  0.17264130832E+03  0.21486982154E+03  0.00000000000E+00 0.  1.
         12    1    6    6    0    0  0.29260414885E+02  0.82019283706E+02  0.20922058714E+03  0.22661992159E+03  0.00000000000E+00 0. -1.
         -5    1    3    3    0  503  0.42514659709E+02 -0.13319233301E+03 -0.14648368201E+03  0.20255185252E+03  0.47000000000E+01 0.  1.
         13    1    4    4    0    0  0.82253234575E-01 -0.23730608974E+02 -0.81068659605E+01  0.25077277435E+02  0.00000000000E+00 0. -1.
        -14    1    4    4    0    0 -0.68213242308E+02 -0.11019694855E+03 -0.30775116580E+03  0.33392692905E+03  0.00000000000E+00 0.  1.
</event>
<event>
12    1  0.1627564E-001  0.1928005E+03  0.7818608E-02  0.1156088E+00
         21   -1    0    0  503  502  0.00000000000E+00  0.00000000000E+00  0.49015546090E+03  0.49015546090E+03  0.00000000000E+00 0.  1.
         21   -1    0    0  501  503 -0.00000000000E+00 -0.00000000000E+00 -0.12386019105E+03  0.12386019105E+03  0.00000000000E+00 0.  1.
          6    2    1    2  501    0  0.86471059389E+02 -0.88917464829E+01 -0.83010360266E+01  0.19297912324E+03  0.17209220650E+03 0.  0.
         24    2    3    3    0    0  0.10809870373E+03 -0.16495677413E+02 -0.51893245889E+02  0.14350240623E+03  0.77088225449E+02 0.  0.
         -6    2    1    2    0  502 -0.86471059389E+02  0.88917464829E+01  0.37459630588E+03  0.42103652871E+03  0.17144404004E+03 0.  0.
        -24    2    5    5    0    0 -0.75464520352E+02  0.51631379583E+02  0.15345985655E+03  0.19548999391E+03  0.79408544613E+02 0.  0.
          5    1    3    3  501    0 -0.21627644340E+02  0.76039309299E+01  0.43592209863E+02  0.49476717009E+02  0.47000000000E+01 0. -1.
        -13    1    4    4    0    0  0.53928526528E+02  0.23810207275E+02 -0.10159444467E+01  0.58959681877E+02  0.00000000000E+00 0.  1.
         14    1    4    4    0    0  0.54170177201E+02 -0.40305884688E+02 -0.50877301443E+02  0.84542724350E+02  0.00000000000E+00 0. -1.
         -5    1    5    5    0  502 -0.11006539038E+02 -0.42739633100E+02  0.22113644933E+03  0.22554653480E+03  0.47000000000E+01 0.  1.
         11    1    6    6    0    0  0.10284202873E+02  0.24310713145E+02  0.15024020101E+02  0.30372632127E+02  0.00000000000E+00 0. -1.
        -12    1    6    6    0    0 -0.85748723225E+02  0.27320666438E+02  0.13843583645E+03  0.16511736178E+03  0.00000000000E+00 0.  1.
</event>
<event>
12    1  0.1627564E-001  0.1950937E+03  0.7818608E-02  0.1154099E+00
         21   -1    0    0  501  502  0.00000000000E+00  0.00000000000E+00  0.13570662741E+03  0.13570662741E+03  0.00000000000E+00 0.  1.
         21   -1    0    0  502  503 -0.00000000000E+00 -0.00000000000E+00 -0.31008779668E+03  0.31008779668E+03  0.00000000000E+00 0.  1.
         -6    2    1    2    0  503 -0.65908836904E+01 -0.92003742557E+02 -0.15709877270E+03  0.24993677426E+03  0.17111469357E+03 0.  0.
        -24    2    3    3    0    0 -0.15042301438E+02  0.18047120575E+02 -0.64230516397E+02  0.10561344986E+03  0.80477774333E+02 0.  0.
          6    2    1    2  501    0  0.65908836904E+01  0.92003742557E+02 -0.17282396571E+02  0.19585764983E+03  0.17191105076E+03 0.  0.
         24    2    5    5    0    0 -0.96276484380E+01  0.93932641107E+02 -0.68918211003E+02  0.14149673771E+03  0.79721855820E+02 0.  0.
          5    1    5    5  501    0  0.16218532128E+02 -0.19288985499E+01  0.51635814432E+02  0.54360912116E+02  0.47000000000E+01 0. -1.
        -13    1    6    6    0    0  0.57225518403E+01  0.31673160495E+02  0.15306221508E+02  0.35640105390E+02  0.00000000000E+00 0.  1.
         14    1    6    6    0    0 -0.15350200278E+02  0.62259480612E+02 -0.84224432511E+02  0.10585663232E+03  0.00000000000E+00 0. -1.
         -5    1    3    3    0  503  0.84514177478E+01 -0.11005086313E+03 -0.92868256300E+02  0.14432332440E+03  0.47000000000E+01 0.  1.
         13    1    4    4    0    0  0.32708850146E+02  0.27322304500E+01 -0.18135160870E+02  0.37499573609E+02  0.00000000000E+00 0. -1.
        -14    1    4    4    0    0 -0.47751151584E+02  0.15314890125E+02 -0.46095355527E+02  0.68113876254E+02  0.00000000000E+00 0.  1.
</event>
<event>
12    1  0.1627564E-001  0.1797055E+03  0.7818608E-02  0.1168342E+00
         21   -1    0    0  501  502  0.00000000000E+00  0.00000000000E+00  0.26902473147E+03  0.26902473147E+03  0.00000000000E+00 0.  1.
         21   -1    0    0  502  503 -0.00000000000E+00 -0.00000000000E+00 -0.12231014158E+03  0.12231014158E+03  0.00000000000E+00 0.  1.
         -6    2    1    2    0  503  0.27955831559E+02 -0.40259978156E+02  0.10361039066E+03  0.20653220993E+03  0.17180816722E+03 0.  0.
        -24    2    3    3    0    0 -0.28968285666E+00  0.21466235941E+02  0.14821461752E+02  0.94668460265E+02  0.91003068294E+02 0.  0.
          6    2    1    2  501    0 -0.27955831559E+02  0.40259978156E+02  0.43104199238E+02  0.18480266312E+03  0.17289204131E+03 0.  0.
         24    2    5    5    0    0  0.26162393327E+02  0.54524507639E+02 -0.17170083143E+02  0.10241735993E+03  0.80852403192E+02 0.  0.
          5    1    5    5  501    0 -0.54118224886E+02 -0.14264529483E+02  0.60274282380E+02  0.82385303196E+02  0.47000000000E+01 0. -1.
        -13    1    6    6    0    0  0.45543689988E+02  0.48989479227E+02  0.10990765173E+02  0.67786382789E+02  0.00000000000E+00 0.  1.
         14    1    6    6    0    0 -0.19381296661E+02  0.55350284119E+01 -0.28160848316E+02  0.34630977139E+02  0.00000000000E+00 0. -1.
         -5    1    3    3    0  503  0.28245514416E+02 -0.61726214097E+02  0.88788928908E+02  0.11186374966E+03  0.47000000000E+01 0.  1.
         13    1    4    4    0    0  0.25956989668E+02  0.45289017612E+02  0.24875401819E+02  0.57824268647E+02  0.00000000000E+00 0. -1.
        -14    1    4    4    0    0 -0.26246672525E+02 -0.23822781671E+02 -0.10053940066E+02  0.36844191619E+02  0.00000000000E+00 0.  1.
</event>
<event>
12    1  0.1627564E-001  0.1989147E+03  0.7818608E-02  0.1150716E+00
         21   -1    0    0  501  502  0.00000000000E+00  0.00000000000E+00  0.10572888161E+03  0.10572888161E+03  0.00000000000E+00 0.  1.
         21   -1    0    0  502  503 -0.00000000000E+00 -0.00000000000E+00 -0.84003515603E+03  0.84003515603E+03  0.00000000000E+00 0.  1.
         -6    2    1    2    0  503 -0.39934353778E+02 -0.92196381218E+02 -0.71959047662E+03  0.74657720718E+03  0.17167453777E+03 0.  0.
        -24    2    3    3    0    0 -0.48190894448E+02 -0.90016055893E+02 -0.72417246248E+03  0.73580646548E+03  0.80994731959E+02 0.  0.
          6    2    1    2  501    0  0.39934353778E+02  0.92196381218E+02 -0.14715797802E+02  0.19918683046E+03  0.17135901903E+03 0.  0.
         24    2    5    5    0    0 -0.28022481249E+02  0.53810090344E+02 -0.52928820389E+02  0.11215830727E+03  0.78084829407E+02 0.  0.
          5    1    5    5  501    0  0.67956835027E+02  0.38386290874E+02  0.38213022587E+02  0.87028523193E+02  0.47000000000E+01 0. -1.
        -13    1    6    6    0    0 -0.38060368454E+02  0.52504848080E+02 -0.71130025545E+01  0.65237608204E+02  0.00000000000E+00 0.  1.
         14    1    6    6    0    0  0.10037887205E+02  0.13052422637E+01 -0.45815817835E+02  0.46920699065E+02  0.00000000000E+00 0. -1.
         -5    1    3    3    0  503  0.82565406696E+01 -0.21803253250E+01  0.45819858587E+01  0.10770741700E+02  0.47000000000E+01 0.  1.
         11    1    4    4    0    0  0.14892907027E+02  0.27210176145E+01 -0.15145869593E+03  0.15221346586E+03  0.00000000000E+00 0. -1.
        -12    1    4    4    0    0 -0.63083801475E+02 -0.92737073508E+02 -0.57271376655E+03  0.58359299963E+03  0.00000000000E+00 0.  1.
</event>
<event>
12    1  0.1627564E-001  0.1843145E+03  0.7818608E-02  0.1164158E+00
         21   -1    0    0  503  502  0.00000000000E+00  0.00000000000E+00  0.25522750695E+03  0.25522750695E+03  0.00000000000E+00 0. -1.
         21   -1    0    0  501  503 -0.00000000000E+00 -0.00000000000E+00 -0.16645987182E+03  0.16645987182E+03  0.00000000000E+00 0. -1.
          6    2    1    2  501    0  0.64959831625E+02  0.16073887047E+02 -0.52178570418E+02  0.18965789331E+03  0.16961534045E+03 0.  0.
         24    2    3    3    0    0  0.66312178171E+02 -0.22555980339E+02  0.20123228186E+02  0.10753764260E+03  0.79077955464E+02 0.  0.
         -6    2    1    2    0  502 -0.64959831625E+02 -0.16073887047E+02  0.14094620555E+03  0.23202948546E+03  0.17173729849E+03 0.  0.
        -24    2    5    5    0    0  0.17255692017E+02 -0.32180777591E+02  0.12892305231E+03  0.14726233106E+03  0.61087473183E+02 0.  0.
          5    1    3    3  501    0 -0.13523465467E+01  0.38629867387E+02 -0.72301798604E+02  0.82120250711E+02  0.47000000000E+01 0. -1.
        -11    1    4    4    0    0  0.76928303700E+02 -0.12729618552E+02 -0.54413866959E+01  0.78164031292E+02  0.00000000000E+00 0.  1.
         12    1    4    4    0    0 -0.10616125529E+02 -0.98263617872E+01  0.25564614881E+02  0.29373611308E+02  0.00000000000E+00 0. -1.
         -5    1    5    5    0  502 -0.82215523641E+02  0.16106890544E+02  0.12023153239E+02  0.84767154396E+02  0.47000000000E+01 0.  1.
         11    1    6    6    0    0 -0.56756849579E+01 -0.14431283442E+02  0.11323621111E+03  0.11429310936E+03  0.00000000000E+00 0. -1.
        -12    1    6    6    0    0  0.22931376975E+02 -0.17749494150E+02  0.15686841197E+02  0.32969221696E+02  0.00000000000E+00 0.  1.
</event>
<event>
12    1  0.1627564E-001  0.2282969E+03  0.7818608E-02  0.1128204E+00
         21   -1    0    0  501  502  0.00000000000E+00  0.00000000000E+00  0.52657256191E+03  0.52657256191E+03  0.00000000000E+00 0. -1.
         21   -1    0    0  502  503 -0.00000000000E+00 -0.00000000000E+00 -0.11249009684E+03  0.11249009684E+03  0.00000000000E+00 0. -1.
         -6    2    1    2    0  503 -0.12085769031E+03  0.87277438616E+02  0.93588986350E+02  0.24673543363E+03  0.17290327714E+03 0.  0.
        -24    2    3    3    0    0 -0.12571879863E+03  0.35460362728E+02  0.14934180644E+02  0.15230393365E+03  0.76881758570E+02 0.  0.
          6    2    1    2  501    0  0.12085769031E+03 -0.87277438616E+02  0.32049347873E+03  0.39232722511E+03  0.17023703787E+03 0.  0.
         24    2    5    5    0    0  0.26955704649E+02 -0.30194340734E+02  0.23925187622E+03  0.25558531145E+03  0.80275045487E+02 0.  0.
          5    1    5    5  501    0  0.93901985664E+02 -0.57083097883E+02  0.81241602507E+02  0.13674191367E+03  0.47000000000E+01 0. -1.
        -11    1    6    6    0    0  0.21155333428E+02  0.90381391631E+01  0.14132561450E+02  0.26999358976E+02  0.00000000000E+00 0.  1.
         12    1    6    6    0    0  0.58003712210E+01 -0.39232479897E+02  0.22511931477E+03  0.22858595247E+03  0.00000000000E+00 0. -1.
         -5    1    3    3    0  503  0.48611083193E+01  0.51817075889E+02  0.78654805706E+02  0.94431499979E+02  0.47000000000E+01 0.  1.
         11    1    4    4    0    0 -0.12482694178E+03  0.49492946658E+02  0.22784456903E+02  0.13620003171E+03  0.00000000000E+00 0. -1.
        -12    1    4    4    0    0 -0.89185685583E+00 -0.14032583930E+02 -0.78502762588E+01  0.16103901942E+02  0.00000000000E+00 0.  1.
</event>
<event>
12    1  0.1627564E-001  0.2381615E+03  0.7818608E-02  0.1121196E+00
         21   -1    0    0  501  502  0.00000000000E+00  0.00000000000E+00  0.74850472597E+02  0.74850472597E+02  0.00000000000E+00 0.  1.
         21   -1    0    0  502  503 -0.00000000000E+00 -0.00000000000E+00 -0.86492723706E+03  0.86492723706E+03  0.00000000000E+00 0.  1.
         -6    2    1    2    0  503 -0.39084074358E+02 -0.16079213653E+03 -0.56364983505E+03  0.61190035911E+03  0.17128700154E+03 0.  0.
        -24    2    3    3    0    0 -0.87426010799E+02 -0.72040454227E+02 -0.39777160819E+03  0.41760295801E+03  0.57765420857E+02 0.  0.
          6    2    1    2  501    0  0.39084074358E+02  0.16079213653E+03 -0.22642692941E+03  0.32787735054E+03  0.16986090367E+03 0.  0.
         24    2    5    5    0    0 -0.39730811232E+02  0.10678754952E+03 -0.95678115493E+02  0.16587233843E+03  0.73329480961E+02 0.  0.
          5    1    5    5  501    0  0.78814885590E+02  0.54004587013E+02 -0.13074881392E+03  0.16200501212E+03  0.47000000000E+01 0. -1.
        -11    1    6    6    0    0 -0.38522627272E+02  0.15440305986E+02 -0.15432499398E+02  0.44278187616E+02  0.00000000000E+00 0.  1.
         12    1    6    6    0    0 -0.12081839601E+01  0.91347243530E+02 -0.80245616095E+02  0.12159415081E+03  0.00000000000E+00 0. -1.
         -5    1    3    3    0  503  0.48341936441E+02 -0.88751682302E+02 -0.16587822686E+03  0.19429740110E+03  0.47000000000E+01 0.  1.
         13    1    4    4    0    0  0.27646729046E+00  0.76272924236E+01 -0.40013237347E+02  0.40734643571E+02  0.00000000000E+00 0. -1.
        -14    1    4    4    0    0 -0.87702478089E+02 -0.79667746651E+02 -0.35775837084E+03  0.37686831444E+03  0.00000000000E+00 0.  1.
</event>
<event>
12    1  0.1627564E-001  0.1888129E+03  0.7818608E-02  0.1160228E+00
         21   -1    0    0  503  502  0.00000000000E+00  0.00000000000E+00  0.14538398515E+03  0.14538398515E+03  0.00000000000E+00 0.  1.
         21   -1    0    0  501  503 -0.00000000000E+00 -0.00000000000E+00 -0.88903382569E+03  0.88903382569E+03  0.00000000000E+00 0.  1.
          6    2    1    2  501    0  0.75922486387E+02  0.11026669213E+02 -0.81410357962E+03  0.83571223963E+03  0.17252390484E+03 0.  0.
         24    2    3    3    0    0 -0.23388041787E+02  0.19474375820E+02 -0.29894047699E+03  0.31097510823E+03  0.80086561582E+02 0.  0.
         -6    2    1    2    0  502 -0.75922486387E+02 -0.11026669213E+02  0.70453739079E+02  0.19870557121E+03  0.16921691200E+03 0.  0.
        -24    2    5    5    0    0 -0.10862344714E+02 -0.57586448567E+02  0.12166608065E+02  0.99609079192E+02  0.79622564104E+02 0.  0.
          5    1    3    3  501    0  0.99310528174E+02 -0.84477066063E+01 -0.51516310263E+03  0.52473713140E+03  0.47000000000E+01 0. -1.
        -13    1    4    4    0    0 -0.37958059670E+01  0.27089288315E+02 -0.28368953231E+03  0.28500524281E+03  0.00000000000E+00 0.  1.
         14    1    4    4    0    0 -0.19592235820E+02 -0.76149124952E+01 -0.15250944679E+02  0.25969865427E+02  0.00000000000E+00 0. -1.
         -5    1    5    5    0  502 -0.65060141673E+02  0.46559779354E+02  0.58287131015E+02  0.99096492016E+02  0.47000000000E+01 0.  1.
         11    1    6    6    0    0 -0.13339124303E+02 -0.59851334125E+01 -0.29706619872E+02  0.33109474827E+02  0.00000000000E+00 0. -1.
        -12    1    6    6    0    0  0.24767795885E+01 -0.51601315155E+02  0.41873227937E+02  0.66499604365E+02  0.00000000000E+00 0.  1.
</event>
<event>
12    1  0.1627564E-001  0.2496467E+03  0.7818608E-02  0.1113569E+00
         21   -1    0    0  503  502  0.00000000000E+00  0.00000000000E+00  0.22609241926E+03  0.22609241926E+03  0.00000000000E+00 0.  1.
         21   -1    0    0  501  503 -0.00000000000E+00 -0.00000000000E+00 -0.98661089941E+03  0.98661089941E+03  0.00000000000E+00 0.  1.
          6    2    1    2  501    0 -0.91400042414E+02 -0.15635237807E+03 -0.89502933262E+03  0.92912506519E+03  0.17145217008E+03 0.  0.
         24    2    3    3    0    0 -0.24058826144E+00 -0.37730462536E+02 -0.22455579982E+03  0.24214758877E+03  0.82380227149E+02 0.  0.
         -6    2    1    2    0  502  0.91400042414E+02  0.15635237807E+03  0.13451085247E+03  0.28357825348E+03  0.17182381247E+03 0.  0.
        -24    2    5    5    0    0  0.30515867256E+02  0.83125194821E+02  0.14061696318E+03  0.18803518602E+03  0.87994799168E+02 0.  0.
          5    1    3    3  501    0 -0.91159454152E+02 -0.11862191553E+03 -0.67047353280E+03  0.68697747642E+03  0.47000000000E+01 0. -1.
        -11    1    4    4    0    0 -0.89837554184E+01  0.16619586548E+01 -0.18636601533E+03  0.18658982190E+03  0.00000000000E+00 0.  1.
         12    1    4    4    0    0  0.87431671570E+01 -0.39392421191E+02 -0.38189784495E+02  0.55557766865E+02  0.00000000000E+00 0. -1.
         -5    1    5    5    0  502  0.60884175157E+02  0.73227183249E+02 -0.61061107043E+01  0.95543067457E+02  0.47000000000E+01 0.  1.
         13    1    6    6    0    0  0.37098571948E+02  0.61710761056E+01  0.14825481853E+02  0.40425006284E+02  0.00000000000E+00 0. -1.
        -14    1    6    6    0    0 -0.65827046920E+01  0.76954118716E+02  0.12579148133E+03  0.14761017974E+03  0.00000000000E+00 0.  1.
</event>
<event>
12    1  0.1627564E-001  0.2105101E+03  0.7818608E-02  0.1141181E+00
         21   -1    0    0  501  502  0.00000000000E+00  0.00000000000E+00  0.17163110139E+03  0.17163110139E+03  0.00000000000E+00 0. -1.
         21   -1    0    0  502  503 -0.00000000000E+00 -0.00000000000E+00 -0.34944644302E+03  0.34944644302E+03  0.00000000000E+00 0. -1.
         -6    2    1    2    0  503  0.90454112861E+02  0.80339354151E+02 -0.22213970076E+03  0.30604012238E+03  0.17227347880E+03 0.  0.
        -24    2    3    3    0    0  0.42189366731E+02  0.10619319471E+03 -0.20696819905E+03  0.24902984915E+03  0.78250195398E+02 0.  0.
          6    2    1    2  501    0 -0.90454112861E+02 -0.80339354151E+02  0.44324359128E+02  0.21503742203E+03  0.17216296263E+03 0.  0.
         24    2    5    5    0    0 -0.36152895197E+02  0.18269331159E+02 -0.86975667665E+01  0.90515497519E+02  0.80477371548E+02 0.  0.
          5    1    5    5  501    0 -0.54301217664E+02 -0.98608685310E+02  0.53021925895E+02  0.12452192451E+03  0.47000000000E+01 0. -1.
        -11    1    6    6    0    0 -0.29530416579E+02 -0.17954167119E+02 -0.31866436735E+02  0.47009226865E+02  0.00000000000E+00 0.  1.
         12    1    6    6    0    0 -0.66224786186E+01  0.36223498279E+02  0.23168869969E+02  0.43506270654E+02  0.00000000000E+00 0. -1.
         -5    1    3    3    0  503  0.48264746130E+02 -0.25853840556E+02 -0.15171501707E+02  0.57010273237E+02  0.47000000000E+01 0.  1.
         11    1    4    4    0    0  0.32999141718E+02  0.65398735698E+02 -0.19047994683E+03  0.20407975924E+03  0.00000000000E+00 0. -1.
        -12    1    4    4    0    0  0.91902250134E+01  0.40794459009E+02 -0.16488252220E+02  0.44950089910E+02  0.00000000000E+00 0.  1.
</event>
<event>
12    1  0.1627564E-001  0.2230107E+03  0.7818608E-02  0.1131806E+00
         21   -1    0    0  501  502  0.00000000000E+00  0.00000000000E+00  0.13031174124E+03  0.13031174124E+03  0.00000000000E+00 0. -1.
         21   -1    0    0  502  503 -0.00000000000E+00 -0.00000000000E+00 -0.38031661426E+03  0.38031661426E+03  0.00000000000E+00 0.  1.
         -6    2    1    2    0  503  0.32249605083E+02  0.13935665544E+03 -0.12208826187E+03  0.25353609728E+03  0.17004321360E+03 0.  0.
        -24    2    3    3    0    0 -0.38018168907E+02  0.34915246608E+02 -0.24854527358E+02  0.94407039377E+02  0.75036564028E+02 0.  0.
          6    2    1    2  501    0 -0.32249605083E+02 -0.13935665544E+03 -0.12791661115E+03  0.25709225823E+03  0.17109487249E+03 0.  0.
         24    2    5    5    0    0  0.52923651626E+01 -0.19095086367E+02 -0.71430118381E+01  0.82505326258E+02  0.79771390802E+02 0.  0.
          5    1    5    5  501    0 -0.37541970246E+02 -0.12026156907E+03 -0.12077359931E+03  0.17458693197E+03  0.47000000000E+01 0. -1.
        -11    1    6    6    0    0 -0.33501154167E+02  0.70355701721E+01  0.38784717006E+01  0.34450966908E+02  0.00000000000E+00 0.  1.
         12    1    6    6    0    0  0.38793519329E+02 -0.26130656539E+02 -0.11021483539E+02  0.48054359350E+02  0.00000000000E+00 0. -1.
         -5    1    3    3    0  503  0.70267773990E+02  0.10444140883E+03 -0.97233734517E+02  0.15912905790E+03  0.47000000000E+01 0.  1.
         13    1    4    4    0    0  0.30216755983E+01  0.27751742393E+01  0.23169515357E+02  0.23529950220E+02  0.00000000000E+00 0. -1.
        -14    1    4    4    0    0 -0.41039844505E+02  0.32140072368E+02 -0.48024042714E+02  0.70877089158E+02  0.00000000000E+00 0.  1.
</event>
<event>
12    1  0.1627564E-001  0.1711712E+03  0.7818608E-02  0.1176652E+00
         21   -1    0    0  501  502  0.00000000000E+00  0.00000000000E+00  0.32434184909E+03  0.32434184909E+03  0.00000000000E+00 0. -1.
         21   -1    0    0  502  503 -0.00000000000E+00 -0.00000000000E+00 -0.97965315292E+02  0.97965315292E+02  0.00000000000E+00 0. -1.
         -6    2    1    2    0  503  0.77871563920E+01  0.29259379159E+01  0.54080502293E+02  0.17943784486E+03  0.17089189133E+03 0.  0.
        -24    2    3    3    0    0 -0.35777698524E+02  0.86339796916E+01  0.87665563509E+02  0.12393537049E+03  0.79499281225E+02 0.  0.
          6    2    1    2  501    0 -0.77871563920E+01 -0.29259379159E+01  0.17229603151E+03  0.24286931952E+03  0.17096895325E+03 0.  0.
         24    2    5    5    0    0 -0.66705101859E+02 -0.11781751613E+02  0.13524172247E+03  0.17254960996E+03  0.83034114177E+02 0.  0.
          5    1    5    5  501    0  0.58917945467E+02  0.88558136969E+01  0.37054309041E+02  0.70319709562E+02  0.47000000000E+01 0. -1.
        -13    1    6    6    0    0 -0.19711227438E+02 -0.29012519373E+02  0.82250753214E+01  0.36026526776E+02  0.00000000000E+00 0.  1.
         14    1    6    6    0    0 -0.46993874421E+02  0.17230767760E+02  0.12701664715E+03  0.13652308319E+03  0.00000000000E+00 0. -1.
         -5    1    3    3    0  503  0.43564854916E+02 -0.57080417757E+01 -0.33585061216E+02  0.55502474374E+02  0.47000000000E+01 0.  1.
         13    1    4    4    0    0  0.14010133247E+01 -0.31404200767E+02  0.21300227270E+02  0.37972178577E+02  0.00000000000E+00 0. -1.
        -14    1    4    4    0    0 -0.37178711849E+02  0.40038180458E+02  0.66365336239E+02  0.85963191909E+02  0.00000000000E+00 0.  1.
</event>
<event>
12    1  0.1627564E-001  0.2021346E+03  0.7818608E-02  0.1148709E+00
         21   -1    0    0  503  502  0.00000000000E+00  0.00000000000E+00  0.21461437369E+03  0.21461437369E+03  0.00000000000E+00 0. -1.
         21   -1    0    0  501  503 -0.00000000000E+00 -0.00000000000E+00 -0.19393901781E+03  0.19393901781E+03  0.00000000000E+00 0.  1.
          6    2    1    2  501    0 -0.87235287003E+02  0.54491587893E+02 -0.28411367803E+02  0.20054398009E+03  0.16979797903E+03 0.  0.
         24    2    3    3    0    0 -0.87151783170E+02  0.68999606751E+02 -0.70767196846E+02  0.15552625205E+03  0.82607747133E+02 0.  0.
         -6    2    1    2    0  502  0.87235287003E+02 -0.54491587893E+02  0.49086723684E+02  0.20800941140E+03  0.17400885133E+03 0.  0.
        -24    2    5    5    0    0  0.11599359517E+03 -0.64168925468E+01  0.51197047821E+02  0.15175321095E+03  0.83139693882E+02 0.  0.
          5    1    3    3  501    0 -0.83503833150E-01 -0.14508018858E+02  0.42355829043E+02  0.45017728041E+02  0.47000000000E+01 0. -1.
        -13    1    4    4    0    0 -0.46973475804E+02  0.64378143897E+02 -0.81184636418E+02  0.11376290270E+03  0.00000000000E+00 0.  1.
         14    1    4    4    0    0 -0.40178307366E+02  0.46214628537E+01  0.10417439572E+02  0.41763349350E+02  0.00000000000E+00 0. -1.
         -5    1    5    5    0  502 -0.28758308166E+02 -0.48074695346E+02 -0.21103241366E+01  0.56256200450E+02  0.47000000000E+01 0.  1.
         11    1    6    6    0    0  0.75144682405E+02 -0.43284288780E+02  0.40442921345E+02  0.95686377483E+02  0.00000000000E+00 0. -1.
        -12    1    6    6    0    0  0.40848912764E+02  0.36867396233E+02  0.10754126475E+02  0.56066833470E+02  0.00000000000E+00 0.  1.
</event>
<event>
12    1  0.1627564E-001  0.1782051E+03  0.7818608E-02  0.1170220E+00
         21   -1    0    0  503  502  0.00000000000E+00  0.00000000000E+00  0.92513248961E+02  0.92513248961E+02  0.00000000000E+00 0. -1.
         21   -1    0    0  501  503 -0.00000000000E+00 -0.00000000000E+00 -0.34840614909E+03  0.34840614909E+03  0.00000000000E+00 0. -1.
          6    2    1    2  501    0 -0.35620977098E+02  0.27791059595E+02 -0.89040659177E+02  0.19679497117E+03  0.16958427017E+03 0.  0.
         24    2    3    3    0    0  0.44008153623E+02  0.29613203674E+02 -0.55933846180E+02  0.11041054124E+03  0.79045765548E+02 0.  0.
         -6    2    1    2    0  502  0.35620977098E+02 -0.27791059595E+02 -0.16685224096E+03  0.24412442688E+03  0.17238291239E+03 0.  0.
        -24    2    5    5    0    0 -0.40679353105E+02 -0.35430244967E+02 -0.70953633343E+02  0.12124753530E+03  0.82197534662E+02 0.  0.
          5    1    3    3  501    0 -0.79629130721E+02 -0.18221440794E+01 -0.33106812997E+02  0.86384429935E+02  0.47000000000E+01 0. -1.
        -13    1    4    4    0    0 -0.56245175847E+01 -0.11384052087E+02 -0.42885978029E+02  0.44726266908E+02  0.00000000000E+00 0.  1.
         14    1    4    4    0    0  0.49632671208E+02  0.40997255761E+02 -0.13047868151E+02  0.65684274331E+02  0.00000000000E+00 0. -1.
         -5    1    5    5    0  502  0.76300330203E+02  0.76391853726E+01 -0.95898607612E+02  0.12287689158E+03  0.47000000000E+01 0.  1.
         11    1    6    6    0    0 -0.20878161058E+02 -0.50291262503E+02 -0.78345251682E+02  0.95410099856E+02  0.00000000000E+00 0. -1.
        -12    1    6    6    0    0 -0.19801192047E+02  0.14861017536E+02  0.73916183394E+01  0.25837435445E+02  0.00000000000E+00 0.  1.
</event>
<event>
12    1  0.1627564E-001  0.1760676E+03  0.7818608E-02  0.1172175E+00
         21   -1    0    0  503  502  0.00000000000E+00  0.00000000000E+00  0.31070695182E+02  0.31070695182E+02  0.00000000000E+00 0.  1.
         21   -1    0    0  501  503 -0.00000000000E+00 -0.00000000000E+00 -0.12400948792E+04  0.12400948792E+04  0.00000000000E+00 0.  1.
          6    2    1    2  501    0  0.17223772301E+02  0.32742581579E+02 -0.89489823404E+03  0.91205408288E+03  0.17213676488E+03 0.  0.
         24    2    3    3    0    0 -0.64751090312E+01 -0.38242981860E+02 -0.65850122482E+03  0.66404960074E+03  0.76377722222E+02 0.  0.
         -6    2    1    2    0  502 -0.17223772301E+02 -0.32742581579E+02 -0.31412594995E+03  0.35911149147E+03  0.17005062745E+03 0.  0.
        -24    2    5    5    0    0 -0.49869119857E+02 -0.20211263329E+02 -0.30891448933E+03  0.32344635477E+03  0.79334471816E+02 0.  0.
          5    1    3    3  501    0  0.23698881332E+02  0.70985563439E+02 -0.23639700922E+03  0.24800448214E+03  0.47000000000E+01 0. -1.
        -13    1    4    4    0    0 -0.25541330353E+01 -0.23250504677E+02 -0.63760662054E+03  0.63803551008E+03  0.00000000000E+00 0.  1.
         14    1    4    4    0    0 -0.39209759959E+01 -0.14992477183E+02 -0.20894604280E+02  0.26014090660E+02  0.00000000000E+00 0. -1.
         -5    1    5    5    0  502  0.32645347556E+02 -0.12531318250E+02 -0.52114606197E+01  0.35665136702E+02  0.47000000000E+01 0.  1.
         13    1    6    6    0    0 -0.61620020657E+02 -0.20601473765E+01 -0.13770984059E+03  0.15088164682E+03  0.00000000000E+00 0. -1.
        -14    1    6    6    0    0  0.11750900800E+02 -0.18151115953E+02 -0.17120464874E+03  0.17256470795E+03  0.00000000000E+00 0.  1.
</event>
<event>
12    1  0.1627564E-001  0.1957210E+03  0.7818608E-02  0.1153922E+00
         21   -1    0    0  501  502  0.00000000000E+00  0.00000000000E+00  0.42934608476E+02  0.42934608476E+02  0.00000000000E+00 0.  1.
         21   -1    0    0  502  503 -0.00000000000E+00 -0.00000000000E+00 -0.99680601024E+03  0.99680601024E+03  0.00000000000E+00 0. -1.
         -6    2    1    2    0  503  0.48808206094E+02 -0.72882775655E+02 -0.65644228318E+03  0.68499865943E+03  0.17496443155E+03 0.  0.
        -24    2    3    3    0    0  0.79191120995E+02 -0.25691905012E+02 -0.56408177638E+03  0.57681985834E+03  0.87187102834E+02 0.  0.
          6    2    1    2  501    0 -0.48808206094E+02  0.72882775655E+02 -0.29742911859E+03  0.35474195928E+03  0.17228939934E+03 0.  0.
         24    2    5    5    0    0 -0.26674556329E+02  0.44453143684E+02 -0.56627579008E+02  0.11121451958E+03  0.80463486890E+02 0.  0.
          5    1    5    5  501    0 -0.22133649765E+02  0.28429631971E+02 -0.24080153958E+03  0.24352743970E+03  0.47000000000E+01 0. -1.
        -13    1    6    6    0    0  0.18911568244E+02  0.34991540823E+02 -0.50457736380E+02  0.64249813254E+02  0.00000000000E+00 0.  1.
         14    1    6    6    0    0 -0.45586124573E+02  0.94616028611E+01 -0.61698426284E+01  0.46964706327E+02  0.00000000000E+00 0. -1.
         -5    1    3    3    0  503 -0.30382914901E+02 -0.47190870643E+02 -0.92360506792E+02  0.10817880109E+03  0.47000000000E+01 0.  1.
         11    1    4    4    0    0  0.67465916703E+01 -0.27769116873E+02 -0.34242887629E+03  0.34361923065E+03  0.00000000000E+00 0. -1.
        -12    1    4    4    0    0  0.72444529325E+02  0.20772118611E+01 -0.22165290009E+03  0.23320062769E+03  0.00000000000E+00 0.  1.
</event>
<event>
12    1  0.1627564E-001  0.1730980E+03  0.7818608E-02  0.1174861E+00
         21   -1    0    0  501  502  0.00000000000E+00  0.00000000000E+00  0.36280692739E+02  0.36280692739E+02  0.00000000000E+00 0. -1.
         21   -1    0    0  502  503 -0.00000000000E+00 -0.00000000000E+00 -0.18519647203E+04  0.18519647203E+04  0.00000000000E+00 0. -1.
         -6    2    1    2    0  503 -0.56327186690E+01 -0.10248575997E+02 -0.16109755868E+04  0.16201624912E+04  0.17189355950E+03 0.  0.
        -24    2    3    3    0    0  0.54515079950E+02 -0.13592111970E+02 -0.12774714654E+04  0.12812288311E+04  0.80357535167E+02 0.  0.
          6    2    1    2  501    0  0.56327186690E+01  0.10248575997E+02 -0.20470844078E+03  0.26808292186E+03  0.17270247953E+03 0.  0.
         24    2    5    5    0    0 -0.42520243685E+01 -0.18436182565E+02 -0.21910548012E+03  0.23417291950E+03  0.80447326057E+02 0.  0.
          5    1    5    5  501    0  0.98847430375E+01  0.28684758562E+02  0.14397039335E+02  0.33910002363E+02  0.47000000000E+01 0. -1.
        -13    1    6    6    0    0  0.29869716382E+02  0.13365659018E+02 -0.12399803596E+03  0.12824333792E+03  0.00000000000E+00 0.  1.
         14    1    6    6    0    0 -0.34121740750E+02 -0.31801841583E+02 -0.95107444151E+02  0.10592958158E+03  0.00000000000E+00 0. -1.
         -5    1    3    3    0  503 -0.60147798619E+02  0.33435359729E+01 -0.33350412142E+03  0.33893366005E+03  0.47000000000E+01 0.  1.
         11    1    4    4    0    0  0.26912995123E+01 -0.15409627140E+02 -0.90814466461E+03  0.90827937969E+03  0.00000000000E+00 0. -1.
        -12    1    4    4    0    0  0.51823780437E+02  0.18175151702E+01 -0.36932680075E+03  0.37294945144E+03  0.00000000000E+00 0.  1.
</event>
<event>
12    1  0.1627564E-001  0.1795900E+03  0.7818608E-02  0.1168921E+00
         21   -1    0    0  503  502  0.00000000000E+00  0.00000000000E+00  0.50661706901E+03  0.50661706901E+03  0.00000000000E+00 0.  1.
         21   -1    0    0  501  503 -0.00000000000E+00 -0.00000000000E+00 -0.11209466521E+03  0.11209466521E+03  0.00000000000E+00 0.  1.
          6    2    1    2  501    0  0.23593012961E+02  0.32041950119E+02 -0.91584420401E+01  0.17688507208E+03  0.17210791625E+03 0.  0.
         24    2    3    3    0    0  0.21779296001E+02  0.72742464777E+02 -0.49467164442E+02  0.11938111948E+03  0.77711308156E+02 0.  0.
         -6    2    1    2    0  502 -0.23593012961E+02 -0.32041950119E+02  0.40368084584E+03  0.44182666213E+03  0.17512640363E+03 0.  0.
        -24    2    5    5    0    0 -0.18819902951E+02 -0.20802247501E+02  0.72110558168E+02  0.10999830415E+03  0.78184218799E+02 0.  0.
          5    1    3    3  501    0  0.18137169598E+01 -0.40700514658E+02  0.40308722402E+02  0.57503952597E+02  0.47000000000E+01 0. -1.
        -11    1    4    4    0    0  0.33514350798E+02  0.84859969460E+02 -0.37232185435E+02  0.98542690030E+02  0.00000000000E+00 0.  1.
         12    1    4    4    0    0 -0.11735054797E+02 -0.12117504682E+02 -0.12234979007E+02  0.20838429455E+02  0.00000000000E+00 0. -1.
         -5    1    5    5    0  502 -0.47731100093E+01 -0.11239702618E+02  0.33157028767E+03  0.33182835798E+03  0.47000000000E+01 0.  1.
         11    1    6    6    0    0 -0.46913167223E+02  0.13749291205E+01  0.45792138518E+02  0.65571759463E+02  0.00000000000E+00 0. -1.
        -12    1    6    6    0    0  0.28093264272E+02 -0.22177176621E+02  0.26318419650E+02  0.44426544691E+02  0.00000000000E+00 0.  1.
</event>
<event>
12    1  0.1627564E-001  0.1922324E+03  0.7818608E-02  0.1156654E+00
         21   -1    0    0  501  502  0.00000000000E+00  0.00000000000E+00  0.98948115241E+02  0.98948115241E+02  0.00000000000E+00 0. -1.
         21   -1    0    0  502  503 -0.00000000000E+00 -0.00000000000E+00 -0.39772740584E+03  0.39772740584E+03  0.00000000000E+00 0.  1.
         -6    2    1    2    0  503 -0.35899586898E+02  0.77553281572E+02 -0.86288757806E+02  0.21071084044E+03  0.17219180216E+03 0.  0.
        -24    2    3    3    0    0 -0.25473583474E+02  0.11853054147E+03 -0.46122898143E+02  0.15220251916E+03  0.79623441217E+02 0.  0.
          6    2    1    2  501    0  0.35899586898E+02 -0.77553281572E+02 -0.21249053279E+03  0.28596468064E+03  0.17123165662E+03 0.  0.
         24    2    5    5    0    0  0.79611677174E+02 -0.21829154677E+02 -0.92295350467E+02  0.14637636807E+03  0.78058172370E+02 0.  0.
          5    1    5    5  501    0 -0.43712090276E+02 -0.55724126894E+02 -0.12019518232E+03  0.13958831258E+03  0.47000000000E+01 0. -1.
        -11    1    6    6    0    0  0.22780710239E+02 -0.41866657597E+02 -0.64014824357E+02  0.79810246929E+02  0.00000000000E+00 0.  1.
         12    1    6    6    0    0  0.56830966935E+02  0.20037502920E+02 -0.28280526110E+02  0.66566121136E+02  0.00000000000E+00 0. -1.
         -5    1    3    3    0  503 -0.10426003424E+02 -0.40977259893E+02 -0.40165859663E+02  0.58508321273E+02  0.47000000000E+01 0.  1.
         13    1    4    4    0    0  0.12422726023E+02  0.25254247455E+02  0.17464740975E+02  0.33122776358E+02  0.00000000000E+00 0. -1.
        -14    1    4    4    0    0 -0.37896309497E+02  0.93276294010E+02 -0.63587639117E+02  0.11907974280E+03  0.00000000000E+00 0.  1.
</event>
<event>
12    1  0.1627564E-001  0.2210252E+03  0.7818608E-02  0.1135045E+00
         21   -1    0    0  503  502  0.00000000000E+00  0.00000000000E+00  0.12450713442E+03  0.12450713442E+03  0.00000000000E+00 0. -1.
         21   -1    0    0  501  503 -0.00000000000E+00 -0.00000000000E+00 -0.37459446746E+03  0.37459446746E+03  0.00000000000E+00 0. -1.
          6    2    1    2  501    0 -0.97071085228E+02 -0.71813355403E+02 -0.12151794456E+03  0.24340212961E+03  0.17291047466E+03 0.  0.
         24    2    3    3    0    0 -0.52057033376E+02 -0.82700132562E+02 -0.15000644264E+02  0.12715750804E+03  0.79967280013E+02 0.  0.
         -6    2    1    2    0  502  0.97071085228E+02  0.71813355403E+02 -0.12856938847E+03  0.25569947227E+03  0.18512746654E+03 0.  0.
        -24    2    5    5    0    0  0.92300784604E+02 -0.26721576378E+02 -0.92565366946E+02  0.15057921678E+03  0.69801689704E+02 0.  0.
          5    1    3    3  501    0 -0.45014051853E+02  0.10886777158E+02 -0.10651730030E+03  0.11624462157E+03  0.47000000000E+01 0. -1.
        -13    1    4    4    0    0  0.14447798943E+02 -0.26890786949E+02  0.16622221107E+02  0.34758474529E+02  0.00000000000E+00 0.  1.
         14    1    4    4    0    0 -0.66504832318E+02 -0.55809345612E+02 -0.31622865370E+02  0.92399033510E+02  0.00000000000E+00 0. -1.
         -5    1    5    5    0  502  0.47703006244E+01  0.98534931781E+02 -0.36004021524E+02  0.10512025549E+03  0.47000000000E+01 0.  1.
         11    1    6    6    0    0  0.49653568324E+02 -0.48543898450E+02 -0.43154936976E+02  0.81757785620E+02  0.00000000000E+00 0. -1.
        -12    1    6    6    0    0  0.42647216280E+02  0.21822322072E+02 -0.49410429971E+02  0.68821431160E+02  0.00000000000E+00 0.  1.
</event>
<event>
12    1  0.1627564E-001  0.2022176E+03  0.7818608E-02  0.1151173E+00
         21   -1    0    0  503  502  0.00000000000E+00  0.00000000000E+00  0.11485790703E+03  0.11485790703E+03  0.00000000000E+00 0.  1.
         21   -1    0    0  501  503 -0.00000000000E+00 -0.00000000000E+00 -0.47367898126E+03  0.47367898126E+03  0.00000000000E+00 0.  1.
          6    2    1    2  501    0  0.73481852199E+02 -0.34770355196E+01 -0.33663900976E+03  0.38510628476E+03  0.17195742291E+03 0.  0.
         24    2    3    3    0    0  0.17312189694E+02  0.30606515184E+02 -0.71938097586E+02  0.11233278473E+03  0.78785112538E+02 0.  0.
         -6    2    1    2    0  502 -0.73481852199E+02  0.34770355196E+01 -0.22182064472E+02  0.20343060354E+03  0.18836213551E+03 0.  0.
        -24    2    5    5    0    0 -0.83888872676E+02  0.51610371597E+02 -0.60651950337E+02  0.14076365662E+03  0.80217046384E+02 0.  0.
          5    1    3    3  501    0  0.56169662505E+02 -0.34083550704E+02 -0.26470091217E+03  0.27277350003E+03  0.47000000000E+01 0. -1.
        -11    1    4    4    0    0  0.32706740469E+02  0.77087390621E+01 -0.77243150705E+02  0.84235739808E+02  0.00000000000E+00 0.  1.
         12    1    4    4    0    0 -0.15394550775E+02  0.22897776122E+02  0.53050531190E+01  0.28097044924E+02  0.00000000000E+00 0. -1.
         -5    1    5    5    0  502  0.10407020477E+02 -0.48133336077E+02  0.38469885865E+02  0.62666946914E+02  0.47000000000E+01 0.  1.
         13    1    6    6    0    0 -0.65206048328E+01  0.27055912418E+02 -0.52197443956E+02  0.59153307935E+02  0.00000000000E+00 0. -1.
        -14    1    6    6    0    0 -0.77368267843E+02  0.24554459179E+02 -0.84545063818E+01  0.81610348687E+02  0.00000000000E+00 0.  1.
</event>
<event>
12    1  0.1627564E-001  0.2653062E+03  0.7818608E-02  0.1104009E+00
         21   -1    0    0  503  502  0.00000000000E+00  0.00000000000E+00  0.34023401546E+03  0.34023401546E+03  0.00000000000E+00 0. -1.
         21   -1    0    0  501  503 -0.00000000000E+00 -0.00000000000E+00 -0.20872069233E+03  0.20872069233E+03  0.00000000000E+00 0.  1.
          6    2    1    2  501    0 -0.19827062611E+03  0.40863584238E+02  0.39506232741E+02  0.26823143832E+03  0.17148261831E+03 0.  0.
         24    2    3    3    0    0 -0.21805802518E+03  0.56792109343E+02  0.40969488369E+02  0.24235692980E+03  0.79270022175E+02 0.  0.
         -6    2    1    2    0  502  0.19827062611E+03 -0.40863584238E+02  0.92007090383E+02  0.28072326947E+03  0.17134519440E+03 0.  0.
        -24    2    5    5    0    0  0.75274088316E+02 -0.13237211734E+02 -0.21090200961E+02  0.11129938663E+03  0.78111105103E+02 0.  0.
          5    1    3    3  501    0  0.19787399072E+02 -0.15928525105E+02 -0.14632556283E+01  0.25874508519E+02  0.47000000000E+01 0. -1.
        -13    1    4    4    0    0 -0.46712509228E+02  0.40281383787E+02  0.33184459497E+02  0.70041821438E+02  0.00000000000E+00 0.  1.
         14    1    4    4    0    0 -0.17134551596E+03  0.16510725556E+02  0.77850288719E+01  0.17231510837E+03  0.00000000000E+00 0. -1.
         -5    1    5    5    0  502  0.12299653780E+03 -0.27626372504E+02  0.11309729134E+03  0.16942388284E+03  0.47000000000E+01 0.  1.
         11    1    6    6    0    0  0.71528178854E+02  0.58716509597E+01  0.12135930132E+02  0.72787618832E+02  0.00000000000E+00 0. -1.
        -12    1    6    6    0    0  0.37459094625E+01 -0.19108862694E+02 -0.33226131093E+02  0.38511767793E+02  0.00000000000E+00 0.  1.
</event>
<event>
12    1  0.1627564E-001  0.1738851E+03  0.7818608E-02  0.1174538E+00
         21   -1    0    0  501  502  0.00000000000E+00  0.00000000000E+00  0.42398508380E+03  0.42398508380E+03  0.00000000000E+00 0. -1.
         21   -1    0    0  502  503 -0.00000000000E+00 -0.00000000000E+00 -0.81635875997E+02  0.81635875997E+02  0.00000000000E+00 0. -1.
         -6    2    1    2    0  503  0.14178933423E+02  0.69054080409E+01  0.77787756589E+02  0.19049140757E+03  0.17316845692E+03 0.  0.
        -24    2    3    3    0    0 -0.46324922020E+02  0.21236525401E+02  0.39155882135E+01  0.93820394810E+02  0.78676211398E+02 0.  0.
          6    2    1    2  501    0 -0.14178933423E+02 -0.69054080409E+01  0.26456145122E+03  0.31512955223E+03  0.17048503278E+03 0.  0.
         24    2    5    5    0    0 -0.47021967945E+02 -0.48488169701E+02  0.10756278764E+03  0.14936326690E+03  0.78596845646E+02 0.  0.
          5    1    5    5  501    0  0.32843034522E+02  0.41582761660E+02  0.15699866358E+03  0.16576628532E+03  0.47000000000E+01 0. -1.
        -13    1    6    6    0    0 -0.31246736042E+02 -0.66120816367E+02  0.54314847726E+02  0.91095683508E+02  0.00000000000E+00 0.  1.
         14    1    6    6    0    0 -0.15775231904E+02  0.17632646665E+02  0.53247939911E+02  0.58267583396E+02  0.00000000000E+00 0. -1.
         -5    1    3    3    0  503  0.60503855443E+02 -0.14331117360E+02  0.73872168376E+02  0.96671012764E+02  0.47000000000E+01 0.  1.
         13    1    4    4    0    0 -0.18634173336E+02  0.28240415998E+02 -0.32920985289E+02  0.47207465342E+02  0.00000000000E+00 0. -1.
        -14    1    4    4    0    0 -0.27690748684E+02 -0.70038905974E+01  0.36836573502E+02  0.46612929467E+02  0.00000000000E+00 0.  1.
</event>
<event>
12    1  0.1627564E-001  0.1797740E+03  0.7818608E-02  0.1169355E+00
         21   -1    0    0  503  502  0.00000000000E+00  0.00000000000E+00  0.95280671531E+02  0.95280671531E+02  0.00000000000E+00 0. -1.
         21   -1    0    0  501  503 -0.00000000000E+00 -0.00000000000E+00 -0.58952935414E+03  0.58952935414E+03  0.00000000000E+00 0. -1.
          6    2    1    2  501    0  0.17171733581E+02 -0.15643002054E+02 -0.17437923968E+02  0.17523454209E+03  0.17281056565E+03 0.  0.
         24    2    3    3    0    0  0.57028581862E+02  0.27149814619E+02  0.24692766232E+02  0.10300657956E+03  0.77532258743E+02 0.  0.
         -6    2    1    2    0  502 -0.17171733581E+02  0.15643002054E+02 -0.47681075864E+03  0.50957548359E+03  0.17826694020E+03 0.  0.
        -24    2    5    5    0    0 -0.24333422948E+01 -0.55560597239E+01 -0.47699940565E+03  0.48333151313E+03  0.77743987749E+02 0.  0.
          5    1    3    3  501    0 -0.39856848281E+02 -0.42792816673E+02 -0.42130690200E+02  0.72227962525E+02  0.47000000000E+01 0. -1.
        -11    1    4    4    0    0  0.63752612101E+02  0.40256172835E+02  0.13575026445E+01  0.75410860056E+02  0.00000000000E+00 0.  1.
         12    1    4    4    0    0 -0.67240302386E+01 -0.13106358216E+02  0.23335263588E+02  0.27595719506E+02  0.00000000000E+00 0. -1.
         -5    1    5    5    0  502 -0.14738391286E+02  0.21199061778E+02  0.18864700959E+00  0.26243970463E+02  0.47000000000E+01 0.  1.
         13    1    6    6    0    0 -0.19609161108E+02  0.88271332520E+01 -0.43665658877E+03  0.43718578888E+03  0.00000000000E+00 0. -1.
        -14    1    6    6    0    0  0.17175818813E+02 -0.14383192976E+02 -0.40342816880E+02  0.46145724243E+02  0.00000000000E+00 0.  1.
</event>
<event>
12    1  0.1627564E-001  0.1790835E+03  0.7818608E-02  0.1168783E+00
         21   -1    0    0  503  502  0.00000000000E+00  0.00000000000E+00  0.37274595092E+03  0.37274595092E+03  0.00000000000E+00 0. -1.
         21   -1    0    0  501  503 -0.00000000000E+00 -0.00000000000E+00 -0.23609675877E+03  0.23609675877E+03  0.00000000000E+00 0. -1.
          6    2    1    2  501    0 -0.22515595322E+02 -0.43982569766E+02 -0.17453730886E+03  0.24980519411E+03  0.17174965603E+03 0.  0.
         24    2    3    3    0    0 -0.12527064690E+02  0.34188805468E+02 -0.47300164879E+02  0.10006570213E+03  0.80312124715E+02 0.  0.
         -6    2    1    2    0  502  0.22515595322E+02  0.43982569766E+02  0.31118650102E+03  0.35903751558E+03  0.17213216057E+03 0.  0.
        -24    2    5    5    0    0 -0.29828803953E+02  0.60994195827E+02  0.12733926015E+03  0.16707077489E+03  0.84186145989E+02 0.  0.
          5    1    3    3  501    0 -0.99885306322E+01 -0.78171375235E+02 -0.12723714398E+03  0.14973949198E+03  0.47000000000E+01 0. -1.
        -11    1    4    4    0    0  0.81890794568E+01 -0.20262750246E+02 -0.33820512045E+02  0.40267444727E+02  0.00000000000E+00 0.  1.
         12    1    4    4    0    0 -0.20716144147E+02  0.54451555714E+02 -0.13479652834E+02  0.59798257404E+02  0.00000000000E+00 0. -1.
         -5    1    5    5    0  502  0.52344399275E+02 -0.17011626061E+02  0.18384724086E+03  0.19196674069E+03  0.47000000000E+01 0.  1.
         11    1    6    6    0    0 -0.89327104811E+01  0.10912968822E+02  0.10882290078E+03  0.10973290272E+03  0.00000000000E+00 0. -1.
        -12    1    6    6    0    0 -0.20896093472E+02  0.50081227005E+02  0.18516359374E+02  0.57337872172E+02  0.00000000000E+00 0.  1.
</event>
<event>
12    1  0.1627564E-001  0.2269965E+03  0.7818608E-02  0.1129578E+00
         21   -1    0    0  501  502  0.00000000000E+00  0.00000000000E+00  0.32261225911E+03  0.32261225911E+03  0.00000000000E+00 0.  1.
         21   -1    0    0  502  503 -0.00000000000E+00 -0.00000000000E+00 -0.21159235229E+03  0.21159235229E+03  0.00000000000E+00 0.  1.
         -6    2    1    2    0  503  0.39855948793E+02  0.13859938178E+03 -0.80249465905E+02  0.24076421719E+03  0.17529730807E+03 0.  0.
        -24    2    3    3    0    0  0.29692649904E+02  0.71359246081E+02 -0.11866251417E+03  0.16251985145E+03  0.79737785192E+02 0.  0.
          6    2    1    2  501    0 -0.39855948793E+02 -0.13859938178E+03  0.19126937273E+03  0.29344039421E+03  0.16948453241E+03 0.  0.
         24    2    5    5    0    0 -0.26477041101E+02 -0.14508687276E+03  0.21027620152E+03  0.26885519030E+03  0.79471995525E+02 0.  0.
          5    1    5    5  501    0 -0.13378907692E+02  0.64874909871E+01 -0.19006828793E+02  0.24585203907E+02  0.47000000000E+01 0. -1.
        -11    1    6    6    0    0  0.33651027440E+01 -0.13622021917E+02  0.80559570748E+02  0.81772414888E+02  0.00000000000E+00 0.  1.
         12    1    6    6    0    0 -0.29842143845E+02 -0.13146485085E+03  0.12971663077E+03  0.18708277541E+03  0.00000000000E+00 0. -1.
         -5    1    3    3    0  503  0.10163298889E+02  0.67240135696E+02  0.38413048262E+02  0.78244365737E+02  0.47000000000E+01 0.  1.
         11    1    4    4    0    0 -0.17822437484E+02  0.50213757261E+00 -0.19286545704E+01  0.17933519689E+02  0.00000000000E+00 0. -1.
        -12    1    4    4    0    0  0.47515087387E+02  0.70857108508E+02 -0.11673385960E+03  0.14458633176E+03  0.00000000000E+00 0.  1.
</event>
<event>
12    1  0.1627564E-001  0.2147311E+03  0.7818608E-02  0.1138030E+00
         21   -1    0    0  501  502  0.00000000000E+00  0.00000000000E+00  0.30192306281E+03  0.30192306281E+03  0.00000000000E+00 0.  1.
         21   -1    0    0  502  503 -0.00000000000E+00 -0.00000000000E+00 -0.18798837966E+03  0.18798837966E+03  0.00000000000E+00 0.  1.
         -6    2    1    2    0  503  0.11280586398E+03  0.59787139353E+02 -0.50086760905E+02  0.21970325254E+03  0.17164256633E+03 0.  0.
        -24    2    3    3    0    0  0.93517942083E+02  0.89129681340E+02  0.78383325412E+01  0.15180321460E+03  0.79328878209E+02 0.  0.
          6    2    1    2  501    0 -0.11280586398E+03 -0.59787139353E+02  0.16402144406E+03  0.27020818994E+03  0.17265505154E+03 0.  0.
         24    2    5    5    0    0 -0.14032950947E+02 -0.78943003196E+02  0.72002489229E+02  0.13378013742E+03  0.79270708630E+02 0.  0.
          5    1    5    5  501    0 -0.98772913029E+02  0.19155863843E+02  0.92018954828E+02  0.13642805252E+03  0.47000000000E+01 0. -1.
        -13    1    6    6    0    0 -0.44267752902E+02 -0.61560288314E+02  0.37004433111E+02  0.84371980623E+02  0.00000000000E+00 0.  1.
         14    1    6    6    0    0  0.30234801955E+02 -0.17382714882E+02  0.34998056118E+02  0.49408156796E+02  0.00000000000E+00 0. -1.
         -5    1    3    3    0  503  0.19287921892E+02 -0.29342541987E+02 -0.57925093446E+02  0.67900037937E+02  0.47000000000E+01 0.  1.
         13    1    4    4    0    0  0.30752341632E+02  0.13141112811E+02  0.36162286470E+02  0.49255520752E+02  0.00000000000E+00 0. -1.
        -14    1    4    4    0    0  0.62765600451E+02  0.75988568529E+02 -0.28323953929E+02  0.10254769385E+03  0.00000000000E+00 0.  1.
</event>
<event>
12    1  0.1627564E-001  0.1911947E+03  0.7818608E-02  0.1157509E+00
         21   -1    0    0  503  502  0.00000000000E+00  0.00000000000E+00  0.73222685218E+02  0.73222685218E+02  0.00000000000E+00 0. -1.
         21   -1    0    0  501  503 -0.00000000000E+00 -0.00000000000E+00 -0.50495097405E+03  0.50495097405E+03  0.00000000000E+00 0. -1.
          6    2    1    2  501    0  0.48499361846E+02  0.69280995715E+02 -0.24990263494E+03  0.31432525238E+03  0.17087127571E+03 0.  0.
         24    2    3    3    0    0  0.53446996407E+02  0.95860796684E+02 -0.11793429121E+03  0.17953393718E+03  0.79234233688E+02 0.  0.
         -6    2    1    2    0  502 -0.48499361846E+02 -0.69280995715E+02 -0.18182565390E+03  0.26384840690E+03  0.17147410574E+03 0.  0.
        -24    2    5    5    0    0 -0.63370062526E+02  0.16043504314E+02 -0.10101723492E+03  0.14530095386E+03  0.81453831013E+02 0.  0.
          5    1    3    3  501    0 -0.49476345606E+01 -0.26579800969E+02 -0.13196834373E+03  0.13479131520E+03  0.47000000000E+01 0. -1.
        -11    1    4    4    0    0 -0.15753632412E+02  0.48427934032E+02 -0.52457930721E+02  0.73111395994E+02  0.00000000000E+00 0.  1.
         12    1    4    4    0    0  0.69200628818E+02  0.47432862653E+02 -0.65476360493E+02  0.10642254118E+03  0.00000000000E+00 0. -1.
         -5    1    5    5    0  502  0.14870700680E+02 -0.85324500029E+02 -0.80808418977E+02  0.11854745304E+03  0.47000000000E+01 0.  1.
         13    1    6    6    0    0 -0.40608493124E+02  0.34416248683E+02 -0.10304230408E+03  0.11597949956E+03  0.00000000000E+00 0. -1.
        -14    1    6    6    0    0 -0.22761569403E+02 -0.18372744369E+02  0.20250691616E+01  0.29321454303E+02  0.00000000000E+00 0.  1.
</event>
<event>
12    1  0.1627564E-001  0.1770134E+03  0.7818608E-02  0.1170882E+00
         21   -1    0    0  503  502  0.00000000000E+00  0.00000000000E+00  0.40243582784E+02  0.40243582784E+02  0.00000000000E+00 0.  1.
         21   -1    0    0  501  503 -0.00000000000E+00 -0.00000000000E+00 -0.91450566187E+03  0.91450566187E+03  0.00000000000E+00 0.  1.
          6    2    1    2  501    0 -0.35719785278E+02  0.22225288801E+02 -0.62369782941E+03  0.64833073560E+03  0.17194154176E+03 0.  0.
         24    2    3    3    0    0  0.42536359848E+02 -0.62660253836E+00 -0.23803107881E+03  0.25411358008E+03  0.78135667653E+02 0.  0.
         -6    2    1    2    0  502  0.35719785278E+02 -0.22225288801E+02 -0.25056424968E+03  0.30641850906E+03  0.17128920852E+03 0.  0.
        -24    2    5    5    0    0  0.83345214789E+02 -0.30897046750E+02 -0.21496695868E+03  0.24614713901E+03  0.80477129610E+02 0.  0.
          5    1    3    3  501    0 -0.78256145126E+02  0.22851891340E+02 -0.38566675060E+03  0.39421715552E+03  0.47000000000E+01 0. -1.
        -13    1    4    4    0    0 -0.13036068338E+02  0.24650783698E+02 -0.71641712283E+02  0.76877403400E+02  0.00000000000E+00 0.  1.
         14    1    4    4    0    0  0.55572428186E+02 -0.25277386237E+02 -0.16638936653E+03  0.17723617668E+03  0.00000000000E+00 0. -1.
         -5    1    5    5    0  502 -0.47625429511E+02  0.86717579491E+01 -0.35597291001E+02  0.60271370058E+02  0.47000000000E+01 0.  1.
         13    1    6    6    0    0  0.43355763361E+02  0.24772937933E+02 -0.10971095311E+03  0.12054009251E+03  0.00000000000E+00 0. -1.
        -14    1    6    6    0    0  0.39989451428E+02 -0.55669984684E+02 -0.10525600557E+03  0.12560704649E+03  0.00000000000E+00 0.  1.
</event>
<event>
12    1  0.1627564E-001  0.1831667E+03  0.7818608E-02  0.1165310E+00
         21   -1    0    0  501  502  0.00000000000E+00  0.00000000000E+00  0.18435264199E+03  0.18435264199E+03  0.00000000000E+00 0. -1.
         21   -1    0    0  502  503 -0.00000000000E+00 -0.00000000000E+00 -0.21585226724E+03  0.21585226724E+03  0.00000000000E+00 0.  1.
         -6    2    1    2    0  503 -0.35467185224E+01  0.62425305029E+02  0.65999920004E+02  0.19469469992E+03  0.17216427857E+03 0.  0.
        -24    2    3    3    0    0  0.64256084760E+02  0.48531132799E+02  0.32646242500E+02  0.11772180886E+03  0.79426266770E+02 0.  0.
          6    2    1    2  501    0  0.35467185224E+01 -0.62425305029E+02 -0.97499545254E+02  0.20551020931E+03  0.16976096985E+03 0.  0.
         24    2    5    5    0    0  0.40101492284E+02 -0.85055018456E+02 -0.10554873345E+03  0.16151890511E+03  0.78136647783E+02 0.  0.
          5    1    5    5  501    0 -0.36554773761E+02  0.22629713427E+02  0.80491881934E+01  0.43991304199E+02  0.47000000000E+01 0. -1.
        -11    1    6    6    0    0  0.14273184508E+02  0.41532353711E+01 -0.52499831213E+02  0.54563774040E+02  0.00000000000E+00 0.  1.
         12    1    6    6    0    0  0.25828307776E+02 -0.89208253827E+02 -0.53048902234E+02  0.10695513107E+03  0.00000000000E+00 0. -1.
         -5    1    3    3    0  503 -0.67802803283E+02  0.13894172230E+02  0.33353677504E+02  0.76972891059E+02  0.47000000000E+01 0.  1.
         13    1    4    4    0    0  0.43120213139E+02  0.68337865191E+02  0.36191731741E+02  0.88539584630E+02  0.00000000000E+00 0. -1.
        -14    1    4    4    0    0  0.21135871621E+02 -0.19806732392E+02 -0.35454892409E+01  0.29182224233E+02  0.00000000000E+00 0.  1.
</event>
<event>
12    1  0.1627564E-001  0.2443101E+03  0.7818608E-02  0.1117127E+00
         21   -1    0    0  501  502  0.00000000000E+00  0.00000000000E+00  0.16710953692E+03  0.16710953692E+03  0.00000000000E+00 0. -1.
         21   -1    0    0  502  503 -0.00000000000E+00 -0.00000000000E+00 -0.59113781375E+03  0.59113781375E+03  0.00000000000E+00 0.  1.
         -6    2    1    2    0  503  0.20515592112E+02  0.17165976807E+03 -0.45158891016E+03  0.51343936646E+03  0.17262524081E+03 0.  0.
        -24    2    3    3    0    0  0.69907708424E+02  0.71580863712E+02 -0.18735181616E+03  0.22656186631E+03  0.78858534731E+02 0.  0.
          6    2    1    2  501    0 -0.20515592112E+02 -0.17165976807E+03  0.27560633330E+02  0.24480798421E+03  0.17112391747E+03 0.  0.
         24    2    5    5    0    0 -0.32586326992E+02 -0.17903647865E+03  0.61288242954E+02  0.20793305844E+03  0.79774549053E+02 0.  0.
          5    1    5    5  501    0  0.12070734880E+02  0.73767105768E+01 -0.33727609624E+02  0.36874925768E+02  0.47000000000E+01 0. -1.
        -11    1    6    6    0    0 -0.34954441115E+02 -0.27415502265E+02  0.12550961504E+00  0.44423400036E+02  0.00000000000E+00 0.  1.
         12    1    6    6    0    0  0.23681141227E+01 -0.15162097638E+03  0.61162733339E+02  0.16350965841E+03  0.00000000000E+00 0. -1.
         -5    1    3    3    0  503 -0.49392116312E+02  0.10007890436E+03 -0.26423709400E+03  0.28687750015E+03  0.47000000000E+01 0.  1.
         13    1    4    4    0    0 -0.11550812178E+02  0.35887570104E+02 -0.44919653214E+02  0.58643961282E+02  0.00000000000E+00 0. -1.
        -14    1    4    4    0    0  0.81458520601E+02  0.35693293608E+02 -0.14243216295E+03  0.16791790503E+03  0.00000000000E+00 0.  1.
</event>
<event>
12    1  0.1627564E-001  0.2610961E+03  0.7818608E-02  0.1106642E+00
         21   -1    0    0  501  502  0.00000000000E+00  0.00000000000E+00  0.19744853501E+04  0.19744853501E+04  0.00000000000E+00 0.  1.
         21   -1    0    0  502  503 -0.00000000000E+00 -0.00000000000E+00 -0.46111045695E+02  0.46111045695E+02  0.00000000000E+00 0. -1.
         -6    2    1    2    0  503 -0.13654014729E+03 -0.14088522830E+03  0.45334985084E+03  0.52264169385E+03  0.17069385903E+03 0.  0.
        -24    2    3    3    0    0 -0.57358995421E+02 -0.12393763313E+03  0.38617350799E+03  0.41732490111E+03  0.79871794468E+02 0.  0.
          6    2    1    2  501    0  0.13654014729E+03  0.14088522830E+03  0.14750244535E+04  0.14979547019E+04  0.17227678634E+03 0.  0.
         24    2    5    5    0    0  0.15246164163E+03  0.91314335145E+02  0.13226982044E+04  0.13369076790E+04  0.78795571922E+02 0.  0.
          5    1    5    5  501    0 -0.15921494344E+02  0.49570893158E+02  0.15232624910E+03  0.16104702293E+03  0.47000000000E+01 0. -1.
        -11    1    6    6    0    0  0.25019738012E+01  0.30339193865E+02  0.29075365144E+03  0.29234297047E+03  0.00000000000E+00 0.  1.
         12    1    6    6    0    0  0.14995966783E+03  0.60975141280E+02  0.10319445530E+04  0.10445647085E+04  0.00000000000E+00 0. -1.
         -5    1    3    3    0  503 -0.79181151867E+02 -0.16947595178E+02  0.67176342853E+02  0.10531679274E+03  0.47000000000E+01 0.  1.
         13    1    4    4    0    0  0.10821244131E+02 -0.90889530233E+01  0.79562102849E+01  0.16217572991E+02  0.00000000000E+00 0. -1.
        -14    1    4    4    0    0 -0.68180239553E+02 -0.11484868010E+03  0.37821729771E+03  0.40110732812E+03  0.00000000000E+00 0.  1.
</event>
<event>
12    1  0.1627564E-001  0.1803363E+03  0.7818608E-02  0.1167688E+00
         21   -1    0    0  503  502  0.00000000000E+00  0.00000000000E+00  0.26797632530E+03  0.26797632530E+03  0.00000000000E+00 0.  1.
         21   -1    0    0  501  503 -0.00000000000E+00 -0.00000000000E+00 -0.14000780347E+03  0.14000780347E+03  0.00000000000E+00 0.  1.
          6    2    1    2  501    0 -0.52836790236E+02 -0.50215905460E+01  0.13972399873E+03  0.22813152993E+03  0.17234922788E+03 0.  0.
         24    2    3    3    0    0 -0.69190564384E+02 -0.21883977292E+02  0.16251483994E+03  0.19506646591E+03  0.79834893737E+02 0.  0.
         -6    2    1    2    0  502  0.52836790236E+02  0.50215905460E+01 -0.11755476909E+02  0.17985259884E+03  0.17144043659E+03 0.  0.
        -24    2    5    5    0    0 -0.33500618662E+02  0.28588217955E+02 -0.11643266722E+02  0.90233199748E+02  0.77890224164E+02 0.  0.
          5    1    3    3  501    0  0.16353774148E+02  0.16862386746E+02 -0.22790841208E+02  0.33065064020E+02  0.47000000000E+01 0. -1.
        -11    1    4    4    0    0 -0.10139507817E+02  0.20147489083E+02  0.89057532643E+02  0.91869336863E+02  0.00000000000E+00 0.  1.
         12    1    4    4    0    0 -0.59051056567E+02 -0.42031466375E+02  0.73457307299E+02  0.10319712904E+03  0.00000000000E+00 0. -1.
         -5    1    5    5    0  502  0.86337408898E+02 -0.23566627409E+02 -0.11221018740E+00  0.89619399093E+02  0.47000000000E+01 0.  1.
         13    1    6    6    0    0 -0.21034938358E+02  0.64287243905E+01  0.32528315431E+02  0.39266887243E+02  0.00000000000E+00 0. -1.
        -14    1    6    6    0    0 -0.12465680304E+02  0.22159493565E+02 -0.44171582152E+02  0.50966312505E+02  0.00000000000E+00 0.  1.
</event>
<event>
12    1  0.1627564E-001  0.2542785E+03  0.7818608E-02  0.1111249E+00
         21   -1    0    0  503  502  0.00000000000E+00  0.00000000000E+00  0.36245601541E+03  0.36245601541E+03  0.00000000000E+00 0. -1.
         21   -1    0    0  501  503 -0.00000000000E+00 -0.00000000000E+00 -0.17663331011E+03  0.17663331011E+03  0.00000000000E+00 0.  1.
          6    2    1    2  501    0  0.17332118643E+03  0.55639637912E+02  0.11411484598E+03  0.27871089716E+03  0.17754313040E+03 0.  0.
         24    2    3    3    0    0  0.11722428315E+03  0.37791120341E+02 -0.61983818822E+01  0.14468554532E+03  0.75668921958E+02 0.  0.
         -6    2    1    2    0  502 -0.17332118643E+03 -0.55639637912E+02  0.71707859323E+02  0.26037842836E+03  0.17181066875E+03 0.  0.
        -24    2    5    5    0    0 -0.14697084913E+03 -0.92686306740E+02  0.89197326127E+02  0.21144206769E+03  0.80996315038E+02 0.  0.
          5    1    3    3  501    0  0.56096903281E+02  0.17848517571E+02  0.12031322786E+03  0.13402535184E+03  0.47000000000E+01 0. -1.
        -13    1    4    4    0    0  0.99128234193E+02 -0.25409709681E+01  0.42866002139E+01  0.99253404420E+02  0.00000000000E+00 0.  1.
         14    1    4    4    0    0  0.18096048956E+02  0.40332091309E+02 -0.10484982096E+02  0.45432140900E+02  0.00000000000E+00 0. -1.
         -5    1    5    5    0  502 -0.26350337300E+02  0.37046668828E+02 -0.17489466804E+02  0.48936360676E+02  0.47000000000E+01 0.  1.
         13    1    6    6    0    0 -0.90057320428E+01 -0.42964846145E+02  0.11046690884E+02  0.45267102772E+02  0.00000000000E+00 0. -1.
        -14    1    6    6    0    0 -0.13796511709E+03 -0.49721460595E+02  0.78150635243E+02  0.16617496492E+03  0.00000000000E+00 0.  1.
</event>
<event>
12    1  0.1627564E-001  0.1939871E+03  0.7818608E-02  0.1155181E+00
         21   -1    0    0  501  502  0.00000000000E+00  0.00000000000E+00  0.88017954421E+03  0.88017954421E+03  0.00000000000E+00 0. -1.
         21   -1    0    0  502  503 -0.00000000000E+00 -0.00000000000E+00 -0.58681900649E+02  0.58681900649E+02  0.00000000000E+00 0. -1.
         -6    2    1    2    0  503 -0.87122254802E+02 -0.24897415246E+01  0.16320084253E+03  0.25257747332E+03  0.17194295255E+03 0.  0.
        -24    2    3    3    0    0 -0.45775260089E+02  0.46371196455E+02  0.15735195781E+03  0.18813164580E+03  0.79926311252E+02 0.  0.
          6    2    1    2  501    0  0.87122254802E+02  0.24897415246E+01  0.65829680103E+03  0.68628397154E+03  0.17330471792E+03 0.  0.
         24    2    5    5    0    0  0.66028230534E+02  0.54239556494E+02  0.27174826122E+03  0.29568844565E+03  0.79264637160E+02 0.  0.
          5    1    5    5  501    0  0.21094024268E+02 -0.51749814970E+02  0.38654853981E+03  0.39059552588E+03  0.47000000000E+01 0. -1.
        -11    1    6    6    0    0  0.36121256093E+02  0.10923372075E+02  0.29810705445E+02  0.48090990407E+02  0.00000000000E+00 0.  1.
         12    1    6    6    0    0  0.29906974440E+02  0.43316184420E+02  0.24193755577E+03  0.24759745525E+03  0.00000000000E+00 0. -1.
         -5    1    3    3    0  503 -0.41346994713E+02 -0.48860937979E+02  0.58488847274E+01  0.64445827518E+02  0.47000000000E+01 0.  1.
         13    1    4    4    0    0 -0.27238317652E+02  0.27158228553E+02  0.11919063836E+02  0.40268590854E+02  0.00000000000E+00 0. -1.
        -14    1    4    4    0    0 -0.18536942438E+02  0.19212967902E+02  0.14543289397E+03  0.14786305495E+03  0.00000000000E+00 0.  1.
</event>
<event>
12    1  0.1627564E-001  0.1889077E+03  0.7818608E-02  0.1159758E+00
         21   -1    0    0  503  502  0.00000000000E+00  0.00000000000E+00  0.19985459975E+04  0.19985459975E+04  0.00000000000E+00 0. -1.
         21   -1    0    0  501  503 -0.00000000000E+00 -0.00000000000E+00 -0.35519177942E+02  0.35519177942E+02  0.00000000000E+00 0. -1.
          6    2    1    2  501    0 -0.67605651862E+02 -0.42201195284E+02  0.25998752856E+03  0.32058073062E+03  0.16978523138E+03 0.  0.
         24    2    3    3    0    0 -0.87426360537E+02 -0.48073111401E+02  0.99501105830E+02  0.15870015189E+03  0.73012845387E+02 0.  0.
         -6    2    1    2    0  502  0.67605651862E+02  0.42201195284E+02  0.17030392910E+04  0.17134844448E+04  0.17127361414E+03 0.  0.
        -24    2    5    5    0    0  0.11016279632E+03  0.22536459433E+02  0.14072446740E+04  0.14139608934E+04  0.79398375295E+02 0.  0.
          5    1    3    3  501    0  0.19820708675E+02  0.58719161170E+01  0.16048642273E+03  0.16188057873E+03  0.47000000000E+01 0. -1.
        -13    1    4    4    0    0 -0.11445877668E+02  0.44085632668E+01  0.54707675308E+02  0.56065794235E+02  0.00000000000E+00 0.  1.
         14    1    4    4    0    0 -0.75980482870E+02 -0.52481674667E+02  0.44793430522E+02  0.10263435765E+03  0.00000000000E+00 0. -1.
         -5    1    5    5    0  502 -0.42557144458E+02  0.19664735850E+02  0.29579461701E+03  0.29952355138E+03  0.47000000000E+01 0.  1.
         13    1    6    6    0    0  0.51001323816E+02 -0.26302687874E+02  0.76531619760E+03  0.76746455861E+03  0.00000000000E+00 0. -1.
        -14    1    6    6    0    0  0.59161472505E+02  0.48839147308E+02  0.64192847636E+03  0.64649633480E+03  0.00000000000E+00 0.  1.
</event>
<event>
12    1  0.1627564E-001  0.1795031E+03  0.7818608E-02  0.1168359E+00
         21   -1    0    0  501  502  0.00000000000E+00  0.00000000000E+00  0.20094362368E+03  0.20094362368E+03  0.00000000000E+00 0. -1.
         21   -1    0    0  502  503 -0.00000000000E+00 -0.00000000000E+00 -0.18859794353E+03  0.18859794353E+03  0.00000000000E+00 0. -1.
         -6    2    1    2    0  503  0.15149833750E+01 -0.48674097238E+02 -0.69574212072E+02  0.19222903622E+03  0.17245280069E+03 0.  0.
        -24    2    3    3    0    0 -0.21794315885E+02 -0.35718600326E+02  0.74064205819E+01  0.11062464825E+03  0.10213788289E+03 0.  0.
          6    2    1    2  501    0 -0.15149833750E+01  0.48674097238E+02  0.81919892213E+02  0.19731253099E+03  0.17277124537E+03 0.  0.
         24    2    5    5    0    0 -0.48963441380E+02  0.76469044610E+02  0.62334320659E+02  0.13874974520E+03  0.84385963789E+02 0.  0.
          5    1    5    5  501    0  0.47448458005E+02 -0.27794947372E+02  0.19585571554E+02  0.58562785791E+02  0.47000000000E+01 0. -1.
        -11    1    6    6    0    0 -0.42966207550E+01  0.33277850299E+02 -0.17293811969E+02  0.37748539082E+02  0.00000000000E+00 0.  1.
         12    1    6    6    0    0 -0.44666820625E+02  0.43191194311E+02  0.79628132627E+02  0.10100120611E+03  0.00000000000E+00 0. -1.
         -5    1    3    3    0  503  0.23309299260E+02 -0.12955496911E+02 -0.76980632654E+02  0.81604387970E+02  0.47000000000E+01 0.  1.
         13    1    4    4    0    0  0.12338647614E+02  0.14249552439E+02 -0.32899580143E+02  0.37916676321E+02  0.00000000000E+00 0. -1.
        -14    1    4    4    0    0 -0.34132963499E+02 -0.49968152765E+02  0.40306000725E+02  0.72707971932E+02  0.00000000000E+00 0.  1.
</event>
<event>
12    1  0.1627564E-001  0.2047169E+03  0.7818608E-02  0.1146256E+00
         21   -1    0    0  503  502  0.00000000000E+00  0.00000000000E+00  0.25120416204E+03  0.25120416204E+03  0.00000000000E+00 0.  1.
         21   -1    0    0  501  503 -0.00000000000E+00 -0.00000000000E+00 -0.58239025770E+03  0.58239025770E+03  0.00000000000E+00 0.  1.
          6    2    1    2  501    0 -0.10730510301E+03  0.23863313637E+01 -0.51864035740E+03  0.55758121876E+03  0.17432416783E+03 0.  0.
         24    2    3    3    0    0  0.44721954459E+01 -0.34990914383E+02 -0.21443712778E+03  0.23130998519E+03  0.79225392748E+02 0.  0.
         -6    2    1    2    0  502  0.10730510301E+03 -0.23863313637E+01  0.18745426173E+03  0.27601320098E+03  0.17182580471E+03 0.  0.
        -24    2    5    5    0    0  0.10101888010E+03 -0.61102258137E+02  0.12422058885E+03  0.18936642354E+03  0.80564183000E+02 0.  0.
          5    1    3    3  501    0 -0.11177729846E+03  0.37377245746E+02 -0.30420322961E+03  0.32627123357E+03  0.47000000000E+01 0. -1.
        -11    1    4    4    0    0 -0.18279611942E+02  0.99820851476E+01 -0.13921248617E+03  0.14076186466E+03  0.00000000000E+00 0.  1.
         12    1    4    4    0    0  0.22751807388E+02 -0.44972999530E+02 -0.75224641613E+02  0.90548120533E+02  0.00000000000E+00 0. -1.
         -5    1    5    5    0  502  0.62862229088E+01  0.58715926773E+02  0.63233672881E+02  0.86646777443E+02  0.47000000000E+01 0.  1.
         11    1    6    6    0    0  0.63504518362E+02 -0.85869061112E+01  0.20638947837E+02  0.67324029713E+02  0.00000000000E+00 0. -1.
        -12    1    6    6    0    0  0.37514361738E+02 -0.52515352025E+02  0.10358164102E+03  0.12204239383E+03  0.00000000000E+00 0.  1.
</event>
<event>
12    1  0.1627564E-001  0.2680132E+03  0.7818608E-02  0.1102714E+00
         21   -1    0    0  503  502  0.00000000000E+00  0.00000000000E+00  0.10805983694E+04  0.10805983694E+04  0.00000000000E+00 0.  1.
         21   -1    0    0  501  503 -0.00000000000E+00 -0.00000000000E+00 -0.66313951200E+02  0.66313951200E+02  0.00000000000E+00 0.  1.
          6    2    1    2  501    0  0.19894060648E+03  0.41399822653E+02  0.46428016323E+03  0.53508248267E+03  0.17165629341E+03 0.  0.
         24    2    3    3    0    0  0.16878943362E+03  0.84862176694E+02  0.30726205355E+03  0.36932710203E+03  0.79379322286E+02 0.  0.
         -6    2    1    2    0  502 -0.19894060648E+03 -0.41399822653E+02  0.55000425493E+03  0.61182983789E+03  0.17475628707E+03 0.  0.
        -24    2    5    5    0    0 -0.17456712516E+03 -0.15060642619E+02  0.54140666600E+03  0.57463000547E+03  0.79862137781E+02 0.  0.
          5    1    3    3  501    0  0.30151172857E+02 -0.43462354041E+02  0.15701810968E+03  0.16575538064E+03  0.47000000000E+01 0. -1.
        -13    1    4    4    0    0  0.42627721212E+02  0.58550967181E+02  0.14527586413E+03  0.16232810931E+03  0.00000000000E+00 0.  1.
         14    1    4    4    0    0  0.12616171241E+03  0.26311209513E+02  0.16198618942E+03  0.20699899272E+03  0.00000000000E+00 0. -1.
         -5    1    5    5    0  502 -0.24373481321E+02 -0.26339180034E+02  0.85975889209E+01  0.37199832416E+02  0.47000000000E+01 0.  1.
         11    1    6    6    0    0 -0.22153232565E+02  0.26533818082E+02  0.95768159965E+02  0.10181527232E+03  0.00000000000E+00 0. -1.
        -12    1    6    6    0    0 -0.15241389259E+03 -0.41594460701E+02  0.44563850604E+03  0.47281473315E+03  0.00000000000E+00 0.  1.
</event>
<event>
12    1  0.1627564E-001  0.1741808E+03  0.7818608E-02  0.1174128E+00
         21   -1    0    0  503  502  0.00000000000E+00  0.00000000000E+00  0.86226021044E+02  0.86226021044E+02  0.00000000000E+00 0. -1.
         21   -1    0    0  501  503 -0.00000000000E+00 -0.00000000000E+00 -0.36707944415E+03  0.36707944415E+03  0.00000000000E+00 0. -1.
          6    2    1    2  501    0  0.16508186700E+02  0.11153373343E+02 -0.19385908024E+03  0.26061523770E+03  0.17303768713E+03 0.  0.
         24    2    3    3    0    0  0.10107280912E+02  0.44030866310E+02 -0.20466689768E+03  0.22510749128E+03  0.82121673799E+02 0.  0.
         -6    2    1    2    0  502 -0.16508186700E+02 -0.11153373343E+02 -0.86994342861E+02  0.19269022749E+03  0.17077643314E+03 0.  0.
        -24    2    5    5    0    0  0.37578824722E+02  0.12347350118E+02 -0.92389137918E-01  0.87563026590E+02  0.78119459596E+02 0.  0.
          5    1    3    3  501    0  0.64009057880E+01 -0.32877492966E+02  0.10807817436E+02  0.35507746428E+02  0.47000000000E+01 0. -1.
        -11    1    4    4    0    0  0.30547414680E+02 -0.40002716393E+01 -0.13253905290E+03  0.13607258086E+03  0.00000000000E+00 0.  1.
         12    1    4    4    0    0 -0.20440133768E+02  0.48031137949E+02 -0.72127844776E+02  0.89034910418E+02  0.00000000000E+00 0. -1.
         -5    1    5    5    0  502 -0.54087011422E+02 -0.23500723461E+02 -0.86901953723E+02  0.10512720090E+03  0.47000000000E+01 0.  1.
         11    1    6    6    0    0  0.56066809349E+01 -0.22556529129E+02 -0.24950110947E+02  0.34098972326E+02  0.00000000000E+00 0. -1.
        -12    1    6    6    0    0  0.31972143787E+02  0.34903879247E+02  0.24857721809E+02  0.53464054264E+02  0.00000000000E+00 0.  1.
</event>
<event>
12    1  0.1627564E-001  0.1819739E+03  0.7818608E-02  0.1166296E+00
         21   -1    0    0  501  502  0.00000000000E+00  0.00000000000E+00  0.61666522533E+03  0.61666522533E+03  0.00000000000E+00 0. -1.
         21   -1    0    0  502  503 -0.00000000000E+00 -0.00000000000E+00 -0.58816473788E+02  0.58816473788E+02  0.00000000000E+00 0. -1.
         -6    2    1    2    0  503 -0.36417953162E+02  0.41549982671E+02  0.17588081959E+03  0.25307818470E+03  0.17338349546E+03 0.  0.
        -24    2    3    3    0    0 -0.31583290102E+02  0.18195437189E+02  0.13713815877E+02  0.89099418224E+02  0.80137752862E+02 0.  0.
          6    2    1    2  501    0  0.36417953162E+02 -0.41549982671E+02  0.38196793195E+03  0.42240351442E+03  0.17167573964E+03 0.  0.
         24    2    5    5    0    0 -0.38682941353E+02 -0.55293222612E+02  0.22117828862E+03  0.24434616297E+03  0.78939860552E+02 0.  0.
          5    1    5    5  501    0  0.75100894515E+02  0.13743239941E+02  0.16078964333E+03  0.17805735145E+03  0.47000000000E+01 0. -1.
        -13    1    6    6    0    0 -0.17365838632E+01 -0.65427561569E+02  0.13455024219E+03  0.14962469452E+03  0.00000000000E+00 0.  1.
         14    1    6    6    0    0 -0.36946357490E+02  0.10134338956E+02  0.86628046422E+02  0.94721468447E+02  0.00000000000E+00 0. -1.
         -5    1    3    3    0  503 -0.48346630597E+01  0.23354545482E+02  0.16216700372E+03  0.16397876648E+03  0.47000000000E+01 0.  1.
         13    1    4    4    0    0 -0.17069336967E+02  0.49801613934E+02  0.31012008388E+01  0.52736898482E+02  0.00000000000E+00 0. -1.
        -14    1    4    4    0    0 -0.14513953135E+02 -0.31606176744E+02  0.10612615039E+02  0.36362519742E+02  0.00000000000E+00 0.  1.
</event>
<event>
12    1  0.1627564E-001  0.2428093E+03  0.7818608E-02  0.1118615E+00
         21   -1    0    0  503  502  0.00000000000E+00  0.00000000000E+00  0.36769444244E+03  0.36769444244E+03  0.00000000000E+00 0. -1.
         21   -1    0    0  501  503 -0.00000000000E+00 -0.00000000000E+00 -0.24251532351E+03  0.24251532351E+03  0.00000000000E+00 0.  1.
          6    2    1    2  501    0  0.81285342203E+02  0.14923737618E+03 -0.11755540080E+03  0.26976958597E+03  0.17342795608E+03 0.  0.
         24    2    3    3    0    0  0.29926306125E+02  0.70801966413E+02  0.12038576680E+02  0.10974910887E+03  0.77404375345E+02 0.  0.
         -6    2    1    2    0  502 -0.81285342203E+02 -0.14923737618E+03  0.24273451972E+03  0.34044017998E+03  0.16763164313E+03 0.  0.
        -24    2    5    5    0    0 -0.33771901719E+02 -0.95057868932E+01  0.10945052348E+03  0.14152020179E+03  0.82569056520E+02 0.  0.
          5    1    3    3  501    0  0.51359036078E+02  0.78435409765E+02 -0.12959397748E+03  0.16002047710E+03  0.47000000000E+01 0. -1.
        -13    1    4    4    0    0 -0.17784798301E+02  0.28883531485E+02 -0.19195117299E+02  0.38974478442E+02  0.00000000000E+00 0.  1.
         14    1    4    4    0    0  0.47711104426E+02  0.41918434928E+02  0.31233693979E+02  0.70774630426E+02  0.00000000000E+00 0. -1.
         -5    1    5    5    0  502 -0.47513440485E+02 -0.13973158928E+03  0.13328399624E+03  0.19891997819E+03  0.47000000000E+01 0.  1.
         13    1    6    6    0    0 -0.32007223862E+02  0.32569193074E+02  0.71460560354E+02  0.84804636683E+02  0.00000000000E+00 0. -1.
        -14    1    6    6    0    0 -0.17646778564E+01 -0.42074979967E+02  0.37989963126E+02  0.56715565107E+02  0.00000000000E+00 0.  1.
</event>
<event>
12    1  0.1627564E-001  0.2092123E+03  0.7818608E-02  0.1142407E+00
         21   -1    0    0  501  502  0.00000000000E+00  0.00000000000E+00  0.99492371222E+02  0.99492371222E+02  0.00000000000E+00 0. -1.
         21   -1    0    0  502  503 -0.00000000000E+00 -0.00000000000E+00 -0.52708310731E+03  0.52708310731E+03  0.00000000000E+00 0.  1.
         -6    2    1    2    0  503  0.84632027339E+02 -0.81975433996E+02 -0.34237509718E+03  0.40067401576E+03  0.17157041677E+03 0.  0.
        -24    2    3    3    0    0  0.12910219987E+02  0.87369594707E+01 -0.20790729545E+03  0.22325801964E+03  0.79847927909E+02 0.  0.
          6    2    1    2  501    0 -0.84632027339E+02  0.81975433996E+02 -0.85215638913E+02  0.22590146277E+03  0.17287918885E+03 0.  0.
         24    2    5    5    0    0 -0.43710898502E+02 -0.80223346071E+01  0.46158186226E+01  0.92238012637E+02  0.80694142869E+02 0.  0.
          5    1    5    5  501    0 -0.40921128837E+02  0.89997768603E+02 -0.89831457535E+02  0.13366345013E+03  0.47000000000E+01 0. -1.
        -11    1    6    6    0    0 -0.56190687761E+02  0.56077123865E+01 -0.21346736279E+02  0.60369884703E+02  0.00000000000E+00 0.  1.
         12    1    6    6    0    0  0.12479789259E+02 -0.13630046994E+02  0.25962554902E+02  0.31868127934E+02  0.00000000000E+00 0. -1.
         -5    1    3    3    0  503  0.71721807353E+02 -0.90712393467E+02 -0.13446780173E+03  0.17741599612E+03  0.47000000000E+01 0.  1.
         11    1    4    4    0    0  0.19498439292E+02 -0.50365273680E+01 -0.63393188680E+01  0.21112619602E+02  0.00000000000E+00 0. -1.
        -12    1    4    4    0    0 -0.65882193051E+01  0.13773486839E+02 -0.20156797658E+03  0.20214540004E+03  0.00000000000E+00 0.  1.
</event>
<event>
12    1  0.1627564E-001  0.1765083E+03  0.7818608E-02  0.1171306E+00
         21   -1    0    0  501  502  0.00000000000E+00  0.00000000000E+00  0.10670282282E+04  0.10670282282E+04  0.00000000000E+00 0.  1.
         21   -1    0    0  502  503 -0.00000000000E+00 -0.00000000000E+00 -0.85847544898E+02  0.85847544898E+02  0.00000000000E+00 0.  1.
         -6    2    1    2    0  503 -0.65914462230E+01  0.37708269261E+02  0.21958585352E+02  0.17754904789E+03  0.17197710372E+03 0.  0.
        -24    2    3    3    0    0 -0.37649139076E+02  0.73201925188E+02 -0.20874464313E+02  0.11366524682E+03  0.75551740874E+02 0.  0.
          6    2    1    2  501    0  0.65914462230E+01 -0.37708269261E+02  0.95922209793E+03  0.97532672518E+03  0.17230736191E+03 0.  0.
         24    2    5    5    0    0 -0.40206109607E+02 -0.22204349234E+02  0.85649635564E+03  0.86128703518E+03  0.78229057044E+02 0.  0.
          5    1    5    5  501    0  0.46797555829E+02 -0.15503920027E+02  0.10272574228E+03  0.11403969000E+03  0.47000000000E+01 0. -1.
        -11    1    6    6    0    0  0.22848091062E+02 -0.76271915265E+01  0.31909904787E+03  0.32000689316E+03  0.00000000000E+00 0.  1.
         12    1    6    6    0    0 -0.63054200668E+02 -0.14577157708E+02  0.53739730777E+03  0.54128014202E+03  0.00000000000E+00 0. -1.
         -5    1    3    3    0  503  0.31057692853E+02 -0.35493655926E+02  0.42833049666E+02  0.63883801077E+02  0.47000000000E+01 0.  1.
         11    1    4    4    0    0 -0.34941212415E+02  0.22296925719E+02  0.22116241663E+02  0.46980521143E+02  0.00000000000E+00 0. -1.
        -12    1    4    4    0    0 -0.27079266604E+01  0.50904999468E+02 -0.42990705977E+02  0.66684725673E+02  0.00000000000E+00 0.  1.
</event>
<event>
12    1  0.1627564E-001  0.1750810E+03  0.7818608E-02  0.1173878E+00
         21   -1    0    0  501  502  0.00000000000E+00  0.00000000000E+00  0.20976930225E+03  0.20976930225E+03  0.00000000000E+00 0.  1.
         21   -1    0    0  502  503 -0.00000000000E+00 -0.00000000000E+00 -0.38955193856E+03  0.38955193856E+03  0.00000000000E+00 0.  1.
         -6    2    1    2    0  503  0.21589060942E+02  0.20676343251E+02 -0.32915610865E+03  0.37282315973E+03  0.17251019057E+03 0.  0.
        -24    2    3    3    0    0 -0.23248902748E+02  0.10180196093E+01 -0.29966531893E+03  0.31547606430E+03  0.95834732400E+02 0.  0.
          6    2    1    2  501    0 -0.21589060942E+02 -0.20676343251E+02  0.14937347233E+03  0.22649808108E+03  0.16761666913E+03 0.  0.
         24    2    5    5    0    0  0.10702871714E+02 -0.18368789261E+02  0.16948779571E+03  0.18809535038E+03  0.78751406702E+02 0.  0.
          5    1    5    5  501    0 -0.32291932656E+02 -0.23075539899E+01 -0.20114323376E+02  0.38402730697E+02  0.47000000000E+01 0. -1.
        -13    1    6    6    0    0 -0.22117433815E+02  0.23284906614E-01  0.10076592984E+02  0.24304714499E+02  0.00000000000E+00 0.  1.
         14    1    6    6    0    0  0.32820305529E+02 -0.18392074168E+02  0.15941120273E+03  0.16379063588E+03  0.00000000000E+00 0. -1.
         -5    1    3    3    0  503  0.44837963690E+02  0.19658323642E+02 -0.29490789720E+02  0.57347095433E+02  0.47000000000E+01 0.  1.
         13    1    4    4    0    0  0.26540334400E+01 -0.34028218957E+01  0.67089092135E+01  0.79770015162E+01  0.00000000000E+00 0. -1.
        -14    1    4    4    0    0 -0.25902936188E+02  0.44208415050E+01 -0.30637422814E+03  0.30749906278E+03  0.00000000000E+00 0.  1.
</event>
<event>
12    1  0.1627564E-001  0.1754063E+03  0.7818608E-02  0.1172398E+00
         21   -1    0    0  503  502  0.00000000000E+00  0.00000000000E+00  0.67613464217E+03  0.67613464217E+03  0.00000000000E+00 0. -1.
         21   -1    0    0  501  503 -0.00000000000E+00 -0.00000000000E+00 -0.66149910647E+02  0.66149910647E+02  0.00000000000E+00 0. -1.
          6    2    1    2  501    0 -0.18846029401E+02 -0.27036586173E+02  0.97443660987E+02  0.20065554519E+03  0.17228241620E+03 0.  0.
         24    2    3    3    0    0 -0.79867373512E+01 -0.56225275440E+02  0.12501997576E+03  0.15879330753E+03  0.79751179349E+02 0.  0.
         -6    2    1    2    0  502  0.18846029401E+02  0.27036586173E+02  0.51254107054E+03  0.54162900763E+03  0.17198105450E+03 0.  0.
        -24    2    5    5    0    0  0.45081564293E+02  0.63409961313E+02  0.45939549711E+03  0.47193060245E+03  0.74973996369E+02 0.  0.
          5    1    3    3  501    0 -0.10859292050E+02  0.29188689266E+02 -0.27576314769E+02  0.41862237651E+02  0.47000000000E+01 0. -1.
        -13    1    4    4    0    0  0.11810232848E+02  0.12783468217E+02  0.36542228775E+01  0.17783475600E+02  0.00000000000E+00 0.  1.
         14    1    4    4    0    0 -0.19796970199E+02 -0.69008743656E+02  0.12136575288E+03  0.14100983193E+03  0.00000000000E+00 0. -1.
         -5    1    5    5    0  502 -0.26235534891E+02 -0.36373375139E+02  0.53145573424E+02  0.69698405180E+02  0.47000000000E+01 0.  1.
         13    1    6    6    0    0 -0.88210048091E+01  0.38403364408E+01  0.20335362965E+03  0.20358108214E+03  0.00000000000E+00 0. -1.
        -14    1    6    6    0    0  0.53902569102E+02  0.59569624872E+02  0.25604186746E+03  0.26834952032E+03  0.00000000000E+00 0.  1.
</event>
<event>
12    1  0.1627564E-001  0.1865190E+03  0.7818608E-02  0.1161847E+00
         21   -1    0    0  501  502  0.00000000000E+00  0.00000000000E+00  0.14067303624E+03  0.14067303624E+03  0.00000000000E+00 0.  1.
         21   -1    0    0  502  503 -0.00000000000E+00 -0.00000000000E+00 -0.41608842365E+03  0.41608842365E+03  0.00000000000E+00 0.  1.
         -6    2    1    2    0  503 -0.47549308079E+02  0.52404684822E+02 -0.31582964612E+03  0.36679381273E+03  0.17257505032E+03 0.  0.
        -24    2    3    3    0    0 -0.15062562672E+02  0.72725394816E+02 -0.31108330035E+03  0.32789731314E+03  0.72304663497E+02 0.  0.
          6    2    1    2  501    0  0.47549308079E+02 -0.52404684822E+02  0.40414258709E+02  0.18996764717E+03  0.17160188511E+03 0.  0.
         24    2    5    5    0    0  0.47720776509E+01  0.28991146304E+02  0.12108076497E+02  0.93642662248E+02  0.88085659374E+02 0.  0.
          5    1    5    5  501    0  0.42777230429E+02 -0.81395831126E+02  0.28306182211E+02  0.96324984917E+02  0.47000000000E+01 0. -1.
        -11    1    6    6    0    0  0.38777623862E+02 -0.94104990285E+01 -0.34212009367E+01  0.40049547066E+02  0.00000000000E+00 0.  1.
         12    1    6    6    0    0 -0.34005546211E+02  0.38401645333E+02  0.15529277434E+02  0.53593115183E+02  0.00000000000E+00 0. -1.
         -5    1    3    3    0  503 -0.32486745407E+02 -0.20320709994E+02 -0.47463457743E+01  0.38896499586E+02  0.47000000000E+01 0.  1.
         11    1    4    4    0    0  0.24151689296E+02  0.42853674348E+01 -0.83773223334E+02  0.87290442877E+02  0.00000000000E+00 0. -1.
        -12    1    4    4    0    0 -0.39214251969E+02  0.68440027382E+02 -0.22731007701E+03  0.24060687026E+03  0.00000000000E+00 0.  1.
</event>
<event>
12    1  0.1627564E-001  0.3104669E+03  0.7818608E-02  0.1080133E+00
         21   -1    0    0  503  502  0.00000000000E+00  0.00000000000E+00  0.16220546691E+03  0.16220546691E+03  0.00000000000E+00 0. -1.
         21   -1    0    0  501  503 -0.00000000000E+00 -0.00000000000E+00 -0.75824835567E+03  0.75824835567E+03  0.00000000000E+00 0.  1.
          6    2    1    2  501    0 -0.25255866089E+03  0.53922501036E+02 -0.51213722348E+03  0.59884868712E+03  0.17216765400E+03 0.  0.
         24    2    3    3    0    0 -0.10726601649E+03  0.82325092374E+02 -0.31439419643E+03  0.35178380807E+03  0.81392369084E+02 0.  0.
         -6    2    1    2    0  502  0.25255866089E+03 -0.53922501036E+02 -0.83905665284E+02  0.32160513547E+03  0.17232582274E+03 0.  0.
        -24    2    5    5    0    0  0.24920535588E+03 -0.70666881182E+02 -0.10800377984E+03  0.29169814554E+03  0.79535364192E+02 0.  0.
          5    1    3    3  501    0 -0.14529264440E+03 -0.28402591339E+02 -0.19774302705E+03  0.24706487905E+03  0.47000000000E+01 0. -1.
        -13    1    4    4    0    0 -0.10782110917E+03  0.64197091445E+02 -0.30795162734E+03  0.33253700984E+03  0.00000000000E+00 0.  1.
         14    1    4    4    0    0  0.55509268338E+00  0.18128000930E+02 -0.64425690873E+01  0.19246798228E+02  0.00000000000E+00 0. -1.
         -5    1    5    5    0  502  0.33533050129E+01  0.16744380146E+02  0.24098114561E+02  0.29906989925E+02  0.47000000000E+01 0.  1.
         13    1    6    6    0    0  0.22251869204E+03 -0.37635691228E+02 -0.74663586586E+02  0.23770920201E+03  0.00000000000E+00 0. -1.
        -14    1    6    6    0    0  0.26686663843E+02 -0.33031189954E+02 -0.33340193259E+02  0.53988943529E+02  0.00000000000E+00 0.  1.
</event>
<event>
12    1  0.1627564E-001  0.1863703E+03  0.7818608E-02  0.1162701E+00
         21   -1    0    0  501  502  0.00000000000E+00  0.00000000000E+00  0.14506688601E+03  0.14506688601E+03  0.00000000000E+00 0.  1.
         21   -1    0    0  502  503 -0.00000000000E+00 -0.00000000000E+00 -0.25138976423E+03  0.25138976423E+03  0.00000000000E+00 0.  1.
         -6    2    1    2    0  503  0.57466825464E+02 -0.20726030275E+02 -0.10524888773E+03  0.21403550978E+03  0.17607346966E+03 0.  0.
        -24    2    3    3    0    0  0.91052511437E+02 -0.54159148135E+02 -0.10021265196E+03  0.16614787732E+03  0.79616382474E+02 0.  0.
          6    2    1    2  501    0 -0.57466825464E+02  0.20726030275E+02 -0.10739904892E+01  0.18242114046E+03  0.17188459696E+03 0.  0.
         24    2    5    5    0    0 -0.29417956990E+02 -0.54340872467E+02  0.11630404658E+02  0.10114832480E+03  0.79229859791E+02 0.  0.
          5    1    5    5  501    0 -0.28048868473E+02  0.75066902742E+02 -0.12704395147E+02  0.81272815664E+02  0.47000000000E+01 0. -1.
        -13    1    6    6    0    0 -0.43121921752E+02 -0.29597582022E+02 -0.22400735718E+02  0.56897363365E+02  0.00000000000E+00 0.  1.
         14    1    6    6    0    0  0.13703964762E+02 -0.24743290445E+02  0.34031140376E+02  0.44250961431E+02  0.00000000000E+00 0. -1.
         -5    1    3    3    0  503 -0.33585685973E+02  0.33433117859E+02 -0.50362357673E+01  0.47887632462E+02  0.47000000000E+01 0.  1.
         11    1    4    4    0    0  0.12330525000E+02 -0.29592777314E+02  0.50226528642E+01  0.32449982399E+02  0.00000000000E+00 0. -1.
        -12    1    4    4    0    0  0.78721986437E+02 -0.24566370821E+02 -0.10523530482E+03  0.13369789492E+03  0.00000000000E+00 0.  1.
</event>
<event>
12    1  0.1627564E-001  0.2092826E+03  0.7818608E-02  0.1142319E+00
         21   -1    0    0  501  502  0.00000000000E+00  0.00000000000E+00  0.69332007909E+02  0.69332007909E+02  0.00000000000E+00 0. -1.
         21   -1    0    0  502  503 -0.00000000000E+00 -0.00000000000E+00 -0.80525463309E+03  0.80525463309E+03  0.00000000000E+00 0. -1.
         -6    2    1    2    0  503 -0.10557093670E+03 -0.57259165250E+02 -0.57194003593E+03  0.60871164322E+03  0.17026633611E+03 0.  0.
        -24    2    3    3    0    0 -0.38565560340E+02 -0.46090346931E+02 -0.49906203237E+03  0.50897320346E+03  0.79869813805E+02 0.  0.
          6    2    1    2  501    0  0.10557093670E+03  0.57259165250E+02 -0.16398258925E+03  0.26587499777E+03  0.17139250329E+03 0.  0.
         24    2    5    5    0    0  0.38497737414E+01 -0.10110861455E+02 -0.41985009540E+02  0.93273100486E+02  0.82583775470E+02 0.  0.
          5    1    5    5  501    0  0.10172116296E+03  0.67370026705E+02 -0.12199757971E+03  0.17260189729E+03  0.47000000000E+01 0. -1.
        -11    1    6    6    0    0 -0.26254596124E+01  0.20484471106E+02 -0.55490100038E+02  0.59208595634E+02  0.00000000000E+00 0.  1.
         12    1    6    6    0    0  0.64752333538E+01 -0.30595332561E+02  0.13505090498E+02  0.34064504852E+02  0.00000000000E+00 0. -1.
         -5    1    3    3    0  503 -0.67005376364E+02 -0.11168818319E+02 -0.72878003559E+02  0.99738439767E+02  0.47000000000E+01 0.  1.
         13    1    4    4    0    0 -0.45493960964E+02 -0.17109611178E+02 -0.13132725474E+03  0.14003316435E+03  0.00000000000E+00 0. -1.
        -14    1    4    4    0    0  0.69284006243E+01 -0.28980735753E+02 -0.36773477763E+03  0.36894003911E+03  0.00000000000E+00 0.  1.
</event>
<event>
12    1  0.1627564E-001  0.2235827E+03  0.7818608E-02  0.1131294E+00
         21   -1    0    0  501  502  0.00000000000E+00  0.00000000000E+00  0.58832630348E+03  0.58832630348E+03  0.00000000000E+00 0. -1.
         21   -1    0    0  502  503 -0.00000000000E+00 -0.00000000000E+00 -0.13358569742E+03  0.13358569742E+03  0.00000000000E+00 0. -1.
         -6    2    1    2    0  503  0.58881866733E+02  0.13019355730E+03  0.94599439573E+01  0.22378275548E+03  0.17196451528E+03 0.  0.
        -24    2    3    3    0    0  0.75993527652E+02  0.25531116605E+02  0.27111596346E+02  0.11616906553E+03  0.79582403642E+02 0.  0.
          6    2    1    2  501    0 -0.58881866733E+02 -0.13019355730E+03  0.44528066211E+03  0.49812924543E+03  0.17158216840E+03 0.  0.
         24    2    5    5    0    0  0.31017458518E+02 -0.81391065222E+02  0.20122739234E+03  0.23346405996E+03  0.80164927711E+02 0.  0.
          5    1    5    5  501    0 -0.89899325251E+02 -0.48802492080E+02  0.24405326977E+03  0.26466518547E+03  0.47000000000E+01 0. -1.
        -13    1    6    6    0    0 -0.70515239727E+01 -0.61926890420E+02  0.62374418435E+02  0.88177274978E+02  0.00000000000E+00 0.  1.
         14    1    6    6    0    0  0.38068982491E+02 -0.19464174801E+02  0.13885297390E+03  0.14528678498E+03  0.00000000000E+00 0. -1.
         -5    1    3    3    0  503 -0.17111660919E+02  0.10466244070E+03 -0.17651652389E+02  0.10761368995E+03  0.47000000000E+01 0.  1.
         13    1    4    4    0    0 -0.99697282966E+01  0.22841060015E+02 -0.28720949250E+01  0.25087017243E+02  0.00000000000E+00 0. -1.
        -14    1    4    4    0    0  0.85963255949E+02  0.26900565900E+01  0.29983691271E+02  0.91082048286E+02  0.00000000000E+00 0.  1.
</event>
<event>
12    1  0.1627564E-001  0.1757525E+03  0.7818608E-02  0.1172039E+00
         21   -1    0    0  501  502  0.00000000000E+00  0.00000000000E+00  0.86156386544E+02  0.86156386544E+02  0.00000000000E+00 0. -1.
         21   -1    0    0  502  503 -0.00000000000E+00 -0.00000000000E+00 -0.37869476934E+03  0.37869476934E+03  0.00000000000E+00 0. -1.
         -6    2    1    2    0  503 -0.18769246355E+02  0.30843076799E+02 -0.91880087372E+02  0.19810656420E+03  0.17175762087E+03 0.  0.
        -24    2    3    3    0    0  0.44035078788E+02  0.52624837314E+02 -0.35383089384E+02  0.11074050025E+03  0.79391647646E+02 0.  0.
          6    2    1    2  501    0  0.18769246355E+02 -0.30843076799E+02 -0.20065829542E+03  0.26674459168E+03  0.17200391180E+03 0.  0.
         24    2    5    5    0    0 -0.26232680537E+02 -0.69848300900E+02 -0.16504565225E+03  0.19719654149E+03  0.77970956025E+02 0.  0.
          5    1    5    5  501    0  0.45001926892E+02  0.39005224100E+02 -0.35612643167E+02  0.69548050184E+02  0.47000000000E+01 0. -1.
        -13    1    6    6    0    0 -0.38244586511E+02 -0.10793323767E+02 -0.31589454379E+02  0.50764533518E+02  0.00000000000E+00 0.  1.
         14    1    6    6    0    0  0.12011905975E+02 -0.59054977132E+02 -0.13345619787E+03  0.14643200798E+03  0.00000000000E+00 0. -1.
         -5    1    3    3    0  503 -0.62804325144E+02 -0.21781760514E+02 -0.56496997988E+02  0.87366063947E+02  0.47000000000E+01 0.  1.
         11    1    4    4    0    0  0.51288408662E+02 -0.33952061985E+00 -0.14019295943E+02  0.53171014623E+02  0.00000000000E+00 0. -1.
        -12    1    4    4    0    0 -0.72533298736E+01  0.52964357934E+02 -0.21363793441E+02  0.57569485631E+02  0.00000000000E+00 0.  1.
</event>
<event>
12    1  0.1627564E-001  0.3090739E+03  0.7818608E-02  0.1081069E+00
         21   -1    0    0  501  502  0.00000000000E+00  0.00000000000E+00  0.10363463074E+03  0.10363463074E+03  0.00000000000E+00 0. -1.
         21   -1    0    0  502  503 -0.00000000000E+00 -0.00000000000E+00 -0.14259569305E+04  0.14259569305E+04  0.00000000000E+00 0.  1.
         -6    2    1    2    0  503 -0.23301908131E+03 -0.10238746846E+03 -0.11174221795E+04  0.11587671487E+04  0.17125388103E+03 0.  0.
        -24    2    3    3    0    0 -0.65016644558E+02 -0.18390995136E+02 -0.25779209464E+03  0.27884317525E+03  0.82044863068E+02 0.  0.
          6    2    1    2  501    0  0.23301908131E+03  0.10238746846E+03 -0.20490012030E+03  0.37082441255E+03  0.17534423200E+03 0.  0.
         24    2    5    5    0    0  0.17067470487E+03  0.85048176089E+00 -0.12623947188E+03  0.22797425137E+03  0.83097995306E+02 0.  0.
          5    1    5    5  501    0  0.62344376441E+02  0.10153698670E+03 -0.78660648422E+02  0.14285016119E+03  0.47000000000E+01 0. -1.
        -13    1    6    6    0    0  0.88833693803E+02 -0.13283993199E+02 -0.18107979094E+02  0.91628535604E+02  0.00000000000E+00 0.  1.
         14    1    6    6    0    0  0.81841011067E+02  0.14134474960E+02 -0.10813149278E+03  0.13634571576E+03  0.00000000000E+00 0. -1.
         -5    1    3    3    0  503 -0.16800243675E+03 -0.83996473322E+02 -0.85963008486E+03  0.87992397346E+03  0.47000000000E+01 0.  1.
         13    1    4    4    0    0 -0.66052662627E+02  0.18491568738E+02 -0.18331045501E+03  0.19572331304E+03  0.00000000000E+00 0. -1.
        -14    1    4    4    0    0  0.10360180694E+01 -0.36882563874E+02 -0.74481639632E+02  0.83119862209E+02  0.00000000000E+00 0.  1.
</event>
<event>
12    1  0.1627564E-001  0.2386307E+03  0.7818608E-02  0.1121099E+00
         21   -1    0    0  501  502  0.00000000000E+00  0.00000000000E+00  0.42975506100E+02  0.42975506100E+02  0.00000000000E+00 0.  1.
         21   -1    0    0  502  503 -0.00000000000E+00 -0.00000000000E+00 -0.18809749984E+04  0.18809749984E+04  0.00000000000E+00 0. -1.
         -6    2    1    2    0  503  0.14680632036E+03  0.76097033202E+02 -0.14448433111E+04  0.14640414078E+04  0.16882593474E+03 0.  0.
        -24    2    3    3    0    0  0.11992728304E+03  0.10440434168E+03 -0.13413497339E+04  0.13533309888E+04  0.83682955243E+02 0.  0.
          6    2    1    2  501    0 -0.14680632036E+03 -0.76097033202E+02 -0.39315618129E+03  0.45990909669E+03  0.17205156255E+03 0.  0.
         24    2    5    5    0    0 -0.15737798044E+03 -0.41826563149E+02 -0.21585804867E+03  0.27895898494E+03  0.68601224411E+02 0.  0.
          5    1    5    5  501    0  0.10571660073E+02 -0.34270470052E+02 -0.17729813262E+03  0.18095011176E+03  0.47000000000E+01 0. -1.
        -11    1    6    6    0    0 -0.87694989927E+02 -0.40811462767E+02 -0.16982024715E+03  0.19543516340E+03  0.00000000000E+00 0.  1.
         12    1    6    6    0    0 -0.69682990510E+02 -0.10151003822E+01 -0.46037801517E+02  0.83523821535E+02  0.00000000000E+00 0. -1.
         -5    1    3    3    0  503  0.26879037329E+02 -0.28307308475E+02 -0.10349357716E+03  0.11071041900E+03  0.47000000000E+01 0.  1.
         11    1    4    4    0    0  0.25634969064E+02  0.53847784535E+02 -0.26252265649E+03  0.26921159097E+03  0.00000000000E+00 0. -1.
        -12    1    4    4    0    0  0.94292313971E+02  0.50556557141E+02 -0.10788270774E+04  0.10841193979E+04  0.00000000000E+00 0.  1.
</event>
<event>
12    1  0.1627564E-001  0.2131616E+03  0.7818608E-02  0.1139532E+00
         21   -1    0    0  503  502  0.00000000000E+00  0.00000000000E+00  0.46692608368E+03  0.46692608368E+03  0.00000000000E+00 0.  1.
         21   -1    0    0  501  503 -0.00000000000E+00 -0.00000000000E+00 -0.10866589649E+03  0.10866589649E+03  0.00000000000E+00 0. -1.
          6    2    1    2  501    0  0.84680154687E+02 -0.89983628518E+02  0.82801724798E+02  0.22867880436E+03  0.17369538836E+03 0.  0.
         24    2    3    3    0    0  0.99036973263E+02 -0.11538241117E+03  0.39483388805E+02  0.17624041544E+03  0.79876925098E+02 0.  0.
         -6    2    1    2    0  502 -0.84680154687E+02  0.89983628518E+02  0.27545846240E+03  0.34691317581E+03  0.17089062305E+03 0.  0.
        -24    2    5    5    0    0 -0.96901528390E+02  0.39917866511E+02  0.26167587713E+03  0.29335953768E+03  0.81253993150E+02 0.  0.
          5    1    3    3  501    0 -0.14356818576E+02  0.25398782648E+02  0.43318335993E+02  0.52438388923E+02  0.47000000000E+01 0. -1.
        -13    1    4    4    0    0  0.10698740438E+02 -0.72818575430E+02  0.19947234180E+02  0.76255492432E+02  0.00000000000E+00 0.  1.
         14    1    4    4    0    0  0.88338232825E+02 -0.42563835736E+02  0.19536154625E+02  0.99984923007E+02  0.00000000000E+00 0. -1.
         -5    1    5    5    0  502  0.12221373704E+02  0.50065762007E+02  0.13782585265E+02  0.53553638132E+02  0.47000000000E+01 0.  1.
         13    1    6    6    0    0 -0.70618241317E+02 -0.89844455321E+01  0.10262956526E+03  0.12490189724E+03  0.00000000000E+00 0. -1.
        -14    1    6    6    0    0 -0.26283287074E+02  0.48902312043E+02  0.15904631188E+03  0.16845764044E+03  0.00000000000E+00 0.  1.
</event>
<event>
12    1  0.1627564E-001  0.1861292E+03  0.7818608E-02  0.1162109E+00
         21   -1    0    0  503  502  0.00000000000E+00  0.00000000000E+00  0.44035931889E+03  0.44035931889E+03  0.00000000000E+00 0.  1.
         21   -1    0    0  501  503 -0.00000000000E+00 -0.00000000000E+00 -0.13115098400E+03  0.13115098400E+03  0.00000000000E+00 0.  1.
          6    2    1    2  501    0 -0.87579342964E+01 -0.67921457099E+02  0.33558827516E+03  0.38352104051E+03  0.17256555954E+03 0.  0.
         24    2    3    3    0    0  0.35751304571E+02 -0.75795232242E+02  0.30989406315E+03  0.33131614408E+03  0.81932801419E+02 0.  0.
         -6    2    1    2    0  502  0.87579342964E+01  0.67921457099E+02 -0.26379940273E+02  0.18798926238E+03  0.17307234260E+03 0.  0.
        -24    2    5    5    0    0  0.34594654257E+02  0.68041382464E+02 -0.74697171047E+02  0.13299657859E+03  0.79259086069E+02 0.  0.
          5    1    3    3  501    0 -0.44509238868E+02  0.78737751433E+01  0.25694212017E+02  0.52204896425E+02  0.47000000000E+01 0. -1.
        -11    1    4    4    0    0  0.46693726056E+01 -0.78013689067E+02  0.15816421542E+03  0.17641955040E+03  0.00000000000E+00 0.  1.
         12    1    4    4    0    0  0.31081931966E+02  0.22184568248E+01  0.15172984772E+03  0.15489659368E+03  0.00000000000E+00 0. -1.
         -5    1    5    5    0  502 -0.25836719960E+02 -0.11992536480E+00  0.48317230774E+02  0.54992683787E+02  0.47000000000E+01 0.  1.
         13    1    6    6    0    0  0.91761966302E+01 -0.12289908482E+02  0.58667779324E+01  0.16421434724E+02  0.00000000000E+00 0. -1.
        -14    1    6    6    0    0  0.25418457626E+02  0.80331290945E+02 -0.80563948979E+02  0.11657514387E+03  0.00000000000E+00 0.  1.
</event>
<event>
12    1  0.1627564E-001  0.1974760E+03  0.7818608E-02  0.1151888E+00
         21   -1    0    0  501  502  0.00000000000E+00  0.00000000000E+00  0.15332839224E+04  0.15332839224E+04  0.00000000000E+00 0. -1.
         21   -1    0    0  502  503 -0.00000000000E+00 -0.00000000000E+00 -0.41892146205E+02  0.41892146205E+02  0.00000000000E+00 0. -1.
         -6    2    1    2    0  503 -0.87419098734E+02 -0.35477781586E+02  0.25202657840E+03  0.32017833170E+03  0.17348197619E+03 0.  0.
        -24    2    3    3    0    0 -0.46865903259E+02  0.45780708749E+02  0.16830719374E+03  0.19657198363E+03  0.77594762085E+02 0.  0.
          6    2    1    2  501    0  0.87419098734E+02  0.35477781586E+02  0.12393651978E+04  0.12549977369E+04  0.17347176807E+03 0.  0.
         24    2    5    5    0    0  0.60388682367E+00 -0.37516618865E+02  0.58914758316E+03  0.59494463306E+03  0.73867315435E+02 0.  0.
          5    1    5    5  501    0  0.86815211910E+02  0.72994400451E+02  0.65021761462E+03  0.66005310384E+03  0.47000000000E+01 0. -1.
        -13    1    6    6    0    0 -0.14894492579E+02 -0.16174681810E+02  0.52665701668E+03  0.52711581219E+03  0.00000000000E+00 0.  1.
         14    1    6    6    0    0  0.15498379402E+02 -0.21341937055E+02  0.62490566476E+02  0.67828820864E+02  0.00000000000E+00 0. -1.
         -5    1    3    3    0  503 -0.40553195475E+02 -0.81258490334E+02  0.83719384655E+02  0.12360634806E+03  0.47000000000E+01 0.  1.
         13    1    4    4    0    0 -0.47410446516E+02  0.11207045350E+02  0.38084372872E+02  0.61836621523E+02  0.00000000000E+00 0. -1.
        -14    1    4    4    0    0  0.54454325679E+00  0.34573663398E+02  0.13022282087E+03  0.13473536211E+03  0.00000000000E+00 0.  1.
</event>
<event>
12    1  0.1627564E-001  0.2701908E+03  0.7818608E-02  0.1101404E+00
         21   -1    0    0  503  502  0.00000000000E+00  0.00000000000E+00  0.20958301043E+03  0.20958301043E+03  0.00000000000E+00 0. -1.
         21   -1    0    0  501  503 -0.00000000000E+00 -0.00000000000E+00 -0.71339435698E+03  0.71339435698E+03  0.00000000000E+00 0. -1.
          6    2    1    2  501    0  0.76378762554E+00 -0.20827916007E+03 -0.58261145394E+03  0.64153013891E+03  0.16954061747E+03 0.  0.
         24    2    3    3    0    0  0.22272139950E+02 -0.29120454387E+02 -0.20972242768E+03  0.22724911478E+03  0.79464548174E+02 0.  0.
         -6    2    1    2    0  502 -0.76378762554E+00  0.20827916007E+03  0.78800107393E+02  0.28144722850E+03  0.17211128264E+03 0.  0.
        -24    2    5    5    0    0 -0.61710133611E+01  0.94980261251E+02 -0.26825712657E+02  0.12638342735E+03  0.78700828562E+02 0.  0.
          5    1    3    3  501    0 -0.21508352324E+02 -0.17915870569E+03 -0.37288902627E+03  0.41428102413E+03  0.47000000000E+01 0. -1.
        -11    1    4    4    0    0  0.29667205953E+02 -0.22848482502E+02 -0.31983025439E+02  0.49245407684E+02  0.00000000000E+00 0.  1.
         12    1    4    4    0    0 -0.73950660036E+01 -0.62719718850E+01 -0.17773940224E+03  0.17800370710E+03  0.00000000000E+00 0. -1.
         -5    1    5    5    0  502  0.54072257356E+01  0.11329889882E+03  0.10562582005E+03  0.15506380115E+03  0.47000000000E+01 0.  1.
         13    1    6    6    0    0  0.19308207713E+02  0.36240330993E+02  0.21325473743E+02  0.46270339376E+02  0.00000000000E+00 0. -1.
        -14    1    6    6    0    0 -0.25479221074E+02  0.58739930257E+02 -0.48151186401E+02  0.80113087975E+02  0.00000000000E+00 0.  1.
</event>
<event>
12    1  0.1627564E-001  0.1722040E+03  0.7818608E-02  0.1176129E+00
         21   -1    0    0  501  502  0.00000000000E+00  0.00000000000E+00  0.29526279685E+03  0.29526279685E+03  0.00000000000E+00 0.  1.
         21   -1    0    0  502  503 -0.00000000000E+00 -0.00000000000E+00 -0.10359879004E+03  0.10359879004E+03  0.00000000000E+00 0.  1.
         -6    2    1    2    0  503 -0.10831633235E+02  0.42768486718E+01  0.54024575709E+02  0.17841014058E+03  0.16963463022E+03 0.  0.
        -24    2    3    3    0    0 -0.88038175807E+01  0.54139293402E+02  0.75641455808E+02  0.12382300899E+03  0.81252307189E+02 0.  0.
          6    2    1    2  501    0  0.10831633235E+02 -0.42768486718E+01  0.13763943110E+03  0.22045144631E+03  0.17180981192E+03 0.  0.
         24    2    5    5    0    0  0.35805958275E+02 -0.62157446477E+02  0.90034140657E+02  0.14131716681E+03  0.81968166689E+02 0.  0.
          5    1    5    5  501    0 -0.24974325040E+02  0.57880597805E+02  0.47605290447E+02  0.79134279500E+02  0.47000000000E+01 0. -1.
        -11    1    6    6    0    0  0.17091377228E+02 -0.56808927753E+02  0.10233862791E+03  0.11829016955E+03  0.00000000000E+00 0.  1.
         12    1    6    6    0    0  0.18714581047E+02 -0.53485187237E+01 -0.12304487256E+02  0.23026997263E+02  0.00000000000E+00 0. -1.
         -5    1    3    3    0  503 -0.20278156542E+01 -0.49862444730E+02 -0.21616880099E+02  0.54587131597E+02  0.47000000000E+01 0.  1.
         13    1    4    4    0    0 -0.65370887089E+01 -0.17796523646E+02  0.38312283675E+02  0.42746705874E+02  0.00000000000E+00 0. -1.
        -14    1    4    4    0    0 -0.22667288717E+01  0.71935817048E+02  0.37329172134E+02  0.81076303112E+02  0.00000000000E+00 0.  1.
</event>
<event>
12    1  0.1627564E-001  0.2014536E+03  0.7818608E-02  0.1150962E+00
         21   -1    0    0  501  502  0.00000000000E+00  0.00000000000E+00  0.84099004241E+03  0.84099004241E+03  0.00000000000E+00 0.  1.
         21   -1    0    0  502  503 -0.00000000000E+00 -0.00000000000E+00 -0.56491354864E+02  0.56491354864E+02  0.00000000000E+00 0. -1.
         -6    2    1    2    0  503 -0.65392878043E+02 -0.79171923790E+02  0.20425569458E+03  0.28688663984E+03  0.17331801215E+03 0.  0.
        -24    2    3    3    0    0 -0.90736239834E+02 -0.90234540495E+02  0.10553033775E+03  0.18425402535E+03  0.80234382622E+02 0.  0.
          6    2    1    2  501    0  0.65392878043E+02  0.79171923790E+02  0.58024299296E+03  0.61059475743E+03  0.15999876533E+03 0.  0.
         24    2    5    5    0    0  0.81445855919E+02  0.67773360719E+02  0.28159916742E+03  0.31126575804E+03  0.79759796708E+02 0.  0.
          5    1    5    5  501    0 -0.16052977875E+02  0.11398563071E+02  0.29864382555E+03  0.29932899939E+03  0.47000000000E+01 0. -1.
        -11    1    6    6    0    0 -0.13588073350E+02  0.66033180961E+01  0.67470166664E+02  0.69140891930E+02  0.00000000000E+00 0.  1.
         12    1    6    6    0    0  0.95033929269E+02  0.61170042623E+02  0.21412900075E+03  0.24212486611E+03  0.00000000000E+00 0. -1.
         -5    1    3    3    0  503  0.25343361790E+02  0.11062616705E+02  0.98725356836E+02  0.10263261449E+03  0.47000000000E+01 0.  1.
         13    1    4    4    0    0 -0.27843759407E+02 -0.80413792036E+02  0.75951888769E+02  0.11406288746E+03  0.00000000000E+00 0. -1.
        -14    1    4    4    0    0 -0.62892480427E+02 -0.98207484586E+01  0.29578448978E+02  0.70191137891E+02  0.00000000000E+00 0.  1.
</event>
<event>
12    1  0.1627564E-001  0.2613739E+03  0.7818608E-02  0.1106327E+00
         21   -1    0    0  503  502  0.00000000000E+00  0.00000000000E+00  0.20260597663E+03  0.20260597663E+03  0.00000000000E+00 0. -1.
         21   -1    0    0  501  503 -0.00000000000E+00 -0.00000000000E+00 -0.51039086279E+03  0.51039086279E+03  0.00000000000E+00 0.  1.
          6    2    1    2  501    0 -0.14590408989E+03  0.13172097432E+03 -0.36159311058E+03  0.44614177282E+03  0.17220477727E+03 0.  0.
         24    2    3    3    0    0 -0.21938255216E+02  0.28091839009E+02 -0.20881500686E+03  0.22372377709E+03  0.71959592018E+02 0.  0.
         -6    2    1    2    0  502  0.14590408989E+03 -0.13172097432E+03  0.53808224419E+02  0.26685506659E+03  0.17227269961E+03 0.  0.
        -24    2    5    5    0    0  0.12393266068E+03 -0.75502539706E+02  0.97365568598E+02  0.19227230502E+03  0.80178846623E+02 0.  0.
          5    1    3    3  501    0 -0.12396583467E+03  0.10362913531E+03 -0.15277810372E+03  0.22241799574E+03  0.47000000000E+01 0. -1.
        -13    1    4    4    0    0  0.55561177178E+01  0.38111230704E+02 -0.54964891748E+02  0.67115390744E+02  0.00000000000E+00 0.  1.
         14    1    4    4    0    0 -0.27494372933E+02 -0.10019391695E+02 -0.15385011511E+03  0.15660838634E+03  0.00000000000E+00 0. -1.
         -5    1    5    5    0  502  0.21971429210E+02 -0.56218434610E+02 -0.43557344178E+02  0.74582761570E+02  0.47000000000E+01 0.  1.
         11    1    6    6    0    0 -0.65025629782E+01 -0.24266321702E+01  0.25422544145E+02  0.26352943284E+02  0.00000000000E+00 0. -1.
        -12    1    6    6    0    0  0.13043522365E+03 -0.73075907536E+02  0.71943024453E+02  0.16591936174E+03  0.00000000000E+00 0.  1.
</event>
<event>
12    1  0.1627564E-001  0.1776930E+03  0.7818608E-02  0.1170291E+00
         21   -1    0    0  503  502  0.00000000000E+00  0.00000000000E+00  0.16287746279E+04  0.16287746279E+04  0.00000000000E+00 0. -1.
         21   -1    0    0  501  503 -0.00000000000E+00 -0.00000000000E+00 -0.36531831796E+02  0.36531831796E+02  0.00000000000E+00 0. -1.
          6    2    1    2  501    0 -0.40703778291E+02 -0.72669807983E+01  0.22508188649E+03  0.28676933540E+03  0.17281547825E+03 0.  0.
         24    2    3    3    0    0 -0.94609284132E+02 -0.13813055218E+02  0.15615397896E+03  0.19889555611E+03  0.77676637140E+02 0.  0.
         -6    2    1    2    0  502  0.40703778291E+02  0.72669807983E+01  0.13671609096E+04  0.13785371243E+04  0.17183143981E+03 0.  0.
        -24    2    5    5    0    0 -0.31490187465E+02  0.41790965879E+02  0.68042828473E+03  0.68714167860E+03  0.80267796052E+02 0.  0.
          5    1    3    3  501    0  0.53905505840E+02  0.65460744201E+01  0.68927907526E+02  0.87873779287E+02  0.47000000000E+01 0. -1.
        -11    1    4    4    0    0 -0.26898071175E+01  0.15075500199E+02  0.63147842506E+02  0.64978117715E+02  0.00000000000E+00 0.  1.
         12    1    4    4    0    0 -0.91919477014E+02 -0.28888555417E+02  0.93006136457E+02  0.13391743840E+03  0.00000000000E+00 0. -1.
         -5    1    5    5    0  502  0.72193965756E+02 -0.34523985080E+02  0.68673262488E+03  0.69139544568E+03  0.47000000000E+01 0.  1.
         11    1    6    6    0    0  0.78390608806E+01  0.11845003513E+02  0.49600826882E+03  0.49621160579E+03  0.00000000000E+00 0. -1.
        -12    1    6    6    0    0 -0.39329248345E+02  0.29945962365E+02  0.18442001590E+03  0.19093007281E+03  0.00000000000E+00 0.  1.
</event>
<event>
12    1  0.1627564E-001  0.1794484E+03  0.7818608E-02  0.1169366E+00
         21   -1    0    0  501  502  0.00000000000E+00  0.00000000000E+00  0.76984910407E+03  0.76984910407E+03  0.00000000000E+00 0. -1.
         21   -1    0    0  502  503 -0.00000000000E+00 -0.00000000000E+00 -0.52576970740E+02  0.52576970740E+02  0.00000000000E+00 0. -1.
         -6    2    1    2    0  503  0.41742448479E+02 -0.14327320685E+01  0.16124621513E+03  0.23816025023E+03  0.17022184986E+03 0.  0.
        -24    2    3    3    0    0  0.71581728732E+02  0.35802633999E+02  0.15200120290E+03  0.18932977427E+03  0.79596640949E+02 0.  0.
          6    2    1    2  501    0 -0.41742448479E+02  0.14327320685E+01  0.55602591820E+03  0.58426582458E+03  0.17452004852E+03 0.  0.
         24    2    5    5    0    0  0.26770401367E+02 -0.37872851611E+02  0.20849679530E+03  0.22784259194E+03  0.79311574017E+02 0.  0.
          5    1    5    5  501    0 -0.68512849846E+02  0.39305583679E+02  0.34752912289E+03  0.35642323263E+03  0.47000000000E+01 0. -1.
        -13    1    6    6    0    0  0.18407548844E+00  0.53442403573E+01 -0.56425907227E+01  0.77739062798E+01  0.00000000000E+00 0.  1.
         14    1    6    6    0    0  0.26586325878E+02 -0.43217091968E+02  0.21413938603E+03  0.22006868566E+03  0.00000000000E+00 0. -1.
         -5    1    3    3    0  503 -0.29839280253E+02 -0.37235366068E+02  0.92450122339E+01  0.48830475970E+02  0.47000000000E+01 0.  1.
         13    1    4    4    0    0  0.32006205875E+02 -0.23784922897E+02  0.69575679117E+02  0.80192860632E+02  0.00000000000E+00 0. -1.
        -14    1    4    4    0    0  0.39575522858E+02  0.59587556896E+02  0.82425523784E+02  0.10913691363E+03  0.00000000000E+00 0.  1.
</event>
<event>
12    1  0.1627564E-001  0.2015283E+03  0.7818608E-02  0.1148842E+00
         21   -1    0    0  501  502  0.00000000000E+00  0.00000000000E+00  0.42926427789E+03  0.42926427789E+03  0.00000000000E+00 0.  1.
         21   -1    0    0  502  503 -0.00000000000E+00 -0.00000000000E+00 -0.10077469063E+03  0.10077469063E+03  0.00000000000E+00 0.  1.
         -6    2    1    2    0  503  0.44363309412E+02  0.92802096673E+02  0.93578695727E+02  0.22052843258E+03  0.17115923847E+03 0.  0.
        -24    2    3    3    0    0  0.61777158141E+00  0.80417215140E+02 -0.44985280329E+01  0.11232358430E+03  0.78288190062E+02 0.  0.
          6    2    1    2  501    0 -0.44363309412E+02 -0.92802096673E+02  0.23491089153E+03  0.30951053594E+03  0.17330121906E+03 0.  0.
         24    2    5    5    0    0 -0.40346788146E+02 -0.60585874250E+01  0.19403412694E+03  0.21341907574E+03  0.78954985143E+02 0.  0.
          5    1    5    5  501    0 -0.40165212653E+01 -0.86743509248E+02  0.40876764598E+02  0.96091460202E+02  0.47000000000E+01 0. -1.
        -11    1    6    6    0    0 -0.60773067177E+02 -0.73495362238E+01  0.10053350914E+03  0.11770457866E+03  0.00000000000E+00 0.  1.
         12    1    6    6    0    0  0.20426279031E+02  0.12909487988E+01  0.93500617793E+02  0.95714497081E+02  0.00000000000E+00 0. -1.
         -5    1    3    3    0  503  0.43745537830E+02  0.12384881533E+02  0.98077223760E+02  0.10820484828E+03  0.47000000000E+01 0.  1.
         11    1    4    4    0    0 -0.34911515395E+02  0.61516709998E+02  0.52132011656E+01  0.70924586588E+02  0.00000000000E+00 0. -1.
        -12    1    4    4    0    0  0.35529286977E+02  0.18900505142E+02 -0.97117291985E+01  0.41398997714E+02  0.00000000000E+00 0.  1.
</event>
<event>
12    1  0.1627564E-001  0.1982944E+03  0.7818608E-02  0.1151722E+00
         21   -1    0    0  501  502  0.00000000000E+00  0.00000000000E+00  0.50434856597E+02  0.50434856597E+02  0.00000000000E+00 0. -1.
         21   -1    0    0  502  503 -0.00000000000E+00 -0.00000000000E+00 -0.17921868352E+04  0.17921868352E+04  0.00000000000E+00 0. -1.
         -6    2    1    2    0  503 -0.95078538605E+02  0.66991213257E+01 -0.15690850613E+04  0.15815652365E+04  0.17388461954E+03 0.  0.
        -24    2    3    3    0    0 -0.11571573506E+03  0.15515528543E+02 -0.15253687492E+04  0.15322009897E+04  0.85200873961E+02 0.  0.
          6    2    1    2  501    0  0.95078538605E+02 -0.66991213257E+01 -0.17266691726E+03  0.26105645528E+03  0.17103158128E+03 0.  0.
         24    2    5    5    0    0  0.20653581189E+02 -0.12261727107E+02 -0.16292731445E+03  0.18564447524E+03  0.85683376618E+02 0.  0.
          5    1    5    5  501    0  0.74424957416E+02  0.55626057813E+01 -0.97396028153E+01  0.75411980032E+02  0.47000000000E+01 0. -1.
        -11    1    6    6    0    0  0.33752323397E+02 -0.42311254766E+02 -0.11992252637E+03  0.13157079442E+03  0.00000000000E+00 0.  1.
         12    1    6    6    0    0 -0.13098742207E+02  0.30049527659E+02 -0.43004788076E+02  0.54073680820E+02  0.00000000000E+00 0. -1.
         -5    1    3    3    0  503  0.20637196459E+02 -0.88164072171E+01 -0.43716312138E+02  0.49364246786E+02  0.47000000000E+01 0.  1.
         11    1    4    4    0    0 -0.52607425625E+02  0.44557709742E+02 -0.53940584154E+03  0.54379370410E+03  0.00000000000E+00 0. -1.
        -12    1    4    4    0    0 -0.63108309439E+02 -0.29042181199E+02 -0.98596290764E+03  0.98840728561E+03  0.00000000000E+00 0.  1.
</event>
<event>
12    1  0.1627564E-001  0.1932572E+03  0.7818608E-02  0.1155635E+00
         21   -1    0    0  501  502  0.00000000000E+00  0.00000000000E+00  0.41582361942E+03  0.41582361942E+03  0.00000000000E+00 0.  1.
         21   -1    0    0  502  503 -0.00000000000E+00 -0.00000000000E+00 -0.10897712092E+03  0.10897712092E+03  0.00000000000E+00 0.  1.
         -6    2    1    2    0  503 -0.26867672462E+02  0.84583031046E+02  0.43038040924E+02  0.19799149236E+03  0.17167468397E+03 0.  0.
        -24    2    3    3    0    0 -0.10754852900E+02  0.10319401920E+03 -0.16336919306E+02  0.13354408949E+03  0.82477005569E+02 0.  0.
          6    2    1    2  501    0  0.26867672462E+02 -0.84583031046E+02  0.26380845758E+03  0.32680924797E+03  0.17126944066E+03 0.  0.
         24    2    5    5    0    0  0.58498956188E+02 -0.68956572800E+02  0.93703931873E+02  0.15302097457E+03  0.80360780244E+02 0.  0.
          5    1    5    5  501    0 -0.31631283726E+02 -0.15626458246E+02  0.17010452570E+03  0.17378827340E+03  0.47000000000E+01 0. -1.
        -13    1    6    6    0    0  0.46026811559E+02 -0.12837670368E+02  0.81157485119E+02  0.94179671658E+02  0.00000000000E+00 0.  1.
         14    1    6    6    0    0  0.12472144628E+02 -0.56118902432E+02  0.12546446754E+02  0.58841302908E+02  0.00000000000E+00 0. -1.
         -5    1    3    3    0  503 -0.16112819562E+02 -0.18610988151E+02  0.59374960230E+02  0.64447402868E+02  0.47000000000E+01 0.  1.
         11    1    4    4    0    0 -0.23609434339E+02  0.18135577598E+02  0.24276806313E+02  0.38414422934E+02  0.00000000000E+00 0. -1.
        -12    1    4    4    0    0  0.12854581439E+02  0.85058441599E+02 -0.40613725619E+02  0.95129666560E+02  0.00000000000E+00 0.  1.
</event>
<event>
12    1  0.1627564E-001  0.1980335E+03  0.7818608E-02  0.1152292E+00
         21   -1    0    0  503  502  0.00000000000E+00  0.00000000000E+00  0.26650612579E+03  0.26650612579E+03  0.00000000000E+00 0. -1.
         21   -1    0    0  501  503 -0.00000000000E+00 -0.00000000000E+00 -0.14709288460E+03  0.14709288460E+03  0.00000000000E+00 0. -1.
          6    2    1    2  501    0  0.42335258082E+02  0.83276725493E+02  0.30980019917E+02  0.20044205065E+03  0.17461376506E+03 0.  0.
         24    2    3    3    0    0 -0.23304705383E+02  0.81369802688E+02 -0.18330209465E+02  0.11818738586E+03  0.80424545470E+02 0.  0.
         -6    2    1    2    0  502 -0.42335258082E+02 -0.83276725493E+02  0.88433221279E+02  0.21315695974E+03  0.16996519577E+03 0.  0.
        -24    2    5    5    0    0  0.16359794166E+02  0.98713442801E+01  0.24839441278E+02  0.85925159803E+02  0.80006555613E+02 0.  0.
          5    1    3    3  501    0  0.65639963465E+02  0.19069228051E+01  0.49310229383E+02  0.82254664792E+02  0.47000000000E+01 0. -1.
        -13    1    4    4    0    0 -0.24982127862E+02  0.34184191872E+01  0.19164223667E+02  0.31671118878E+02  0.00000000000E+00 0.  1.
         14    1    4    4    0    0  0.16774224783E+01  0.77951383501E+02 -0.37494433133E+02  0.86516266978E+02  0.00000000000E+00 0. -1.
         -5    1    5    5    0  502 -0.58695052247E+02 -0.93148069773E+02  0.63593780001E+02  0.12723179994E+03  0.47000000000E+01 0.  1.
         11    1    6    6    0    0 -0.19959275208E+02  0.24542275397E+02  0.33215852566E+02  0.45869257790E+02  0.00000000000E+00 0. -1.
        -12    1    6    6    0    0  0.36319069374E+02 -0.14670931117E+02 -0.83764112874E+01  0.40055902013E+02  0.00000000000E+00 0.  1.
</event>
<event>
12    1  0.1627564E-001  0.1740451E+03  0.7818608E-02  0.1177939E+00
         21   -1    0    0  503  502  0.00000000000E+00  0.00000000000E+00  0.16983280587E+03  0.16983280587E+03  0.00000000000E+00 0. -1.
         21   -1    0    0  501  503 -0.00000000000E+00 -0.00000000000E+00 -0.18987072930E+03  0.18987072930E+03  0.00000000000E+00 0. -1.
          6    2    1    2  501    0  0.18096581617E+02  0.16516011120E+01  0.57925245987E+02  0.18343129666E+03  0.17309388326E+03 0.  0.
         24    2    3    3    0    0  0.64090811927E+02 -0.21092050149E+01 -0.64127908550E+01  0.10411493096E+03  0.81772330542E+02 0.  0.
         -6    2    1    2    0  502 -0.18096581617E+02 -0.16516011120E+01 -0.77963169415E+02  0.17627223850E+03  0.15704595579E+03 0.  0.
        -24    2    5    5    0    0  0.18389984926E+02 -0.45437104680E+02 -0.68040804087E+02  0.11822929583E+03  0.83342026273E+02 0.  0.
          5    1    3    3  501    0 -0.45994230310E+02  0.37608061269E+01  0.64338036842E+02  0.79316365708E+02  0.47000000000E+01 0. -1.
        -13    1    4    4    0    0 -0.19478417415E+02  0.47907000889E+01 -0.16312795657E+01  0.20125124232E+02  0.00000000000E+00 0.  1.
         14    1    4    4    0    0  0.83569229342E+02 -0.68999051038E+01 -0.47815112893E+01  0.83989806724E+02  0.00000000000E+00 0. -1.
         -5    1    5    5    0  502 -0.36486566542E+02  0.43785503568E+02 -0.99223653273E+01  0.58042942676E+02  0.47000000000E+01 0.  1.
         11    1    6    6    0    0 -0.16593972130E+02 -0.13614201702E+02  0.12493825799E+02  0.24835500441E+02  0.00000000000E+00 0. -1.
        -12    1    6    6    0    0  0.34983957056E+02 -0.31822902978E+02 -0.80534629887E+02  0.93393795384E+02  0.00000000000E+00 0.  1.
</event>
<event>
12    1  0.1627564E-001  0.1790497E+03  0.7818608E-02  0.1169369E+00
         21   -1    0    0  501  502  0.00000000000E+00  0.00000000000E+00  0.30539878056E+03  0.30539878056E+03  0.00000000000E+00 0.  1.
         21   -1    0    0  502  503 -0.00000000000E+00 -0.00000000000E+00 -0.10936889329E+03  0.10936889329E+03  0.00000000000E+00 0.  1.
         -6    2    1    2    0  503  0.30202456880E+02 -0.28104935611E+02  0.50429115889E+02  0.18601587418E+03  0.17423183954E+03 0.  0.
        -24    2    3    3    0    0  0.93809797485E+01 -0.12825549105E+02  0.10056765178E+03  0.12942120709E+03  0.79896800754E+02 0.  0.
          6    2    1    2  501    0 -0.30202456880E+02  0.28104935611E+02  0.14560077139E+03  0.22875179967E+03  0.17153928243E+03 0.  0.
         24    2    5    5    0    0 -0.47390782148E+02 -0.25089552035E+02  0.30287374283E+02  0.10051622897E+03  0.79440640674E+02 0.  0.
          5    1    5    5  501    0  0.17188325268E+02  0.53194487646E+02  0.11531339711E+03  0.12823557070E+03  0.47000000000E+01 0. -1.
        -13    1    6    6    0    0 -0.27280928759E+02 -0.12961165416E+02  0.57269283597E+02  0.64745746784E+02  0.00000000000E+00 0.  1.
         14    1    6    6    0    0 -0.20109853389E+02 -0.12128386618E+02 -0.26981909314E+02  0.35770482182E+02  0.00000000000E+00 0. -1.
         -5    1    3    3    0  503  0.20821477131E+02 -0.15279386506E+02 -0.50138535887E+02  0.56594667088E+02  0.47000000000E+01 0.  1.
         13    1    4    4    0    0 -0.21814686715E+02  0.13208964248E+02  0.79827196687E+02  0.83801781746E+02  0.00000000000E+00 0. -1.
        -14    1    4    4    0    0  0.31195666463E+02 -0.26034513353E+02  0.20740455089E+02  0.45619425346E+02  0.00000000000E+00 0.  1.
</event>
<event>
12    1  0.1627564E-001  0.1845899E+03  0.7818608E-02  0.1163585E+00
         21   -1    0    0  503  502  0.00000000000E+00  0.00000000000E+00  0.35291091978E+03  0.35291091978E+03  0.00000000000E+00 0. -1.
         21   -1    0    0  501  503 -0.00000000000E+00 -0.00000000000E+00 -0.26463713611E+03  0.26463713611E+03  0.00000000000E+00 0. -1.
          6    2    1    2  501    0 -0.25473908444E+02 -0.62476622718E+02 -0.20216631591E+03  0.27376020909E+03  0.17181729947E+03 0.  0.
         24    2    3    3    0    0 -0.71011272317E+02  0.28350778572E+00 -0.12110260743E+03  0.16148420845E+03  0.79803677097E+02 0.  0.
         -6    2    1    2    0  502  0.25473908444E+02  0.62476622718E+02  0.29044009958E+03  0.34378784680E+03  0.17112096238E+03 0.  0.
        -24    2    5    5    0    0  0.70341777713E+02  0.19185617435E+02  0.11416337256E+03  0.15675092178E+03  0.78876626686E+02 0.  0.
          5    1    3    3  501    0  0.45537363873E+02 -0.62760130504E+02 -0.81063708473E+02  0.11227600064E+03  0.47000000000E+01 0. -1.
        -11    1    4    4    0    0 -0.48975564590E+02 -0.37478372893E+02 -0.57598944872E+02  0.84385264187E+02  0.00000000000E+00 0.  1.
         12    1    4    4    0    0 -0.22035707727E+02  0.37761880679E+02 -0.63503662562E+02  0.77098944261E+02  0.00000000000E+00 0. -1.
         -5    1    5    5    0  502 -0.44867869269E+02  0.43291005283E+02  0.17627672702E+03  0.18703692502E+03  0.47000000000E+01 0.  1.
         11    1    6    6    0    0  0.88268534727E+01 -0.27759669361E+02  0.40710276710E+02  0.50058358094E+02  0.00000000000E+00 0. -1.
        -12    1    6    6    0    0  0.61514924240E+02  0.46945286796E+02  0.73453095846E+02  0.10669256369E+03  0.00000000000E+00 0.  1.
</event>
<event>
12    1  0.1627564E-001  0.1820830E+03  0.7818608E-02  0.1166170E+00
         21   -1    0    0  503  502  0.00000000000E+00  0.00000000000E+00  0.27777884322E+03  0.27777884322E+03  0.00000000000E+00 0. -1.
         21   -1    0    0  501  503 -0.00000000000E+00 -0.00000000000E+00 -0.40110064478E+03  0.40110064478E+03  0.00000000000E+00 0. -1.
          6    2    1    2  501    0  0.60829489865E+02  0.17637103082E+02 -0.34673278073E+03  0.39163481699E+03  0.17071295909E+03 0.  0.
         24    2    3    3    0    0 -0.29209193646E+02  0.23839882662E+02 -0.12644384296E+03  0.15352823348E+03  0.78494305878E+02 0.  0.
         -6    2    1    2    0  502 -0.60829489865E+02 -0.17637103082E+02  0.22341097917E+03  0.28724467101E+03  0.16907318287E+03 0.  0.
        -24    2    5    5    0    0 -0.11247378910E+02 -0.30739390165E+02  0.21908710406E+03  0.23556448574E+03  0.80125240331E+02 0.  0.
          5    1    3    3  501    0  0.90038683511E+02 -0.62027795796E+01 -0.22028893778E+03  0.23810658351E+03  0.47000000000E+01 0. -1.
        -11    1    4    4    0    0 -0.46439427069E+02 -0.98991334040E+01 -0.54995448264E+02  0.72657501735E+02  0.00000000000E+00 0.  1.
         12    1    4    4    0    0  0.17230233423E+02  0.33739016066E+02 -0.71448394694E+02  0.80870731746E+02  0.00000000000E+00 0. -1.
         -5    1    5    5    0  502 -0.49582110955E+02  0.13102287083E+02  0.43238751165E+01  0.51680185270E+02  0.47000000000E+01 0.  1.
         13    1    6    6    0    0 -0.37033675456E+02 -0.32637431787E+01  0.49868762996E+02  0.62201596925E+02  0.00000000000E+00 0. -1.
        -14    1    6    6    0    0  0.25786296546E+02 -0.27475646986E+02  0.16921834106E+03  0.17336288882E+03  0.00000000000E+00 0.  1.
</event>
<event>
12    1  0.1627564E-001  0.2929560E+03  0.7818608E-02  0.1089735E+00
         21   -1    0    0  501  502  0.00000000000E+00  0.00000000000E+00  0.59147168246E+02  0.59147168246E+02  0.00000000000E+00 0. -1.
         21   -1    0    0  502  503 -0.00000000000E+00 -0.00000000000E+00 -0.15123246222E+04  0.15123246222E+04  0.00000000000E+00 0.  1.
         -6    2    1    2    0  503 -0.22765872320E+03 -0.63920985327E+02 -0.91623473013E+03  0.95980954300E+03  0.16072924908E+03 0.  0.
        -24    2    3    3    0    0 -0.21724325207E+03 -0.23560507160E+02 -0.65455935855E+03  0.69479342965E+03  0.80871675867E+02 0.  0.
          6    2    1    2  501    0  0.22765872320E+03  0.63920985327E+02 -0.53694272377E+03  0.61166224740E+03  0.17294169442E+03 0.  0.
         24    2    5    5    0    0  0.62585094964E+02  0.41808191415E+02 -0.31676842547E+03  0.33555159924E+03  0.81165395323E+02 0.  0.
          5    1    5    5  501    0  0.16507362824E+03  0.22112793911E+02 -0.22017429830E+03  0.27611064816E+03  0.47000000000E+01 0. -1.
        -13    1    6    6    0    0 -0.97396784303E+01 -0.12691890264E+02 -0.22111215912E+02  0.27291963717E+02  0.00000000000E+00 0.  1.
         14    1    6    6    0    0  0.72324773394E+02  0.54500081680E+02 -0.29465720956E+03  0.30825963552E+03  0.00000000000E+00 0. -1.
         -5    1    3    3    0  503 -0.10415471128E+02 -0.40360478167E+02 -0.26167537159E+03  0.26501611335E+03  0.47000000000E+01 0.  1.
         13    1    4    4    0    0 -0.71666750038E+02 -0.46780930612E+02 -0.23921705532E+03  0.25406569639E+03  0.00000000000E+00 0. -1.
        -14    1    4    4    0    0 -0.14557650204E+03  0.23220423452E+02 -0.41534230323E+03  0.44072773326E+03  0.00000000000E+00 0.  1.
</event>
<event>
12    1  0.1627564E-001  0.1863079E+03  0.7818608E-02  0.1162023E+00
         21   -1    0    0  501  502  0.00000000000E+00  0.00000000000E+00  0.18778406001E+03  0.18778406001E+03  0.00000000000E+00 0.  1.
         21   -1    0    0  502  503 -0.00000000000E+00 -0.00000000000E+00 -0.25519482645E+03  0.25519482645E+03  0.00000000000E+00 0.  1.
         -6    2    1    2    0  503 -0.93309516173E+01  0.68589491249E+02 -0.15071615120E+03  0.23963721366E+03  0.17297124319E+03 0.  0.
        -24    2    3    3    0    0 -0.57111405298E+01  0.14661160780E+02 -0.19207037622E+01  0.81259364716E+02  0.79698359390E+02 0.  0.
          6    2    1    2  501    0  0.93309516173E+01 -0.68589491249E+02  0.83305384749E+02  0.20334167280E+03  0.17209434564E+03 0.  0.
         24    2    5    5    0    0 -0.41108012216E+01 -0.11076342157E+03  0.63962024473E+02  0.15480738899E+03  0.87113448264E+02 0.  0.
          5    1    5    5  501    0  0.13441752839E+02  0.42173930317E+02  0.19343360276E+02  0.48534283805E+02  0.47000000000E+01 0. -1.
        -13    1    6    6    0    0  0.37961930447E+02 -0.68097912856E+02  0.51972023696E+02  0.93699120304E+02  0.00000000000E+00 0.  1.
         14    1    6    6    0    0 -0.42072731669E+02 -0.42665508710E+02  0.11990000777E+02  0.61108268689E+02  0.00000000000E+00 0. -1.
         -5    1    3    3    0  503 -0.36198110875E+01  0.53928330469E+02 -0.14879544743E+03  0.15837784895E+03  0.47000000000E+01 0.  1.
         13    1    4    4    0    0  0.13669693801E+02 -0.26172419038E+02 -0.16426955967E+02  0.33789065232E+02  0.00000000000E+00 0. -1.
        -14    1    4    4    0    0 -0.19380834331E+02  0.40833579818E+02  0.14506252204E+02  0.47470299484E+02  0.00000000000E+00 0.  1.
</event>
<event>
12    1  0.1627564E-001  0.1747165E+03  0.7818608E-02  0.1173708E+00
         21   -1    0    0  503  502  0.00000000000E+00  0.00000000000E+00  0.47558130625E+02  0.47558130625E+02  0.00000000000E+00 0.  1.
         21   -1    0    0  501  503 -0.00000000000E+00 -0.00000000000E+00 -0.26107208385E+04  0.26107208385E+04  0.00000000000E+00 0.  1.
          6    2    1    2  501    0  0.88385315496E+01  0.35490908558E+02 -0.24411756464E+04  0.24474199473E+04  0.17084536179E+03 0.  0.
         24    2    3    3    0    0 -0.47204448939E+02  0.21372720249E+02 -0.20252931002E+04  0.20275145757E+04  0.79486851797E+02 0.  0.
         -6    2    1    2    0  502 -0.88385315496E+01 -0.35490908558E+02 -0.12198706150E+03  0.21085902185E+03  0.16805641818E+03 0.  0.
        -24    2    5    5    0    0  0.14942794874E+02  0.39686546813E+02 -0.49035072889E+02  0.10333561079E+03  0.80470497502E+02 0.  0.
          5    1    3    3  501    0  0.56042980488E+02  0.14118188309E+02 -0.41588254616E+03  0.41990537161E+03  0.47000000000E+01 0. -1.
        -11    1    4    4    0    0 -0.37250412992E+02  0.46031289788E+02 -0.92117495898E+03  0.92307625793E+03  0.00000000000E+00 0.  1.
         12    1    4    4    0    0 -0.99540359465E+01 -0.24658569539E+02 -0.11041181413E+04  0.11044383178E+04  0.00000000000E+00 0. -1.
         -5    1    5    5    0  502 -0.23781326424E+02 -0.75177455371E+02 -0.72951988611E+02  0.10752341105E+03  0.47000000000E+01 0.  1.
         11    1    6    6    0    0 -0.45617377306E+01  0.29862435623E+02 -0.68002080377E+02  0.74410062814E+02  0.00000000000E+00 0. -1.
        -12    1    6    6    0    0  0.19504532605E+02  0.98241111902E+01  0.18967007488E+02  0.28925547979E+02  0.00000000000E+00 0.  1.
</event>
<event>
12    1  0.1627564E-001  0.2032312E+03  0.7818608E-02  0.1147248E+00
         21   -1    0    0  501  502  0.00000000000E+00  0.00000000000E+00  0.20732918913E+03  0.20732918913E+03  0.00000000000E+00 0.  1.
         21   -1    0    0  502  503 -0.00000000000E+00 -0.00000000000E+00 -0.19989258235E+03  0.19989258235E+03  0.00000000000E+00 0.  1.
         -6    2    1    2    0  503 -0.47385434404E+02  0.97202215211E+02 -0.14806677999E+02  0.20376987599E+03  0.17207345702E+03 0.  0.
        -24    2    3    3    0    0 -0.99150080438E+02  0.63895550590E+02 -0.18188358691E+02  0.14194400558E+03  0.76836869362E+02 0.  0.
          6    2    1    2  501    0  0.47385434404E+02 -0.97202215211E+02  0.22243284779E+02  0.20345189548E+03  0.17089253940E+03 0.  0.
         24    2    5    5    0    0 -0.40078121072E+01 -0.36445983528E+02  0.68400293226E+02  0.11133704921E+03  0.79830859568E+02 0.  0.
          5    1    5    5  501    0  0.51393246512E+02 -0.60756231684E+02 -0.46157008447E+02  0.92114846275E+02  0.47000000000E+01 0. -1.
        -11    1    6    6    0    0  0.31532410913E+02 -0.22416968413E+02  0.74483042630E+01  0.39399119879E+02  0.00000000000E+00 0.  1.
         12    1    6    6    0    0 -0.35540223020E+02 -0.14029015115E+02  0.60951988963E+02  0.71937929328E+02  0.00000000000E+00 0. -1.
         -5    1    3    3    0  503  0.51764646033E+02  0.33306664622E+02  0.33816806918E+01  0.61825870406E+02  0.47000000000E+01 0.  1.
         13    1    4    4    0    0 -0.29899174302E+02 -0.56374742618E+01  0.20250737310E+02  0.36549064305E+02  0.00000000000E+00 0. -1.
        -14    1    4    4    0    0 -0.69250906136E+02  0.69533024851E+02 -0.38439096002E+02  0.10539494128E+03  0.00000000000E+00 0.  1.
</event>
<event>
12    1  0.1627564E-001  0.2714939E+03  0.7818608E-02  0.1100472E+00
         21   -1    0    0  503  502  0.00000000000E+00  0.00000000000E+00  0.20008215737E+03  0.20008215737E+03  0.00000000000E+00 0.  1.
         21   -1    0    0  501  503 -0.00000000000E+00 -0.00000000000E+00 -0.46366970051E+03  0.46366970051E+03  0.00000000000E+00 0. -1.
          6    2    1    2  501    0  0.98620686665E+02 -0.18597812792E+03 -0.28250544870E+03  0.39159966041E+03  0.17095923954E+03 0.  0.
         24    2    3    3    0    0  0.95307108932E+02 -0.54126916463E+02 -0.16585238604E+03  0.21545838533E+03  0.83079081324E+02 0.  0.
         -6    2    1    2    0  502 -0.98620686665E+02  0.18597812792E+03  0.18917905556E+02  0.27215219747E+03  0.17144978137E+03 0.  0.
        -24    2    5    5    0    0  0.72048655849E+01  0.11466543426E+03  0.33847332789E+02  0.14358499487E+03  0.79189247460E+02 0.  0.
          5    1    3    3  501    0  0.33135777330E+01 -0.13185121146E+03 -0.11665306266E+03  0.17614127508E+03  0.47000000000E+01 0. -1.
        -11    1    4    4    0    0  0.92390049179E+01 -0.32476812866E+02 -0.85246441343E+01  0.34824878226E+02  0.00000000000E+00 0.  1.
         12    1    4    4    0    0  0.86068104014E+02 -0.21650103596E+02 -0.15732774191E+03  0.18063350710E+03  0.00000000000E+00 0. -1.
         -5    1    5    5    0  502 -0.10582555225E+03  0.71312693661E+02 -0.14929427233E+02  0.12856720260E+03  0.47000000000E+01 0.  1.
         11    1    6    6    0    0  0.25078519734E+01 -0.35430097209E+01  0.24536422370E+02  0.24917428882E+02  0.00000000000E+00 0. -1.
        -12    1    6    6    0    0  0.46970136115E+01  0.11820844398E+03  0.93109104193E+01  0.11866756599E+03  0.00000000000E+00 0.  1.
</event>
<event>
12    1  0.1627564E-001  0.1893641E+03  0.7818608E-02  0.1159087E+00
         21   -1    0    0  501  502  0.00000000000E+00  0.00000000000E+00  0.11784805949E+03  0.11784805949E+03  0.00000000000E+00 0. -1.
         21   -1    0    0  502  503 -0.00000000000E+00 -0.00000000000E+00 -0.38773281754E+03  0.38773281754E+03  0.00000000000E+00 0. -1.
         -6    2    1    2    0  503 -0.23219396595E+02  0.75619991174E+02 -0.25253607994E+03  0.31564732536E+03  0.17205010577E+03 0.  0.
        -24    2    3    3    0    0 -0.70451579313E+02  0.76496491324E+02 -0.22578750311E+03  0.26115674178E+03  0.80048166773E+02 0.  0.
          6    2    1    2  501    0  0.23219396595E+02 -0.75619991174E+02 -0.17348678116E+02  0.18993355167E+03  0.17180295101E+03 0.  0.
         24    2    5    5    0    0 -0.32871386161E+02 -0.55630523554E+02 -0.58061636307E+02  0.11764669470E+03  0.79336674905E+02 0.  0.
          5    1    5    5  501    0  0.56090782755E+02 -0.19989467620E+02  0.40712958191E+02  0.72286856969E+02  0.47000000000E+01 0. -1.
        -13    1    6    6    0    0 -0.59015597657E+02 -0.43143912987E+02 -0.37861285364E+02  0.82326878503E+02  0.00000000000E+00 0.  1.
         14    1    6    6    0    0  0.26144211496E+02 -0.12486610567E+02 -0.20200350943E+02  0.35319816201E+02  0.00000000000E+00 0. -1.
         -5    1    3    3    0  503  0.47232182718E+02 -0.87650014916E+00 -0.26748576826E+02  0.54490583582E+02  0.47000000000E+01 0.  1.
         11    1    4    4    0    0 -0.16558194079E+02 -0.81300601824E+01 -0.92538431648E+02  0.94359064226E+02  0.00000000000E+00 0. -1.
        -12    1    4    4    0    0 -0.53893385234E+02  0.84626551506E+02 -0.13324907146E+03  0.16679767755E+03  0.00000000000E+00 0.  1.
</event>
<event>
12    1  0.1627564E-001  0.1922460E+03  0.7818608E-02  0.1157002E+00
         21   -1    0    0  501  502  0.00000000000E+00  0.00000000000E+00  0.32414259561E+03  0.32414259561E+03  0.00000000000E+00 0.  1.
         21   -1    0    0  502  503 -0.00000000000E+00 -0.00000000000E+00 -0.12409315328E+03  0.12409315328E+03  0.00000000000E+00 0. -1.
         -6    2    1    2    0  503 -0.85629313629E+02  0.12887018335E+02  0.31126973575E+02  0.19231907921E+03  0.16887653819E+03 0.  0.
        -24    2    3    3    0    0 -0.26644209039E+02 -0.54329872267E+02  0.19448177573E+02  0.10200940519E+03  0.79787456662E+02 0.  0.
          6    2    1    2  501    0  0.85629313629E+02 -0.12887018335E+02  0.16892246876E+03  0.25591666967E+03  0.17163940914E+03 0.  0.
         24    2    5    5    0    0  0.43682580996E+02  0.10973005076E+02  0.41436778852E+01  0.84152386373E+02  0.70963929873E+02 0.  0.
          5    1    5    5  501    0  0.41946732634E+02 -0.23860023411E+02  0.16477879087E+03  0.17176428330E+03  0.47000000000E+01 0. -1.
        -11    1    6    6    0    0  0.34846392786E+01  0.33174843216E+02 -0.12038164382E+02  0.35463084116E+02  0.00000000000E+00 0.  1.
         12    1    6    6    0    0  0.40197941717E+02 -0.22201838140E+02  0.16181842267E+02  0.48689302257E+02  0.00000000000E+00 0. -1.
         -5    1    3    3    0  503 -0.58985104590E+02  0.67216890602E+02  0.11678796002E+02  0.90309674021E+02  0.47000000000E+01 0.  1.
         13    1    4    4    0    0  0.55670559664E+01 -0.27223697135E+01 -0.25581926051E+02  0.26321822685E+02  0.00000000000E+00 0. -1.
        -14    1    4    4    0    0 -0.32211265006E+02 -0.51607502554E+02  0.45030103624E+02  0.75687582505E+02  0.00000000000E+00 0.  1.
</event>
<event>
12    1  0.1627564E-001  0.2027592E+03  0.7818608E-02  0.1147814E+00
         21   -1    0    0  501  502  0.00000000000E+00  0.00000000000E+00  0.13182239459E+03  0.13182239459E+03  0.00000000000E+00 0.  1.
         21   -1    0    0  502  503 -0.00000000000E+00 -0.00000000000E+00 -0.44531482289E+03  0.44531482289E+03  0.00000000000E+00 0.  1.
         -6    2    1    2    0  503 -0.10367467314E+03  0.24415891609E+02 -0.31587812720E+03  0.37436396002E+03  0.17036669188E+03 0.  0.
        -24    2    3    3    0    0 -0.11396439217E+03 -0.18844687211E+02 -0.29124444559E+03  0.32331237564E+03  0.79778193990E+02 0.  0.
          6    2    1    2  501    0  0.10367467314E+03 -0.24415891609E+02  0.23856989024E+01  0.20277325747E+03  0.17253037057E+03 0.  0.
         24    2    5    5    0    0  0.69405711219E+02 -0.14265265713E+02  0.68661712090E+02  0.12732793368E+03  0.80481808082E+02 0.  0.
          5    1    5    5  501    0  0.34268961922E+02 -0.10150625897E+02 -0.66276013188E+02  0.75445323788E+02  0.47000000000E+01 0. -1.
        -13    1    6    6    0    0  0.49305663456E+02 -0.47100034650E+02  0.37638404882E+02  0.77885244013E+02  0.00000000000E+00 0.  1.
         14    1    6    6    0    0  0.20100047763E+02  0.32834768938E+02  0.31023307208E+02  0.49442689666E+02  0.00000000000E+00 0. -1.
         -5    1    3    3    0  503  0.10289719031E+02  0.43260578820E+02 -0.24633681605E+02  0.51051584373E+02  0.47000000000E+01 0.  1.
         11    1    4    4    0    0 -0.47608876409E+02 -0.43209854317E+02 -0.94877148062E+02  0.11460964116E+03  0.00000000000E+00 0. -1.
        -12    1    4    4    0    0 -0.66355515762E+02  0.24365167106E+02 -0.19636729753E+03  0.20870273448E+03  0.00000000000E+00 0.  1.
</event>
<event>
12    1  0.1627564E-001  0.2142093E+03  0.7818608E-02  0.1138458E+00
         21   -1    0    0  501  502  0.00000000000E+00  0.00000000000E+00  0.12509185575E+04  0.12509185575E+04  0.00000000000E+00 0. -1.
         21   -1    0    0  502  503 -0.00000000000E+00 -0.00000000000E+00 -0.45689497128E+02  0.45689497128E+02  0.00000000000E+00 0.  1.
         -6    2    1    2    0  503 -0.10566172748E+03 -0.69454086744E+02  0.89198043595E+03  0.91712110439E+03  0.17173744840E+03 0.  0.
        -24    2    3    3    0    0  0.10197246639E+02 -0.39987212432E+02  0.47302279737E+03  0.48141570910E+03  0.79420130533E+02 0.  0.
          6    2    1    2  501    0  0.10566172748E+03  0.69454086744E+02  0.31324862444E+03  0.37948695026E+03  0.17290857087E+03 0.  0.
         24    2    5    5    0    0  0.13704831231E+03  0.29386991611E+02  0.25557482517E+03  0.30242303560E+03  0.80593833637E+02 0.  0.
          5    1    5    5  501    0 -0.31386584826E+02  0.40067095133E+02  0.57673799276E+02  0.77063914658E+02  0.47000000000E+01 0. -1.
        -11    1    6    6    0    0 -0.69007454983E+01  0.12687154911E+00 -0.79980773426E+00  0.69480988216E+01  0.00000000000E+00 0.  1.
         12    1    6    6    0    0  0.14394905781E+03  0.29260120062E+02  0.25637463290E+03  0.29547493678E+03  0.00000000000E+00 0. -1.
         -5    1    3    3    0  503 -0.11585897412E+03 -0.29466874313E+02  0.41895763858E+03  0.43570539530E+03  0.47000000000E+01 0.  1.
         11    1    4    4    0    0  0.70904977031E+01 -0.13767957628E+02  0.43413923163E+03  0.43441535914E+03  0.00000000000E+00 0. -1.
        -12    1    4    4    0    0  0.31067489364E+01 -0.26219254804E+02  0.38883565747E+02  0.47000349963E+02  0.00000000000E+00 0.  1.
</event>
<event>
12    1  0.1627564E-001  0.1862046E+03  0.7818608E-02  0.1162862E+00
         21   -1    0    0  501  502  0.00000000000E+00  0.00000000000E+00  0.46891026330E+03  0.46891026330E+03  0.00000000000E+00 0.  1.
         21   -1    0    0  502  503 -0.00000000000E+00 -0.00000000000E+00 -0.91481286207E+02  0.91481286207E+02  0.00000000000E+00 0.  1.
         -6    2    1    2    0  503 -0.41908782978E+02  0.59160287663E+02  0.59037931151E+02  0.19154873648E+03  0.16718000899E+03 0.  0.
        -24    2    3    3    0    0  0.26238372584E+02 -0.17666834601E+01  0.55123347833E+01  0.85514732088E+02  0.81183805054E+02 0.  0.
          6    2    1    2  501    0  0.41908782978E+02 -0.59160287663E+02  0.31839104594E+03  0.36884281302E+03  0.17151057360E+03 0.  0.
         24    2    5    5    0    0  0.11050772108E+02 -0.99755562402E+02  0.27311138332E+03  0.30048689877E+03  0.75028373570E+02 0.  0.
          5    1    5    5  501    0  0.30858010870E+02  0.40595274738E+02  0.45279662616E+02  0.68355914247E+02  0.47000000000E+01 0. -1.
        -13    1    6    6    0    0  0.18455532970E+02 -0.23386830935E+02  0.16645309363E+03  0.16909814587E+03  0.00000000000E+00 0.  1.
         14    1    6    6    0    0 -0.74047608621E+01 -0.76368731466E+02  0.10665828969E+03  0.13138875290E+03  0.00000000000E+00 0. -1.
         -5    1    3    3    0  503 -0.68147155562E+02  0.60926971124E+02  0.53525596368E+02  0.10603400439E+03  0.47000000000E+01 0.  1.
         13    1    4    4    0    0  0.25680782654E+02 -0.36468939079E+02  0.18729528474E+02  0.48376454522E+02  0.00000000000E+00 0. -1.
        -14    1    4    4    0    0  0.55758993021E+00  0.34702255618E+02 -0.13217193691E+02  0.37138277566E+02  0.00000000000E+00 0.  1.
</event>
<event>
12    1  0.1627564E-001  0.1820338E+03  0.7818608E-02  0.1166094E+00
         21   -1    0    0  501  502  0.00000000000E+00  0.00000000000E+00  0.16779113451E+03  0.16779113451E+03  0.00000000000E+00 0. -1.
         21   -1    0    0  502  503 -0.00000000000E+00 -0.00000000000E+00 -0.21085203290E+03  0.21085203290E+03  0.00000000000E+00 0. -1.
         -6    2    1    2    0  503  0.12572151757E+02 -0.54170860802E+02 -0.71079595694E+02  0.19446563331E+03  0.17225571821E+03 0.  0.
        -24    2    3    3    0    0 -0.36734502718E+02 -0.53834905883E+00  0.50619603490E+01  0.88979998992E+02  0.80883269398E+02 0.  0.
          6    2    1    2  501    0 -0.12572151757E+02  0.54170860802E+02  0.28018697305E+02  0.18417753410E+03  0.17333140370E+03 0.  0.
         24    2    5    5    0    0  0.55186130528E+02 -0.26571887826E+01  0.82558053687E+01  0.93440144146E+02  0.74902153245E+02 0.  0.
          5    1    5    5  501    0 -0.67758282286E+02  0.56828049585E+02  0.19762891936E+02  0.90737389954E+02  0.47000000000E+01 0. -1.
        -13    1    6    6    0    0  0.69061121435E+01  0.40482789106E+01  0.36322173307E+02  0.37193859989E+02  0.00000000000E+00 0.  1.
         14    1    6    6    0    0  0.48280018385E+02 -0.67054676932E+01 -0.28066367939E+02  0.56246284157E+02  0.00000000000E+00 0. -1.
         -5    1    3    3    0  503  0.49306654475E+02 -0.53632511743E+02 -0.76141556043E+02  0.10548563432E+03  0.47000000000E+01 0.  1.
         13    1    4    4    0    0  0.23666582086E+02 -0.10207183757E+02  0.99206790517E+01  0.27617269610E+02  0.00000000000E+00 0. -1.
        -14    1    4    4    0    0 -0.60401084803E+02  0.96688346978E+01 -0.48587187027E+01  0.61362729382E+02  0.00000000000E+00 0.  1.
</event>
<event>
12    1  0.1627564E-001  0.2684973E+03  0.7818608E-02  0.1102210E+00
         21   -1    0    0  501  502  0.00000000000E+00  0.00000000000E+00  0.13231055328E+04  0.13231055328E+04  0.00000000000E+00 0.  1.
         21   -1    0    0  502  503 -0.00000000000E+00 -0.00000000000E+00 -0.54815102267E+02  0.54815102267E+02  0.00000000000E+00 0. -1.
         -6    2    1    2    0  503 -0.17017434627E+03 -0.11433770327E+03  0.69524487812E+03  0.74528938399E+03  0.17337360476E+03 0.  0.
        -24    2    3    3    0    0 -0.15451157380E+03 -0.44040266998E+02  0.35751884830E+03  0.39993737052E+03  0.79478310867E+02 0.  0.
          6    2    1    2  501    0  0.17017434627E+03  0.11433770327E+03  0.57304555238E+03  0.63263125104E+03  0.17265189304E+03 0.  0.
         24    2    5    5    0    0  0.17376486526E+03  0.12989486815E+03  0.57071228026E+03  0.61582496161E+03  0.80380167511E+02 0.  0.
          5    1    5    5  501    0 -0.35905189900E+01 -0.15557164879E+02  0.23332721214E+01  0.16806289432E+02  0.47000000000E+01 0. -1.
        -11    1    6    6    0    0  0.80667445950E+02  0.10640540131E+03  0.36928713058E+03  0.39268604645E+03  0.00000000000E+00 0.  1.
         12    1    6    6    0    0  0.93097419305E+02  0.23489466839E+02  0.20142514968E+03  0.22313891516E+03  0.00000000000E+00 0. -1.
         -5    1    3    3    0  503 -0.15662772462E+02 -0.70297436276E+02  0.33772602982E+03  0.34535201347E+03  0.47000000000E+01 0.  1.
         11    1    4    4    0    0 -0.49991338113E+02  0.22444879426E+02  0.95310958688E+02  0.10994128135E+03  0.00000000000E+00 0. -1.
        -12    1    4    4    0    0 -0.10452023569E+03 -0.66485146424E+02  0.26220788961E+03  0.28999608917E+03  0.00000000000E+00 0.  1.
</event>
<event>
12    1  0.1627564E-001  0.1933213E+03  0.7818608E-02  0.1155592E+00
         21   -1    0    0  503  502  0.00000000000E+00  0.00000000000E+00  0.98938926664E+02  0.98938926664E+02  0.00000000000E+00 0.  1.
         21   -1    0    0  501  503 -0.00000000000E+00 -0.00000000000E+00 -0.97988039632E+03  0.97988039632E+03  0.00000000000E+00 0.  1.
          6    2    1    2  501    0  0.70885416376E+01 -0.87588269995E+02 -0.86341920213E+03  0.88470554219E+03  0.17172427116E+03 0.  0.
         24    2    3    3    0    0 -0.20067210429E+02 -0.91284748112E+02 -0.83724967519E+03  0.84652134440E+03  0.82920261319E+02 0.  0.
         -6    2    1    2    0  502 -0.70885416376E+01  0.87588269995E+02 -0.17522267520E+02  0.19411378079E+03  0.17219517290E+03 0.  0.
        -24    2    5    5    0    0  0.10527426082E+02  0.12282133539E+03  0.12185179545E+02  0.14455256988E+03  0.74505434228E+02 0.  0.
          5    1    3    3  501    0  0.27155752066E+02  0.36964781171E+01 -0.26169526938E+02  0.38184197791E+02  0.47000000000E+01 0. -1.
        -13    1    4    4    0    0  0.61058955393E+00 -0.14748143602E+02 -0.49456990115E+03  0.49479012489E+03  0.00000000000E+00 0.  1.
         14    1    4    4    0    0 -0.20677799983E+02 -0.76536604511E+02 -0.34267977404E+03  0.35173121951E+03  0.00000000000E+00 0. -1.
         -5    1    5    5    0  502 -0.17615967720E+02 -0.35233065400E+02 -0.29707447065E+02  0.49561210914E+02  0.47000000000E+01 0.  1.
         13    1    6    6    0    0 -0.21837318898E+02  0.10443095271E+03  0.64057794087E+01  0.10688183377E+03  0.00000000000E+00 0. -1.
        -14    1    6    6    0    0  0.32364744981E+02  0.18390382689E+02  0.57794001365E+01  0.37670736110E+02  0.00000000000E+00 0.  1.
</event>
<event>
12    1  0.1627564E-001  0.1818344E+03  0.7818608E-02  0.1166042E+00
         21   -1    0    0  503  502  0.00000000000E+00  0.00000000000E+00  0.14923692157E+03  0.14923692157E+03  0.00000000000E+00 0.  1.
         21   -1    0    0  501  503 -0.00000000000E+00 -0.00000000000E+00 -0.86182978808E+03  0.86182978808E+03  0.00000000000E+00 0.  1.
          6    2    1    2  501    0  0.58567417553E+02  0.49260301218E+01 -0.79203413836E+03  0.81263617753E+03  0.17206124647E+03 0.  0.
         24    2    3    3    0    0 -0.13239230359E+02  0.26378728841E+02 -0.60462437177E+03  0.61074283049E+03  0.81025054771E+02 0.  0.
         -6    2    1    2    0  502 -0.58567417553E+02 -0.49260301218E+01  0.79441271845E+02  0.19843053211E+03  0.17207368256E+03 0.  0.
        -24    2    5    5    0    0 -0.43006423600E+02  0.47812369736E+02  0.14582257699E+00  0.10182131088E+03  0.78942909212E+02 0.  0.
          5    1    3    3  501    0  0.71806647912E+02 -0.21452698720E+02 -0.18740976658E+03  0.20189334704E+03  0.47000000000E+01 0. -1.
        -11    1    4    4    0    0  0.26321308997E+01  0.50742131624E+02 -0.48416203373E+03  0.48682087767E+03  0.00000000000E+00 0.  1.
         12    1    4    4    0    0 -0.15871361259E+02 -0.24363402782E+02 -0.12046233804E+03  0.12392195282E+03  0.00000000000E+00 0. -1.
         -5    1    5    5    0  502 -0.15560993953E+02 -0.52738399857E+02  0.79295449268E+02  0.96609221232E+02  0.47000000000E+01 0.  1.
         13    1    6    6    0    0  0.23068873359E+01  0.48360170273E+01 -0.31400205726E+02  0.31854068963E+02  0.00000000000E+00 0. -1.
        -14    1    6    6    0    0 -0.45313310936E+02  0.42976352708E+02  0.31546028303E+02  0.69967241919E+02  0.00000000000E+00 0.  1.
</event>
<event>
12    1  0.1627564E-001  0.1916961E+03  0.7818608E-02  0.1156969E+00
         21   -1    0    0  501  502  0.00000000000E+00  0.00000000000E+00  0.19921511565E+04  0.19921511565E+04  0.00000000000E+00 0.  1.
         21   -1    0    0  502  503 -0.00000000000E+00 -0.00000000000E+00 -0.18764045352E+02  0.18764045352E+02  0.00000000000E+00 0.  1.
         -6    2    1    2    0  503 -0.55613558775E+02 -0.64147337085E+02  0.11197801955E+04  0.11360482661E+04  0.17172719014E+03 0.  0.
        -24    2    3    3    0    0  0.75008669055E+00 -0.94420320857E+02  0.64999961878E+03  0.66190778652E+03  0.81894162379E+02 0.  0.
          6    2    1    2  501    0  0.55613558775E+02  0.64147337085E+02  0.85360691565E+03  0.87486693578E+03  0.17187099845E+03 0.  0.
         24    2    5    5    0    0  0.53200944103E+02  0.78421921082E+02  0.34791397440E+03  0.36894498006E+03  0.78076414915E+02 0.  0.
          5    1    5    5  501    0  0.24126146723E+01 -0.14274583996E+02  0.50569294124E+03  0.50592195572E+03  0.47000000000E+01 0. -1.
        -11    1    6    6    0    0  0.63104409232E+02  0.44198356231E+02  0.29682097646E+03  0.30665673517E+03  0.00000000000E+00 0.  1.
         12    1    6    6    0    0 -0.99034651294E+01  0.34223564850E+02  0.51092997948E+02  0.62288244894E+02  0.00000000000E+00 0. -1.
         -5    1    3    3    0  503 -0.56363645466E+02  0.30272983771E+02  0.46978057674E+03  0.47414047956E+03  0.47000000000E+01 0.  1.
         13    1    4    4    0    0 -0.20297406553E+02 -0.61210947978E+02  0.55992007709E+03  0.56362155529E+03  0.00000000000E+00 0. -1.
        -14    1    4    4    0    0  0.21047493244E+02 -0.33209372878E+02  0.90079541686E+02  0.98286231229E+02  0.00000000000E+00 0.  1.
</event>
<event>
12    1  0.1627564E-001  0.3355727E+03  0.7818608E-02  0.1068855E+00
         21   -1    0    0  503  502  0.00000000000E+00  0.00000000000E+00  0.87264062270E+03  0.87264062270E+03  0.00000000000E+00 0.  1.
         21   -1    0    0  501  503 -0.00000000000E+00 -0.00000000000E+00 -0.12916045304E+03  0.12916045304E+03  0.00000000000E+00 0.  1.
          6    2    1    2  501    0  0.24238592837E+03 -0.15239273316E+03  0.33473937338E+03  0.47295509837E+03  0.17222541506E+03 0.  0.
         24    2    3    3    0    0  0.21585884119E+03 -0.88453519723E+02  0.18457220165E+03  0.30753388197E+03  0.78045669121E+02 0.  0.
         -6    2    1    2    0  502 -0.24238592837E+03  0.15239273316E+03  0.40874079628E+03  0.52884597738E+03  0.17502727175E+03 0.  0.
        -24    2    5    5    0    0 -0.54594633052E+02  0.22010982000E+02  0.18116592150E+03  0.20623570900E+03  0.79038087446E+02 0.  0.
          5    1    3    3  501    0  0.26527087182E+02 -0.63939213437E+02  0.15016717173E+03  0.16542121640E+03  0.47000000000E+01 0. -1.
        -11    1    4    4    0    0  0.21194414136E+03 -0.95831886704E+02  0.18741445989E+03  0.29871097962E+03  0.00000000000E+00 0.  1.
         12    1    4    4    0    0  0.39146998244E+01  0.73783669810E+01 -0.28422582433E+01  0.88229023537E+01  0.00000000000E+00 0. -1.
         -5    1    5    5    0  502 -0.18779129532E+03  0.13038175116E+03  0.22757487477E+03  0.32261026837E+03  0.47000000000E+01 0.  1.
         11    1    6    6    0    0  0.98788449668E+01  0.20831269899E+02  0.13782457013E+02  0.26860556674E+02  0.00000000000E+00 0. -1.
        -12    1    6    6    0    0 -0.64473478019E+02  0.11797121007E+01  0.16738346449E+03  0.17937515233E+03  0.00000000000E+00 0.  1.
</event>
<event>
12    1  0.1627564E-001  0.2067639E+03  0.7818608E-02  0.1144170E+00
         21   -1    0    0  503  502  0.00000000000E+00  0.00000000000E+00  0.12670829317E+03  0.12670829317E+03  0.00000000000E+00 0. -1.
         21   -1    0    0  501  503 -0.00000000000E+00 -0.00000000000E+00 -0.51080613605E+03  0.51080613605E+03  0.00000000000E+00 0.  1.
          6    2    1    2  501    0 -0.10565942842E+03 -0.42887395147E+02 -0.37781591306E+03  0.43065509662E+03  0.17238243705E+03 0.  0.
         24    2    3    3    0    0 -0.30025049127E+02  0.64905012539E+01 -0.29940240163E+03  0.31094918716E+03  0.78127899701E+02 0.  0.
         -6    2    1    2    0  502  0.10565942842E+03  0.42887395147E+02 -0.62819298090E+01  0.20685933260E+03  0.17247630957E+03 0.  0.
        -24    2    5    5    0    0  0.63584819722E+02  0.31527014810E+02 -0.71811692474E+02  0.12802044160E+03  0.78710433424E+02 0.  0.
          5    1    3    3  501    0 -0.75634379296E+02 -0.49377896401E+02 -0.78413511437E+02  0.11970590946E+03  0.47000000000E+01 0. -1.
        -11    1    4    4    0    0 -0.46782080560E+02 -0.43591618855E+01 -0.27694274288E+03  0.28090006797E+03  0.00000000000E+00 0.  1.
         12    1    4    4    0    0  0.16757031432E+02  0.10849663139E+02 -0.22459658749E+02  0.30049119185E+02  0.00000000000E+00 0. -1.
         -5    1    5    5    0  502  0.42074608701E+02  0.11360380338E+02  0.65529762665E+02  0.78838890997E+02  0.47000000000E+01 0.  1.
         11    1    6    6    0    0  0.50749497826E+01 -0.11096201135E+02  0.12110480502E+02  0.17191408695E+02  0.00000000000E+00 0. -1.
        -12    1    6    6    0    0  0.58509869939E+02  0.42623215945E+02 -0.83922172976E+02  0.11082903291E+03  0.00000000000E+00 0.  1.
</event>
<event>
12    1  0.1627564E-001  0.1897756E+03  0.7818608E-02  0.1158937E+00
         21   -1    0    0  501  502  0.00000000000E+00  0.00000000000E+00  0.32581957887E+02  0.32581957887E+02  0.00000000000E+00 0. -1.
         21   -1    0    0  502  503 -0.00000000000E+00 -0.00000000000E+00 -0.19740646583E+04  0.19740646583E+04  0.00000000000E+00 0. -1.
         -6    2    1    2    0  503  0.78902825259E+02 -0.15952764049E+01 -0.16372718819E+04  0.16480953431E+04  0.17126249985E+03 0.  0.
        -24    2    3    3    0    0  0.28832872013E+02  0.72794617880E+01 -0.14883024378E+04  0.14906159906E+04  0.77508450084E+02 0.  0.
          6    2    1    2  501    0 -0.78902825259E+02  0.15952764049E+01 -0.30421081854E+03  0.35855127314E+03  0.17258792720E+03 0.  0.
         24    2    5    5    0    0 -0.30657364888E+02  0.62552786135E+02 -0.21904420513E+03  0.24314380164E+03  0.79283159616E+02 0.  0.
          5    1    5    5  501    0 -0.48245460371E+02 -0.60957509730E+02 -0.85166613401E+02  0.11540747150E+03  0.47000000000E+01 0. -1.
        -11    1    6    6    0    0  0.61520155130E+01  0.31349063798E+01 -0.12885924025E+03  0.12904409607E+03  0.00000000000E+00 0.  1.
         12    1    6    6    0    0 -0.36809380401E+02  0.59417879755E+02 -0.90184964882E+02  0.11409970557E+03  0.00000000000E+00 0. -1.
         -5    1    3    3    0  503  0.50069953246E+02 -0.88747381928E+01 -0.14896944405E+03  0.15747935248E+03  0.47000000000E+01 0.  1.
         11    1    4    4    0    0 -0.12457868012E+01 -0.32838078620E+02 -0.60288775467E+03  0.60378268948E+03  0.00000000000E+00 0. -1.
        -12    1    4    4    0    0  0.30078658814E+02  0.40117540408E+02 -0.88541468317E+03  0.88683330110E+03  0.00000000000E+00 0.  1.
</event>
<event>
12    1  0.1627564E-001  0.2039541E+03  0.7818608E-02  0.1147884E+00
         21   -1    0    0  503  502  0.00000000000E+00  0.00000000000E+00  0.14704056050E+04  0.14704056050E+04  0.00000000000E+00 0. -1.
         21   -1    0    0  501  503 -0.00000000000E+00 -0.00000000000E+00 -0.36123310352E+02  0.36123310352E+02  0.00000000000E+00 0.  1.
          6    2    1    2  501    0  0.91909077123E+02  0.37617600818E+02  0.33654088060E+03  0.39000148583E+03  0.17023228920E+03 0.  0.
         24    2    3    3    0    0 -0.17699281712E+02 -0.39182679117E+01  0.12999016167E+03  0.15246304640E+03  0.77581705248E+02 0.  0.
         -6    2    1    2    0  502 -0.91909077123E+02 -0.37617600818E+02  0.10977414140E+04  0.11165274295E+04  0.17814299427E+03 0.  0.
        -24    2    5    5    0    0 -0.11939008513E+03 -0.27154783247E+02  0.59516614480E+03  0.61307071081E+03  0.81495900888E+02 0.  0.
          5    1    3    3  501    0  0.10960835883E+03  0.41535868730E+02  0.20655071893E+03  0.23753843943E+03  0.47000000000E+01 0. -1.
        -11    1    4    4    0    0 -0.84165945373E+01  0.90368823076E+01 -0.72369466692E+01  0.14313549614E+02  0.00000000000E+00 0.  1.
         12    1    4    4    0    0 -0.92826871745E+01 -0.12955150219E+02  0.13722710834E+03  0.13814949678E+03  0.00000000000E+00 0. -1.
         -5    1    5    5    0  502  0.27481008006E+02 -0.10462817571E+02  0.50257526921E+03  0.50345671867E+03  0.47000000000E+01 0.  1.
         11    1    6    6    0    0 -0.92163537371E+02 -0.14761669010E+02  0.55603712058E+03  0.56381672905E+03  0.00000000000E+00 0. -1.
        -12    1    6    6    0    0 -0.27226547757E+02 -0.12393114237E+02  0.39129024220E+02  0.49253981765E+02  0.00000000000E+00 0.  1.
</event>
<event>
12    1  0.1627564E-001  0.3414288E+03  0.7818608E-02  0.1066196E+00
         21   -1    0    0  501  502  0.00000000000E+00  0.00000000000E+00  0.58163522235E+03  0.58163522235E+03  0.00000000000E+00 0.  1.
         21   -1    0    0  502  503 -0.00000000000E+00 -0.00000000000E+00 -0.50062950915E+03  0.50062950915E+03  0.00000000000E+00 0. -1.
         -6    2    1    2    0  503  0.16769960693E+03  0.24261922571E+03 -0.37856586771E+03  0.50974427649E+03  0.17187165085E+03 0.  0.
        -24    2    3    3    0    0  0.17703281340E+03  0.23129469946E+03 -0.38786255820E+03  0.49174782985E+03  0.80874650432E+02 0.  0.
          6    2    1    2  501    0 -0.16769960693E+03 -0.24261922571E+03  0.45957158091E+03  0.57252045501E+03  0.17200693760E+03 0.  0.
         24    2    5    5    0    0 -0.54814624433E+02 -0.91026391990E+02  0.28626981374E+03  0.31604628670E+03  0.81513201309E+02 0.  0.
          5    1    5    5  501    0 -0.11288498250E+03 -0.15159283372E+03  0.17330176717E+03  0.25647416831E+03  0.47000000000E+01 0. -1.
        -13    1    6    6    0    0  0.95818341548E+01 -0.62640911168E+02  0.14375773129E+03  0.15710499866E+03  0.00000000000E+00 0.  1.
         14    1    6    6    0    0 -0.64396458588E+02 -0.28385480822E+02  0.14251208245E+03  0.15894128804E+03  0.00000000000E+00 0. -1.
         -5    1    3    3    0  503 -0.93332064681E+01  0.11324526242E+02  0.92966904907E+01  0.17996446640E+02  0.47000000000E+01 0.  1.
         11    1    4    4    0    0  0.12834039446E+03  0.17835009508E+03 -0.34179407016E+03  0.40632893038E+03  0.00000000000E+00 0. -1.
        -12    1    4    4    0    0  0.48692418942E+02  0.52944604386E+02 -0.46068488040E+02  0.85418899468E+02  0.00000000000E+00 0.  1.
</event>
<event>
12    1  0.1627564E-001  0.2116416E+03  0.7818608E-02  0.1142773E+00
         21   -1    0    0  503  502  0.00000000000E+00  0.00000000000E+00  0.67948675074E+02  0.67948675074E+02  0.00000000000E+00 0. -1.
         21   -1    0    0  501  503 -0.00000000000E+00 -0.00000000000E+00 -0.72003399680E+03  0.72003399680E+03  0.00000000000E+00 0.  1.
          6    2    1    2  501    0 -0.92680908573E+01 -0.97010416135E+02 -0.48034943281E+03  0.52490734978E+03  0.18787024752E+03 0.  0.
         24    2    3    3    0    0  0.46216760237E+02  0.75062237979E+01 -0.18746868755E+03  0.20899040235E+03  0.79625040929E+02 0.  0.
         -6    2    1    2    0  502  0.92680908573E+01  0.97010416135E+02 -0.17173588891E+03  0.26307532209E+03  0.17383466630E+03 0.  0.
        -24    2    5    5    0    0 -0.49400659075E+02  0.36599549801E+02 -0.14070050800E+03  0.17320441546E+03  0.80144771642E+02 0.  0.
          5    1    3    3  501    0 -0.55484851094E+02 -0.10451663993E+03 -0.29288074527E+03  0.31591694743E+03  0.47000000000E+01 0. -1.
        -11    1    4    4    0    0  0.33407511464E+02 -0.43237689848E+01 -0.18853570250E+03  0.19152145550E+03  0.00000000000E+00 0.  1.
         12    1    4    4    0    0  0.12809248773E+02  0.11829992783E+02  0.10670149483E+01  0.17468946856E+02  0.00000000000E+00 0. -1.
         -5    1    5    5    0  502  0.58668749932E+02  0.60410866334E+02 -0.31035380908E+02  0.89870906627E+02  0.47000000000E+01 0.  1.
         13    1    6    6    0    0  0.90458420146E+01  0.41284563133E+02 -0.62996530516E+02  0.75860432821E+02  0.00000000000E+00 0. -1.
        -14    1    6    6    0    0 -0.58446501089E+02 -0.46850133318E+01 -0.77703977485E+02  0.97343982642E+02  0.00000000000E+00 0.  1.
</event>
<event>
12    1  0.1627564E-001  0.1815747E+03  0.7818608E-02  0.1166701E+00
         21   -1    0    0  501  502  0.00000000000E+00  0.00000000000E+00  0.15097041377E+04  0.15097041377E+04  0.00000000000E+00 0.  1.
         21   -1    0    0  502  503 -0.00000000000E+00 -0.00000000000E+00 -0.21638096129E+02  0.21638096129E+02  0.00000000000E+00 0.  1.
         -6    2    1    2    0  503  0.38767977625E+02 -0.33748739169E+02  0.73480963540E+03  0.75691120763E+03  0.17414776045E+03 0.  0.
        -24    2    3    3    0    0  0.39836327430E+02  0.44216230161E+02  0.36140370175E+03  0.37542233610E+03  0.82384991418E+02 0.  0.
          6    2    1    2  501    0 -0.38767977625E+02  0.33748739169E+02  0.75325640612E+03  0.77443102615E+03  0.17235506207E+03 0.  0.
         24    2    5    5    0    0 -0.64375917734E+02  0.43023834970E+02  0.28983206037E+03  0.31018323861E+03  0.78839768772E+02 0.  0.
          5    1    5    5  501    0  0.25607940109E+02 -0.92750958006E+01  0.46342434575E+03  0.46424778754E+03  0.47000000000E+01 0. -1.
        -11    1    6    6    0    0 -0.47616511278E+02  0.50641289752E+02  0.28153713220E+03  0.28999142950E+03  0.00000000000E+00 0.  1.
         12    1    6    6    0    0 -0.16759406456E+02 -0.76174547816E+01  0.82949281673E+01  0.20191809116E+02  0.00000000000E+00 0. -1.
         -5    1    3    3    0  503 -0.10683498046E+01 -0.77964969330E+02  0.37340593366E+03  0.38148887153E+03  0.47000000000E+01 0.  1.
         11    1    4    4    0    0 -0.54341921672E+01  0.53137078428E+02  0.23103448933E+03  0.23712868829E+03  0.00000000000E+00 0. -1.
        -12    1    4    4    0    0  0.45270519597E+02 -0.89208482672E+01  0.13036921242E+03  0.13829364781E+03  0.00000000000E+00 0.  1.
</event>
<event>
12    1  0.1627564E-001  0.2083690E+03  0.7818608E-02  0.1143463E+00
         21   -1    0    0  501  502  0.00000000000E+00  0.00000000000E+00  0.19851254068E+03  0.19851254068E+03  0.00000000000E+00 0.  1.
         21   -1    0    0  502  503 -0.00000000000E+00 -0.00000000000E+00 -0.39584810533E+03  0.39584810533E+03  0.00000000000E+00 0.  1.
         -6    2    1    2    0  503  0.11298309117E+03 -0.12273262816E+02 -0.29958195430E+03  0.36492054798E+03  0.17464778019E+03 0.  0.
        -24    2    3    3    0    0  0.10430641865E+03 -0.69579014999E+02 -0.18807134484E+03  0.23915910754E+03  0.78135649171E+02 0.  0.
          6    2    1    2  501    0 -0.11298309117E+03  0.12273262816E+02  0.10224638965E+03  0.22944009804E+03  0.17109243852E+03 0.  0.
         24    2    5    5    0    0 -0.43269814734E+02  0.70006893091E+02  0.55275907809E+02  0.12735469682E+03  0.79940921133E+02 0.  0.
          5    1    5    5  501    0 -0.69713276437E+02 -0.57733630275E+02  0.46970481840E+02  0.10208540121E+03  0.47000000000E+01 0. -1.
        -11    1    6    6    0    0 -0.55413825448E+02  0.33424999250E+02  0.60337290589E+02  0.88478874661E+02  0.00000000000E+00 0.  1.
         12    1    6    6    0    0  0.12144010714E+02  0.36581893841E+02 -0.50613827798E+01  0.38875822163E+02  0.00000000000E+00 0. -1.
         -5    1    3    3    0  503  0.86766725233E+01  0.57305752184E+02 -0.11151060946E+03  0.12576144044E+03  0.47000000000E+01 0.  1.
         13    1    4    4    0    0 -0.49881903109E+01 -0.28485101657E+02 -0.22923016797E+02  0.36901866593E+02  0.00000000000E+00 0. -1.
        -14    1    4    4    0    0  0.10929460896E+03 -0.41093913343E+02 -0.16514832804E+03  0.20225724095E+03  0.00000000000E+00 0.  1.
</event>
<event>
12    1  0.1627564E-001  0.2741488E+03  0.7818608E-02  0.1098995E+00
         21   -1    0    0  503  502  0.00000000000E+00  0.00000000000E+00  0.10083099769E+03  0.10083099769E+03  0.00000000000E+00 0.  1.
         21   -1    0    0  501  503 -0.00000000000E+00 -0.00000000000E+00 -0.76850089396E+03  0.76850089396E+03  0.00000000000E+00 0.  1.
          6    2    1    2  501    0 -0.95923224796E+02  0.19040475897E+03 -0.41156632544E+03  0.49451431076E+03  0.17234362771E+03 0.  0.
         24    2    3    3    0    0 -0.23444904713E+02  0.15773651123E+03 -0.35417012162E+03  0.39634743496E+03  0.78894509387E+02 0.  0.
         -6    2    1    2    0  502  0.95923224796E+02 -0.19040475897E+03 -0.25610357082E+03  0.37481758088E+03  0.17159237355E+03 0.  0.
        -24    2    5    5    0    0  0.32931590441E+01 -0.72673468898E+02 -0.47398651108E+02  0.11787241309E+03  0.79718226658E+02 0.  0.
          5    1    3    3  501    0 -0.72478320083E+02  0.32668247730E+02 -0.57396203819E+02  0.98166875802E+02  0.47000000000E+01 0. -1.
        -11    1    4    4    0    0 -0.39844163535E+02  0.12944440557E+03 -0.32662142659E+03  0.35358869865E+03  0.00000000000E+00 0.  1.
         12    1    4    4    0    0  0.16399258822E+02  0.28292105662E+02 -0.27548695030E+02  0.42758736308E+02  0.00000000000E+00 0. -1.
         -5    1    5    5    0  502  0.92630065751E+02 -0.11773129007E+03 -0.20870491972E+03  0.25694516780E+03  0.47000000000E+01 0.  1.
         13    1    6    6    0    0 -0.43168371919E+01 -0.18679115065E+02 -0.59075259600E+02  0.62108217812E+02  0.00000000000E+00 0. -1.
        -14    1    6    6    0    0  0.76099962360E+01 -0.53994353833E+02  0.11676608493E+02  0.55764195273E+02  0.00000000000E+00 0.  1.
</event>
<event>
12    1  0.1627564E-001  0.1823331E+03  0.7818608E-02  0.1166349E+00
         21   -1    0    0  501  502  0.00000000000E+00  0.00000000000E+00  0.42711757486E+03  0.42711757486E+03  0.00000000000E+00 0. -1.
         21   -1    0    0  502  503 -0.00000000000E+00 -0.00000000000E+00 -0.86446930508E+03  0.86446930508E+03  0.00000000000E+00 0. -1.
         -6    2    1    2    0  503  0.30161706988E+01 -0.39182312630E+02 -0.83542622272E+03  0.85509200882E+03  0.17804779989E+03 0.  0.
        -24    2    3    3    0    0  0.56232842252E+02 -0.63826601004E+02 -0.49944811877E+03  0.51400150557E+03  0.86678468148E+02 0.  0.
          6    2    1    2  501    0 -0.30161706988E+01  0.39182312630E+02  0.39807449250E+03  0.43649487112E+03  0.17470008595E+03 0.  0.
         24    2    5    5    0    0  0.15937212898E+02 -0.42433162331E+01  0.79486987300E+02  0.11436895714E+03  0.80561012403E+02 0.  0.
          5    1    5    5  501    0 -0.18953383597E+02  0.43425628863E+02  0.31858750519E+03  0.32212591398E+03  0.47000000000E+01 0. -1.
        -13    1    6    6    0    0 -0.13190675887E+02 -0.28884457676E+02  0.70924464982E+01  0.32536266272E+02  0.00000000000E+00 0.  1.
         14    1    6    6    0    0  0.29127888785E+02  0.24641141442E+02  0.72394540802E+02  0.81832690868E+02  0.00000000000E+00 0. -1.
         -5    1    3    3    0  503 -0.53216671553E+02  0.24644288373E+02 -0.33597810394E+03  0.34109050325E+03  0.47000000000E+01 0.  1.
         13    1    4    4    0    0  0.22377498752E+02  0.10850514265E+02 -0.25412527181E+03  0.25533926428E+03  0.00000000000E+00 0. -1.
        -14    1    4    4    0    0  0.33855343500E+02 -0.74677115268E+02 -0.24532284696E+03  0.25866224129E+03  0.00000000000E+00 0.  1.
</event>
<event>
12    1  0.1627564E-001  0.1940806E+03  0.7818608E-02  0.1155267E+00
         21   -1    0    0  503  502  0.00000000000E+00  0.00000000000E+00  0.36555258608E+02  0.36555258608E+02  0.00000000000E+00 0. -1.
         21   -1    0    0  501  503 -0.00000000000E+00 -0.00000000000E+00 -0.10895698002E+04  0.10895698002E+04  0.00000000000E+00 0. -1.
          6    2    1    2  501    0 -0.85515594710E+02 -0.22366944353E+02 -0.66630902360E+03  0.69344917210E+03  0.17056037703E+03 0.  0.
         24    2    3    3    0    0 -0.11635357188E+03 -0.23548398554E+02 -0.39396417906E+03  0.41932113447E+03  0.80806922113E+02 0.  0.
         -6    2    1    2    0  502  0.85515594710E+02  0.22366944353E+02 -0.38670551795E+03  0.43267588667E+03  0.17278329825E+03 0.  0.
        -24    2    5    5    0    0  0.22236881627E+02  0.30678743749E+02 -0.34509586449E+03  0.35634283485E+03  0.80333032051E+02 0.  0.
          5    1    3    3  501    0  0.30837977169E+02  0.11814542005E+01 -0.27234484454E+03  0.27412803763E+03  0.47000000000E+01 0. -1.
        -11    1    4    4    0    0 -0.34995935765E+02  0.15018914614E+02 -0.45110230528E+02  0.59035719819E+02  0.00000000000E+00 0.  1.
         12    1    4    4    0    0 -0.81357636114E+02 -0.38567313167E+02 -0.34885394853E+03  0.36028541465E+03  0.00000000000E+00 0. -1.
         -5    1    5    5    0  502  0.63278713083E+02 -0.83117993954E+01 -0.41609653454E+02  0.76333051814E+02  0.47000000000E+01 0.  1.
         13    1    6    6    0    0  0.45207776114E+01  0.36137231446E+02 -0.56936135267E+02  0.67587428017E+02  0.00000000000E+00 0. -1.
        -14    1    6    6    0    0  0.17716104016E+02 -0.54584876975E+01 -0.28815972923E+03  0.28875540684E+03  0.00000000000E+00 0.  1.
</event>
<event>
12    1  0.1627564E-001  0.2649213E+03  0.7818608E-02  0.1104288E+00
         21   -1    0    0  501  502  0.00000000000E+00  0.00000000000E+00  0.17440834378E+03  0.17440834378E+03  0.00000000000E+00 0. -1.
         21   -1    0    0  502  503 -0.00000000000E+00 -0.00000000000E+00 -0.50905256399E+03  0.50905256399E+03  0.00000000000E+00 0.  1.
         -6    2    1    2    0  503  0.14426218480E+03  0.13966385149E+03 -0.32434903058E+03  0.41879064947E+03  0.17281708558E+03 0.  0.
        -24    2    3    3    0    0  0.21001918820E+02  0.10496119126E+03 -0.12939911533E+03  0.18549914244E+03  0.78790028128E+02 0.  0.
          6    2    1    2  501    0 -0.14426218480E+03 -0.13966385149E+03 -0.10295189626E+02  0.26467025829E+03  0.17212433098E+03 0.  0.
         24    2    5    5    0    0 -0.41024872289E+02 -0.12587666297E+03  0.20706407451E+02  0.15589885450E+03  0.79672599409E+02 0.  0.
          5    1    5    5  501    0 -0.10323731251E+03 -0.13787188522E+02 -0.31001597076E+02  0.10877140380E+03  0.47000000000E+01 0. -1.
        -11    1    6    6    0    0 -0.44965656350E+01 -0.55067566210E+02 -0.28586105094E+02  0.62207888208E+02  0.00000000000E+00 0.  1.
         12    1    6    6    0    0 -0.36528306654E+02 -0.70809096760E+02  0.49292512544E+02  0.93690966288E+02  0.00000000000E+00 0. -1.
         -5    1    3    3    0  503  0.12326026598E+03  0.34702660236E+02 -0.19494991525E+03  0.23329150703E+03  0.47000000000E+01 0.  1.
         11    1    4    4    0    0  0.87521494459E+01  0.10849965286E+03 -0.81635626549E+02  0.13606303801E+03  0.00000000000E+00 0. -1.
        -12    1    4    4    0    0  0.12249769375E+02 -0.35384616025E+01 -0.47763488785E+02  0.49436104430E+02  0.00000000000E+00 0.  1.
</event>
<event>
12    1  0.1627564E-001  0.2518452E+03  0.7818608E-02  0.1112233E+00
         21   -1    0    0  501  502  0.00000000000E+00  0.00000000000E+00  0.16961245062E+03  0.16961245062E+03  0.00000000000E+00 0. -1.
         21   -1    0    0  502  503 -0.00000000000E+00 -0.00000000000E+00 -0.16091122044E+04  0.16091122044E+04  0.00000000000E+00 0.  1.
         -6    2    1    2    0  503 -0.16215022060E+03 -0.86731744920E+02 -0.14990255444E+04  0.15199403191E+04  0.17124806952E+03 0.  0.
        -24    2    3    3    0    0 -0.15352154993E+03 -0.60649490036E+02 -0.83596814033E+03  0.85629738119E+03  0.84588689849E+02 0.  0.
          6    2    1    2  501    0  0.16215022060E+03  0.86731744920E+02  0.59525790671E+02  0.25878433585E+03  0.17207824705E+03 0.  0.
         24    2    5    5    0    0  0.51496142446E+02  0.63507286146E+02 -0.25303147461E+02  0.11735683059E+03  0.80295381779E+02 0.  0.
          5    1    5    5  501    0  0.11065407815E+03  0.23224458774E+02  0.84828938132E+02  0.14142750525E+03  0.47000000000E+01 0. -1.
        -13    1    6    6    0    0  0.41384907319E+02  0.13229153940E+02 -0.44877290437E+02  0.62463527476E+02  0.00000000000E+00 0.  1.
         14    1    6    6    0    0  0.10111235127E+02  0.50278132206E+02  0.19574142976E+02  0.54893303118E+02  0.00000000000E+00 0. -1.
         -5    1    3    3    0  503 -0.86286706693E+01 -0.26082254885E+02 -0.66305740409E+03  0.66364293796E+03  0.47000000000E+01 0.  1.
         11    1    4    4    0    0 -0.45542485107E+02  0.20473086240E+02 -0.19903921617E+03  0.20520690725E+03  0.00000000000E+00 0. -1.
        -12    1    4    4    0    0 -0.10797906482E+03 -0.81122576276E+02 -0.63692892416E+03  0.65109047394E+03  0.00000000000E+00 0.  1.
</event>
<event>
12    1  0.1627564E-001  0.2482149E+03  0.7818608E-02  0.1114684E+00
         21   -1    0    0  501  502  0.00000000000E+00  0.00000000000E+00  0.26951109985E+03  0.26951109985E+03  0.00000000000E+00 0. -1.
         21   -1    0    0  502  503 -0.00000000000E+00 -0.00000000000E+00 -0.74750065078E+03  0.74750065078E+03  0.00000000000E+00 0.  1.
         -6    2    1    2    0  503  0.83064662296E+02 -0.15838055790E+03 -0.66301959595E+03  0.70742045909E+03  0.16989579775E+03 0.  0.
        -24    2    3    3    0    0  0.94351683632E+02 -0.99323625827E+02 -0.59468402474E+03  0.61627794229E+03  0.85918508042E+02 0.  0.
          6    2    1    2  501    0 -0.83064662296E+02  0.15838055790E+03  0.18503004501E+03  0.30959129154E+03  0.17212353411E+03 0.  0.
         24    2    5    5    0    0 -0.20960330950E+02  0.57175715606E+02  0.10433713048E+02  0.98391534879E+02  0.76574368031E+02 0.  0.
          5    1    5    5  501    0 -0.62104331346E+02  0.10120484230E+03  0.17459633197E+03  0.21119975666E+03  0.47000000000E+01 0. -1.
        -13    1    6    6    0    0 -0.49277744304E+02  0.26157891337E+02  0.74600069151E+01  0.56286615337E+02  0.00000000000E+00 0.  1.
         14    1    6    6    0    0  0.28317413354E+02  0.31017824269E+02  0.29737061325E+01  0.42104919542E+02  0.00000000000E+00 0. -1.
         -5    1    3    3    0  503 -0.11287021337E+02 -0.59056932075E+02 -0.68335571206E+02  0.91142516801E+02  0.47000000000E+01 0.  1.
         11    1    4    4    0    0  0.10669440471E+03 -0.10149162299E+03 -0.51593860287E+03  0.53654159901E+03  0.00000000000E+00 0. -1.
        -12    1    4    4    0    0 -0.12342721074E+02  0.21679971640E+01 -0.78745421869E+02  0.79736343285E+02  0.00000000000E+00 0.  1.
</event>
<event>
12    1  0.1627564E-001  0.2244885E+03  0.7818608E-02  0.1130650E+00
         21   -1    0    0  503  502  0.00000000000E+00  0.00000000000E+00  0.29541405381E+03  0.29541405381E+03  0.00000000000E+00 0. -1.
         21   -1    0    0  501  503 -0.00000000000E+00 -0.00000000000E+00 -0.20715833374E+03  0.20715833374E+03  0.00000000000E+00 0.  1.
          6    2    1    2  501    0 -0.77042691343E+02 -0.12142683843E+03 -0.61896709314E+02  0.23249681204E+03  0.17188226087E+03 0.  0.
         24    2    3    3    0    0  0.16951197961E+02 -0.65870689763E+02 -0.65906715852E+02  0.12313728098E+03  0.78694370127E+02 0.  0.
         -6    2    1    2    0  502  0.77042691343E+02  0.12142683843E+03  0.15015242939E+03  0.27007557551E+03  0.17238042539E+03 0.  0.
        -24    2    5    5    0    0  0.11182914078E+02  0.10873377948E+03  0.15068867063E+03  0.20283718201E+03  0.80546598820E+02 0.  0.
          5    1    3    3  501    0 -0.93993889303E+02 -0.55556148667E+02  0.40100065387E+01  0.10935953106E+03  0.47000000000E+01 0. -1.
        -13    1    4    4    0    0  0.27942159855E+02 -0.31734463398E+01 -0.50254530964E+02  0.57587784655E+02  0.00000000000E+00 0.  1.
         14    1    4    4    0    0 -0.10990961895E+02 -0.62697243423E+02 -0.15652184888E+02  0.65549496321E+02  0.00000000000E+00 0. -1.
         -5    1    5    5    0  502  0.65859777265E+02  0.12693058953E+02 -0.53624124108E+00  0.67238393509E+02  0.47000000000E+01 0.  1.
         13    1    6    6    0    0  0.46072981613E+02  0.60300628828E+02  0.78858261360E+02  0.10944181494E+03  0.00000000000E+00 0. -1.
        -14    1    6    6    0    0 -0.34890067535E+02  0.48433150648E+02  0.71830409270E+02  0.93395367070E+02  0.00000000000E+00 0.  1.
</event>
<event>
12    1  0.1627564E-001  0.2306616E+03  0.7818608E-02  0.1126271E+00
         21   -1    0    0  503  502  0.00000000000E+00  0.00000000000E+00  0.37563211327E+03  0.37563211327E+03  0.00000000000E+00 0.  1.
         21   -1    0    0  501  503 -0.00000000000E+00 -0.00000000000E+00 -0.23040661142E+03  0.23040661142E+03  0.00000000000E+00 0.  1.
          6    2    1    2  501    0 -0.60010028325E+02  0.14158329835E+03 -0.11577074968E+03  0.25808459947E+03  0.17192370440E+03 0.  0.
         24    2    3    3    0    0  0.16036382386E+02  0.22746732856E+02 -0.68700332831E+02  0.10927969357E+03  0.80297797474E+02 0.  0.
         -6    2    1    2    0  502  0.60010028325E+02 -0.14158329835E+03  0.26099625152E+03  0.34795412522E+03  0.17118994152E+03 0.  0.
        -24    2    5    5    0    0 -0.31833325368E+02 -0.72152977009E+02  0.10362153231E+03  0.15290371280E+03  0.80141816389E+02 0.  0.
          5    1    3    3  501    0 -0.76046410711E+02  0.11883656549E+03 -0.47070416844E+02  0.14880490591E+03  0.47000000000E+01 0. -1.
        -11    1    4    4    0    0 -0.50698723266E+01  0.49762511504E+02 -0.33875775120E+02  0.60411748002E+02  0.00000000000E+00 0.  1.
         12    1    4    4    0    0  0.21106254713E+02 -0.27015778648E+02 -0.34824557711E+02  0.48867945565E+02  0.00000000000E+00 0. -1.
         -5    1    5    5    0  502  0.91843353693E+02 -0.69430321339E+02  0.15737471921E+03  0.19505041242E+03  0.47000000000E+01 0.  1.
         13    1    6    6    0    0  0.26523188889E+02 -0.29799153505E+02  0.43480854991E+02  0.59008930249E+02  0.00000000000E+00 0. -1.
        -14    1    6    6    0    0 -0.58356514257E+02 -0.42353823505E+02  0.60140677320E+02  0.93894782550E+02  0.00000000000E+00 0.  1.
</event>
<event>
12    1  0.1627564E-001  0.2965679E+03  0.7818608E-02  0.1088362E+00
         21   -1    0    0  503  502  0.00000000000E+00  0.00000000000E+00  0.95565188146E+02  0.95565188146E+02  0.00000000000E+00 0.  1.
         21   -1    0    0  501  503 -0.00000000000E+00 -0.00000000000E+00 -0.20519677574E+04  0.20519677574E+04  0.00000000000E+00 0. -1.
          6    2    1    2  501    0 -0.51832889300E+02 -0.22304178589E+03 -0.17949520450E+04  0.18192870537E+04  0.18846286995E+03 0.  0.
         24    2    3    3    0    0 -0.98825037437E+02 -0.18733367835E+03 -0.11799906768E+04  0.12014821449E+04  0.79505045327E+02 0.  0.
         -6    2    1    2    0  502  0.51832889300E+02  0.22304178589E+03 -0.16145052422E+03  0.32824589178E+03  0.17101113131E+03 0.  0.
        -24    2    5    5    0    0  0.12194545176E+02  0.81512635163E+02 -0.13727142707E+03  0.17922100269E+03  0.80521466019E+02 0.  0.
          5    1    3    3  501    0  0.46992148137E+02 -0.35708107539E+02 -0.61496136823E+03  0.61780490881E+03  0.47000000000E+01 0. -1.
        -13    1    4    4    0    0 -0.64529529622E+02 -0.43855014804E+02 -0.36464900220E+03  0.37290242333E+03  0.00000000000E+00 0.  1.
         14    1    4    4    0    0 -0.34295507815E+02 -0.14347866355E+03 -0.81534167456E+03  0.82857972158E+03  0.00000000000E+00 0. -1.
         -5    1    5    5    0  502  0.39638344124E+02  0.14152915073E+03 -0.24179097145E+02  0.14902488909E+03  0.47000000000E+01 0.  1.
         11    1    6    6    0    0  0.27838394272E+02 -0.33231381187E+01 -0.24462300144E+02  0.37207842869E+02  0.00000000000E+00 0. -1.
        -12    1    6    6    0    0 -0.15643849096E+02  0.84835773282E+02 -0.11280912693E+03  0.14201315982E+03  0.00000000000E+00 0.  1.
</event>
<event>
12    1  0.1627564E-001  0.1779611E+03  0.7818608E-02  0.1169843E+00
         21   -1    0    0  503  502  0.00000000000E+00  0.00000000000E+00  0.67352973762E+02  0.67352973762E+02  0.00000000000E+00 0.  1.
         21   -1    0    0  501  503 -0.00000000000E+00 -0.00000000000E+00 -0.53107554002E+03  0.53107554002E+03  0.00000000000E+00 0. -1.
          6    2    1    2  501    0  0.35668422182E+02  0.29012564310E+02 -0.33349764256E+03  0.37790942850E+03  0.17170000968E+03 0.  0.
         24    2    3    3    0    0  0.69230225011E+02  0.41858444053E+02 -0.12689194466E+03  0.16814905178E+03  0.75017228693E+02 0.  0.
         -6    2    1    2    0  502 -0.35668422182E+02 -0.29012564310E+02 -0.13022492370E+03  0.22051908529E+03  0.17191908269E+03 0.  0.
        -24    2    5    5    0    0 -0.76087477592E+01 -0.82886113137E+01 -0.15714514554E+03  0.17620637943E+03  0.78914493381E+02 0.  0.
          5    1    3    3  501    0 -0.33561802829E+02 -0.12845879743E+02 -0.20660569790E+03  0.20976037672E+03  0.47000000000E+01 0. -1.
        -13    1    4    4    0    0  0.49412266960E+02  0.28663503877E+02 -0.23027758171E+02  0.61590958972E+02  0.00000000000E+00 0.  1.
         14    1    4    4    0    0  0.19817958051E+02  0.13194940176E+02 -0.10386418649E+03  0.10655809281E+03  0.00000000000E+00 0. -1.
         -5    1    5    5    0  502 -0.28059674423E+02 -0.20723952996E+02  0.26920221840E+02  0.44312705857E+02  0.47000000000E+01 0.  1.
         11    1    6    6    0    0  0.28898269380E+02  0.18093156170E+02 -0.78330189132E+02  0.85428863991E+02  0.00000000000E+00 0. -1.
        -12    1    6    6    0    0 -0.36507017139E+02 -0.26381767484E+02 -0.78814956404E+02  0.90777515437E+02  0.00000000000E+00 0.  1.
</event>
<event>
12    1  0.1627564E-001  0.2100705E+03  0.7818608E-02  0.1141683E+00
         21   -1    0    0  503  502  0.00000000000E+00  0.00000000000E+00  0.14354962237E+03  0.14354962237E+03  0.00000000000E+00 0.  1.
         21   -1    0    0  501  503 -0.00000000000E+00 -0.00000000000E+00 -0.16200920729E+04  0.16200920729E+04  0.00000000000E+00 0.  1.
          6    2    1    2  501    0 -0.43212901472E+02 -0.11136970287E+03 -0.15321258618E+04  0.15463420274E+04  0.17173655372E+03 0.  0.
         24    2    3    3    0    0 -0.19141021180E+02 -0.61695829364E+01 -0.34867846142E+03  0.35797492923E+03  0.78517119502E+02 0.  0.
         -6    2    1    2    0  502  0.43212901472E+02  0.11136970287E+03  0.55583411272E+02  0.21729966782E+03  0.17279775593E+03 0.  0.
        -24    2    5    5    0    0 -0.30723907374E+02  0.11438222493E+02  0.49896744376E+02  0.92771033951E+02  0.71006958976E+02 0.  0.
          5    1    3    3  501    0 -0.24071880293E+02 -0.10520011994E+03 -0.11834474004E+04  0.11883670982E+04  0.47000000000E+01 0. -1.
        -11    1    4    4    0    0  0.16440400100E+02 -0.23858155572E+02 -0.24881637727E+03  0.25049768051E+03  0.00000000000E+00 0.  1.
         12    1    4    4    0    0 -0.35581421280E+02  0.17688572636E+02 -0.99862084150E+02  0.10747724872E+03  0.00000000000E+00 0. -1.
         -5    1    5    5    0  502  0.73936808846E+02  0.99931480382E+02  0.56866668959E+01  0.12452863387E+03  0.47000000000E+01 0.  1.
         13    1    6    6    0    0  0.27818718293E+01 -0.26998356469E+02  0.19324270366E+02  0.33317825380E+02  0.00000000000E+00 0. -1.
        -14    1    6    6    0    0 -0.33505779203E+02  0.38436578962E+02  0.30572474010E+02  0.59453208571E+02  0.00000000000E+00 0.  1.
</event>
<event>
12    1  0.1627564E-001  0.2384589E+03  0.7818608E-02  0.1121100E+00
         21   -1    0    0  503  502  0.00000000000E+00  0.00000000000E+00  0.16903718600E+04  0.16903718600E+04  0.00000000000E+00 0.  1.
         21   -1    0    0  501  503 -0.00000000000E+00 -0.00000000000E+00 -0.33707107590E+02  0.33707107590E+02  0.00000000000E+00 0.  1.
          6    2    1    2  501    0 -0.14875414667E+03  0.71755088715E+02  0.74996828168E+03  0.78696575095E+03  0.17200604857E+03 0.  0.
         24    2    3    3    0    0 -0.17918236159E+03  0.55044234348E+02  0.66581243767E+03  0.69580970345E+03  0.75556302294E+02 0.  0.
         -6    2    1    2    0  502  0.14875414667E+03 -0.71755088715E+02  0.90669647075E+03  0.93711321665E+03  0.16972360427E+03 0.  0.
        -24    2    5    5    0    0  0.50629766948E+02  0.66442950737E+01  0.22410136954E+03  0.24304332142E+03  0.79000710745E+02 0.  0.
          5    1    3    3  501    0  0.30428214913E+02  0.16710854366E+02  0.84155844010E+02  0.91156047509E+02  0.47000000000E+01 0. -1.
        -11    1    4    4    0    0 -0.64612036541E+02 -0.16833666761E+02  0.22944452770E+03  0.23896208673E+03  0.00000000000E+00 0.  1.
         12    1    4    4    0    0 -0.11457032505E+03  0.71877901110E+02  0.43636790997E+03  0.45684761672E+03  0.00000000000E+00 0. -1.
         -5    1    5    5    0  502  0.98124379724E+02 -0.78399383788E+02  0.68259510121E+03  0.69406989523E+03  0.47000000000E+01 0.  1.
         11    1    6    6    0    0  0.44219569344E+02 -0.16601075006E+02  0.56170013821E+02  0.73389620907E+02  0.00000000000E+00 0. -1.
        -12    1    6    6    0    0  0.64101976047E+01  0.23245370080E+02  0.16793135572E+03  0.16965370051E+03  0.00000000000E+00 0.  1.
</event>
<event>
12    1  0.1627564E-001  0.2079505E+03  0.7818608E-02  0.1143297E+00
         21   -1    0    0  503  502  0.00000000000E+00  0.00000000000E+00  0.51114044681E+03  0.51114044681E+03  0.00000000000E+00 0.  1.
         21   -1    0    0  501  503 -0.00000000000E+00 -0.00000000000E+00 -0.12033033130E+03  0.12033033130E+03  0.00000000000E+00 0.  1.
          6    2    1    2  501    0  0.39956756677E+02  0.10886456809E+03  0.23043901994E+02  0.20922343351E+03  0.17261340365E+03 0.  0.
         24    2    3    3    0    0  0.39878641472E+02  0.50290691427E+02  0.78348264664E+02  0.12852914833E+03  0.79131736396E+02 0.  0.
         -6    2    1    2    0  502 -0.39956756677E+02 -0.10886456809E+03  0.36776621352E+03  0.42224734460E+03  0.17202556679E+03 0.  0.
        -24    2    5    5    0    0  0.65159563340E+00  0.35746928382E+01  0.82109223232E+02  0.11254808439E+03  0.76889165393E+02 0.  0.
          5    1    3    3  501    0  0.78115205116E-01  0.58573876665E+02 -0.55304362670E+02  0.80694285175E+02  0.47000000000E+01 0. -1.
        -11    1    4    4    0    0  0.43331366298E+02  0.60195397236E+02  0.31603202225E+02  0.80621681603E+02  0.00000000000E+00 0.  1.
         12    1    4    4    0    0 -0.34527248262E+01 -0.99047058086E+01  0.46745062440E+02  0.47907466729E+02  0.00000000000E+00 0. -1.
         -5    1    5    5    0  502 -0.40608352311E+02 -0.11243926093E+03  0.28565699029E+03  0.30969926021E+03  0.47000000000E+01 0.  1.
         11    1    6    6    0    0  0.27704378919E+02  0.85372423022E+01  0.79851913239E+02  0.84951428271E+02  0.00000000000E+00 0. -1.
        -12    1    6    6    0    0 -0.27052783285E+02 -0.49625494640E+01  0.22573099933E+01  0.27596656121E+02  0.00000000000E+00 0.  1.
</event>
<event>
12    1  0.1627564E-001  0.3457524E+03  0.7818608E-02  0.1064445E+00
         21   -1    0    0  501  502  0.00000000000E+00  0.00000000000E+00  0.41746004755E+03  0.41746004755E+03  0.00000000000E+00 0.  1.
         21   -1    0    0  502  503 -0.00000000000E+00 -0.00000000000E+00 -0.30287142610E+03  0.30287142610E+03  0.00000000000E+00 0.  1.
         -6    2    1    2    0  503 -0.29556981192E+03  0.52159987182E+02  0.14290368777E+03  0.37412054052E+03  0.17164654638E+03 0.  0.
        -24    2    3    3    0    0 -0.30294825170E+03  0.41888041844E+02  0.15861442926E+03  0.35341132439E+03  0.78795785316E+02 0.  0.
          6    2    1    2  501    0  0.29556981192E+03 -0.52159987182E+02 -0.28315066320E+02  0.34621093313E+03  0.17022951934E+03 0.  0.
         24    2    5    5    0    0  0.23089356354E+03 -0.10006261250E+03 -0.28793660092E+02  0.26558837011E+03  0.79898331448E+02 0.  0.
          5    1    5    5  501    0  0.64676248373E+02  0.47902625316E+02  0.47859377179E+00  0.80622563019E+02  0.47000000000E+01 0. -1.
        -13    1    6    6    0    0  0.20730273767E+03 -0.63726956988E+02 -0.67532562148E+01  0.21698192681E+03  0.00000000000E+00 0.  1.
         14    1    6    6    0    0  0.23590825872E+02 -0.36335655510E+02 -0.22040403877E+02  0.48606443295E+02  0.00000000000E+00 0. -1.
         -5    1    3    3    0  503  0.73784397785E+01  0.10271945339E+02 -0.15710741490E+02  0.20709216131E+02  0.47000000000E+01 0.  1.
         11    1    4    4    0    0 -0.25278494485E+02 -0.18906516760E+02  0.15316113810E+02  0.35086208141E+02  0.00000000000E+00 0. -1.
        -12    1    4    4    0    0 -0.27766975721E+03  0.60794558604E+02  0.14329831545E+03  0.31832511625E+03  0.00000000000E+00 0.  1.
</event>
<event>
12    1  0.1627564E-001  0.2747920E+03  0.7818608E-02  0.1098678E+00
         21   -1    0    0  501  502  0.00000000000E+00  0.00000000000E+00  0.49760004027E+03  0.49760004027E+03  0.00000000000E+00 0. -1.
         21   -1    0    0  502  503 -0.00000000000E+00 -0.00000000000E+00 -0.18010671501E+03  0.18010671501E+03  0.00000000000E+00 0. -1.
         -6    2    1    2    0  503  0.19262227760E+03  0.90918145052E+02  0.23081703808E+02  0.27498001963E+03  0.17237109741E+03 0.  0.
        -24    2    3    3    0    0  0.82441257254E+02  0.76676458186E+02  0.69673900081E+02  0.15441632011E+03  0.79461358075E+02 0.  0.
          6    2    1    2  501    0 -0.19262227760E+03 -0.90918145052E+02  0.29441162145E+03  0.40272673565E+03  0.17361212468E+03 0.  0.
         24    2    5    5    0    0 -0.83839345652E+02 -0.60699040016E+02  0.24939947874E+03  0.28109161086E+03  0.78095994523E+02 0.  0.
          5    1    5    5  501    0 -0.10878293195E+03 -0.30219105035E+02  0.45012142708E+02  0.12163512479E+03  0.47000000000E+01 0. -1.
        -13    1    6    6    0    0 -0.33657177945E+02  0.10575670723E+02  0.35208734932E+02  0.49842807445E+02  0.00000000000E+00 0.  1.
         14    1    6    6    0    0 -0.50182167707E+02 -0.71274710739E+02  0.21419074381E+03  0.23124880342E+03  0.00000000000E+00 0. -1.
         -5    1    3    3    0  503  0.11018102034E+03  0.14241686865E+02 -0.46592196273E+02  0.12056369952E+03  0.47000000000E+01 0.  1.
         13    1    4    4    0    0  0.70453230243E+02  0.23861058372E+02  0.12081444746E+02  0.75358934874E+02  0.00000000000E+00 0. -1.
        -14    1    4    4    0    0  0.11988027011E+02  0.52815399814E+02  0.57592455335E+02  0.79057385238E+02  0.00000000000E+00 0.  1.
</event>
<event>
12    1  0.1627564E-001  0.1838485E+03  0.7818608E-02  0.1164187E+00
         21   -1    0    0  501  502  0.00000000000E+00  0.00000000000E+00  0.36019760224E+03  0.36019760224E+03  0.00000000000E+00 0. -1.
         21   -1    0    0  502  503 -0.00000000000E+00 -0.00000000000E+00 -0.10277875412E+03  0.10277875412E+03  0.00000000000E+00 0.  1.
         -6    2    1    2    0  503  0.62461903978E+02 -0.10338808491E+02  0.60036072612E+02  0.19340272035E+03  0.17260330766E+03 0.  0.
        -24    2    3    3    0    0  0.66354710379E+02  0.28868952998E+02 -0.14278763234E+02  0.10915791440E+03  0.80468647060E+02 0.  0.
          6    2    1    2  501    0 -0.62461903978E+02  0.10338808491E+02  0.19738277551E+03  0.26957363601E+03  0.17234153519E+03 0.  0.
         24    2    5    5    0    0 -0.10742018353E+03 -0.26794623660E+01  0.16334874572E+03  0.21151222490E+03  0.80674241280E+02 0.  0.
          5    1    5    5  501    0  0.44958279550E+02  0.13018270857E+02  0.34034029791E+02  0.58061411109E+02  0.47000000000E+01 0. -1.
        -11    1    6    6    0    0 -0.26739224244E+02  0.56762460463E+01 -0.19296213981E+01  0.27403089626E+02  0.00000000000E+00 0.  1.
         12    1    6    6    0    0 -0.80680959284E+02 -0.83557084122E+01  0.16527836711E+03  0.18410913527E+03  0.00000000000E+00 0. -1.
         -5    1    3    3    0  503 -0.38928064018E+01 -0.39207761489E+02  0.74314835846E+02  0.84244805949E+02  0.47000000000E+01 0.  1.
         13    1    4    4    0    0 -0.61744905838E+01 -0.17025296027E+02  0.90054380388E+01  0.20225799194E+02  0.00000000000E+00 0. -1.
        -14    1    4    4    0    0  0.72529200963E+02  0.45894249025E+02 -0.23284201273E+02  0.88932115205E+02  0.00000000000E+00 0.  1.
</event>
<event>
12    1  0.1627564E-001  0.1808144E+03  0.7818608E-02  0.1167539E+00
         21   -1    0    0  503  502  0.00000000000E+00  0.00000000000E+00  0.45969452408E+03  0.45969452408E+03  0.00000000000E+00 0.  1.
         21   -1    0    0  501  503 -0.00000000000E+00 -0.00000000000E+00 -0.74100129039E+02  0.74100129039E+02  0.00000000000E+00 0.  1.
          6    2    1    2  501    0  0.52233432368E+02  0.94376269220E+01  0.25452212255E+03  0.31221043191E+03  0.17284803345E+03 0.  0.
         24    2    3    3    0    0  0.69113089417E+02 -0.25237291713E+02  0.24974225985E+03  0.27306697918E+03  0.82345848355E+02 0.  0.
         -6    2    1    2    0  502 -0.52233432368E+02 -0.94376269220E+01  0.13107227249E+03  0.22158422121E+03  0.17059374612E+03 0.  0.
        -24    2    5    5    0    0 -0.78419638423E+02 -0.49512988602E+02  0.11809656494E+03  0.17176242891E+03  0.83392791079E+02 0.  0.
          5    1    3    3  501    0 -0.16879657049E+02  0.34674918635E+02  0.47798627056E+01  0.39143452734E+02  0.47000000000E+01 0. -1.
        -13    1    4    4    0    0  0.42521182110E+01  0.24103666104E+01  0.15444347127E+03  0.15452079534E+03  0.00000000000E+00 0.  1.
         14    1    4    4    0    0  0.64860971206E+02 -0.27647658323E+02  0.95298788579E+02  0.11854618383E+03  0.00000000000E+00 0. -1.
         -5    1    5    5    0  502  0.26186206055E+02  0.40075361680E+02  0.12975707545E+02  0.49821792296E+02  0.47000000000E+01 0.  1.
         13    1    6    6    0    0 -0.46203555979E+01 -0.96097630312E+01 -0.12568486720E+02  0.16482174911E+02  0.00000000000E+00 0. -1.
        -14    1    6    6    0    0 -0.73799282825E+02 -0.39903225571E+02  0.13066505166E+03  0.15528025400E+03  0.00000000000E+00 0.  1.
</event>
<event>
12    1  0.1627564E-001  0.2507520E+03  0.7818608E-02  0.1113112E+00
         21   -1    0    0  503  502  0.00000000000E+00  0.00000000000E+00  0.16669858110E+04  0.16669858110E+04  0.00000000000E+00 0. -1.
         21   -1    0    0  501  503 -0.00000000000E+00 -0.00000000000E+00 -0.52347043574E+02  0.52347043574E+02  0.00000000000E+00 0.  1.
          6    2    1    2  501    0  0.15082816015E+03  0.10114315221E+03  0.34668065785E+03  0.42681812784E+03  0.17031489831E+03 0.  0.
         24    2    3    3    0    0  0.14351219706E+03  0.42109405278E+02  0.17368982408E+03  0.24382516304E+03  0.83148075319E+02 0.  0.
         -6    2    1    2    0  502 -0.15082816015E+03 -0.10114315221E+03  0.12679581096E+04  0.12925147267E+04  0.17290887794E+03 0.  0.
        -24    2    5    5    0    0 -0.16482591649E+03 -0.10650153969E+03  0.12528355070E+04  0.12707103096E+04  0.81226366280E+02 0.  0.
          5    1    3    3  501    0  0.73159630924E+01  0.59033746932E+02  0.17299083378E+03  0.18299296479E+03  0.47000000000E+01 0. -1.
        -13    1    4    4    0    0  0.82409087512E+02  0.23041955045E+02  0.15515419586E+03  0.17718638179E+03  0.00000000000E+00 0.  1.
         14    1    4    4    0    0  0.61103109543E+02  0.19067450232E+02  0.18535628214E+02  0.66638781258E+02  0.00000000000E+00 0. -1.
         -5    1    5    5    0  502  0.13997756342E+02  0.53583874785E+01  0.15122602581E+02  0.21804417162E+02  0.47000000000E+01 0.  1.
         11    1    6    6    0    0 -0.23606978514E+02 -0.56018773360E+02  0.43660050411E+03  0.44081219652E+03  0.00000000000E+00 0. -1.
        -12    1    6    6    0    0 -0.14121893798E+03 -0.50482766328E+02  0.81623500288E+03  0.82989811306E+03  0.00000000000E+00 0.  1.
</event>
<event>
12    1  0.1627564E-001  0.1980915E+03  0.7818608E-02  0.1151372E+00
         21   -1    0    0  501  502  0.00000000000E+00  0.00000000000E+00  0.47469834656E+03  0.47469834656E+03  0.00000000000E+00 0.  1.
         21   -1    0    0  502  503 -0.00000000000E+00 -0.00000000000E+00 -0.13604029436E+03  0.13604029436E+03  0.00000000000E+00 0.  1.
         -6    2    1    2    0  503 -0.95135325922E+02  0.96729518145E+01 -0.22008483762E+02  0.19925282558E+03  0.17341574009E+03 0.  0.
        -24    2    3    3    0    0 -0.82507700967E+02 -0.54465319271E+02  0.77171795389E+01  0.12728839139E+03  0.79804686584E+02 0.  0.
          6    2    1    2  501    0  0.95135325922E+02 -0.96729518145E+01  0.36066653596E+03  0.41148581534E+03  0.17348178529E+03 0.  0.
         24    2    5    5    0    0  0.18551645677E+01  0.34125892131E+02  0.10049093884E+03  0.13160555778E+03  0.77804729292E+02 0.  0.
          5    1    5    5  501    0  0.93280161354E+02 -0.43798843946E+02  0.26017559713E+03  0.27988025756E+03  0.47000000000E+01 0. -1.
        -11    1    6    6    0    0  0.33750714026E+02  0.27839679958E+02  0.84989842952E+02  0.95589915171E+02  0.00000000000E+00 0.  1.
         12    1    6    6    0    0 -0.31895549458E+02  0.62862121737E+01  0.15501095885E+02  0.36015642606E+02  0.00000000000E+00 0. -1.
         -5    1    3    3    0  503 -0.12627624955E+02  0.64138271086E+02 -0.29725663301E+02  0.71964434192E+02  0.47000000000E+01 0.  1.
         11    1    4    4    0    0 -0.22000534637E+02 -0.47335216151E+02  0.32528675734E+02  0.61504153985E+02  0.00000000000E+00 0. -1.
        -12    1    4    4    0    0 -0.60507166329E+02 -0.71301031202E+01 -0.24811496195E+02  0.65784237406E+02  0.00000000000E+00 0.  1.
</event>
<event>
12    1  0.1627564E-001  0.2261716E+03  0.7818608E-02  0.1129367E+00
         21   -1    0    0  501  502  0.00000000000E+00  0.00000000000E+00  0.52430460456E+03  0.52430460456E+03  0.00000000000E+00 0.  1.
         21   -1    0    0  502  503 -0.00000000000E+00 -0.00000000000E+00 -0.12085480646E+03  0.12085480646E+03  0.00000000000E+00 0. -1.
         -6    2    1    2    0  503 -0.69662940315E+02  0.12947910142E+03  0.34336300528E+03  0.41115900692E+03  0.17185986332E+03 0.  0.
        -24    2    3    3    0    0 -0.98440122681E+02  0.10582015955E+03  0.33325539569E+03  0.37227294866E+03  0.81483897958E+02 0.  0.
          6    2    1    2  501    0  0.69662940315E+02 -0.12947910142E+03  0.60086792823E+02  0.23400040410E+03  0.17183714234E+03 0.  0.
         24    2    5    5    0    0 -0.85307650725E+01 -0.86586096707E+02  0.80057305032E+02  0.14248550491E+03  0.79517425290E+02 0.  0.
          5    1    5    5  501    0  0.78193705388E+02 -0.42893004711E+02 -0.19970512209E+02  0.91514899188E+02  0.47000000000E+01 0.  1.
        -13    1    6    6    0    0 -0.30936651864E+02 -0.10046965609E+02  0.44615089529E+02  0.55213441843E+02  0.00000000000E+00 0.  1.
         14    1    6    6    0    0  0.22405886791E+02 -0.76539131098E+02  0.35442215503E+02  0.87272063066E+02  0.00000000000E+00 0. -1.
         -5    1    3    3    0  503  0.28777182366E+02  0.23658941870E+02  0.10107609583E+02  0.38886058257E+02  0.47000000000E+01 0.  1.
         11    1    4    4    0    0  0.66296680952E+01 -0.84111251178E+01  0.21874590574E+02  0.24355640776E+02  0.00000000000E+00 0. -1.
        -12    1    4    4    0    0 -0.10506979078E+03  0.11423128467E+03  0.31138080512E+03  0.34791730789E+03  0.00000000000E+00 0.  1.
</event>
<event>
12    1  0.1627564E-001  0.1912477E+03  0.7818608E-02  0.1157356E+00
         21   -1    0    0  503  502  0.00000000000E+00  0.00000000000E+00  0.11143772060E+04  0.11143772060E+04  0.00000000000E+00 0.  1.
         21   -1    0    0  501  503 -0.00000000000E+00 -0.00000000000E+00 -0.50306872138E+02  0.50306872138E+02  0.00000000000E+00 0.  1.
          6    2    1    2  501    0  0.84062504134E+02 -0.94757720623E+01  0.18866243368E+03  0.26864326568E+03  0.17152083097E+03 0.  0.
         24    2    3    3    0    0  0.12257040972E+03  0.14647583817E+02  0.14844017907E+03  0.20777689683E+03  0.76802962447E+02 0.  0.
         -6    2    1    2    0  502 -0.84062504134E+02  0.94757720623E+01  0.87540790020E+03  0.89604081247E+03  0.17144635030E+03 0.  0.
        -24    2    5    5    0    0 -0.39028869713E+02  0.67606008040E+02  0.41819682757E+03  0.43293045036E+03  0.80289247500E+02 0.  0.
          5    1    3    3  501    0 -0.38507905590E+02 -0.24123355879E+02  0.40222254612E+02  0.60866368857E+02  0.47000000000E+01 0. -1.
        -13    1    4    4    0    0  0.10566854892E+03 -0.75781666892E+01  0.76688878788E+02  0.13078400120E+03  0.00000000000E+00 0.  1.
         14    1    4    4    0    0  0.16901860806E+02  0.22225750506E+02  0.71751300283E+02  0.76992895624E+02  0.00000000000E+00 0. -1.
         -5    1    5    5    0  502 -0.45033634421E+02 -0.58130235978E+02  0.45721107263E+03  0.46311036211E+03  0.47000000000E+01 0.  1.
         13    1    6    6    0    0  0.34981413701E+01  0.19182719194E+02  0.27740617159E+03  0.27809062866E+03  0.00000000000E+00 0. -1.
        -14    1    6    6    0    0 -0.42527011083E+02  0.48423288846E+02  0.14079065598E+03  0.15483982170E+03  0.00000000000E+00 0.  1.
</event>
<event>
12    1  0.1627564E-001  0.1911687E+03  0.7818608E-02  0.1157544E+00
         21   -1    0    0  501  502  0.00000000000E+00  0.00000000000E+00  0.46973196059E+02  0.46973196059E+02  0.00000000000E+00 0.  1.
         21   -1    0    0  502  503 -0.00000000000E+00 -0.00000000000E+00 -0.81525810000E+03  0.81525810000E+03  0.00000000000E+00 0. -1.
         -6    2    1    2    0  503 -0.61865968663E+02 -0.55782629072E+02 -0.47866575316E+03  0.51520865748E+03  0.17140582751E+03 0.  0.
        -24    2    3    3    0    0 -0.24934194401E+02  0.14209675595E+02 -0.11597965274E+03  0.14395917788E+03  0.80307758747E+02 0.  0.
          6    2    1    2  501    0  0.61865968663E+02  0.55782629072E+02 -0.28961915078E+03  0.34702263859E+03  0.17206498599E+03 0.  0.
         24    2    5    5    0    0  0.67382231878E+02  0.30351686326E+02 -0.77956105300E+02  0.13371418392E+03  0.79628754806E+02 0.  0.
          5    1    5    5  501    0 -0.55162632150E+01  0.25430942747E+02 -0.21166304548E+03  0.21330845467E+03  0.47000000000E+01 0. -1.
        -13    1    6    6    0    0  0.69686849042E+02 -0.34026972006E+01 -0.70260504831E+02  0.99017038012E+02  0.00000000000E+00 0.  1.
         14    1    6    6    0    0 -0.23046171642E+01  0.33754383526E+02 -0.76956004698E+01  0.34697145907E+02  0.00000000000E+00 0. -1.
         -5    1    3    3    0  503 -0.36931774261E+02 -0.69992304667E+02 -0.36268610043E+03  0.37124947960E+03  0.47000000000E+01 0.  1.
         11    1    4    4    0    0 -0.31507245632E+02  0.28330997886E+02 -0.12050639145E+03  0.12773857033E+03  0.00000000000E+00 0. -1.
        -12    1    4    4    0    0  0.65730512308E+01 -0.14121322291E+02  0.45267387188E+01  0.16220607546E+02  0.00000000000E+00 0.  1.
</event>
<event>
12    1  0.1627564E-001  0.1967848E+03  0.7818608E-02  0.1152793E+00
         21   -1    0    0  501  502  0.00000000000E+00  0.00000000000E+00  0.18932636029E+03  0.18932636029E+03  0.00000000000E+00 0. -1.
         21   -1    0    0  502  503 -0.00000000000E+00 -0.00000000000E+00 -0.21368775806E+03  0.21368775806E+03  0.00000000000E+00 0. -1.
         -6    2    1    2    0  503  0.38545371634E+02 -0.83364291493E+02 -0.57205351721E+02  0.20493103438E+03  0.17403713919E+03 0.  0.
        -24    2    3    3    0    0  0.62004131942E+02  0.85806963796E+01 -0.33449469468E+02  0.10699929197E+03  0.80073970466E+02 0.  0.
          6    2    1    2  501    0 -0.38545371634E+02  0.83364291493E+02  0.32843953950E+02  0.19808308397E+03  0.17240310923E+03 0.  0.
         24    2    5    5    0    0  0.36597784259E+02  0.72817304035E+02 -0.28788417136E+01  0.11408343545E+03  0.79780855688E+02 0.  0.
          5    1    5    5  501    0 -0.75143155893E+02  0.10546987458E+02  0.35722795663E+02  0.83999648523E+02  0.47000000000E+01 0. -1.
        -11    1    6    6    0    0  0.28311319904E+02  0.14494661667E+02  0.32413520676E+02  0.45412139061E+02  0.00000000000E+00 0.  1.
         12    1    6    6    0    0  0.82864643554E+01  0.58322642368E+02 -0.35292362389E+02  0.68671296386E+02  0.00000000000E+00 0. -1.
         -5    1    3    3    0  503 -0.23458760309E+02 -0.91944987873E+02 -0.23755882253E+02  0.97931742412E+02  0.47000000000E+01 0.  1.
         11    1    4    4    0    0  0.20734085432E+02 -0.16736500269E+02  0.21153759850E+02  0.34021967841E+02  0.00000000000E+00 0. -1.
        -12    1    4    4    0    0  0.41270046511E+02  0.25317196649E+02 -0.54603229318E+02  0.72977324130E+02  0.00000000000E+00 0.  1.
</event>
<event>
12    1  0.1627564E-001  0.2034863E+03  0.7818608E-02  0.1148166E+00
         21   -1    0    0  503  502  0.00000000000E+00  0.00000000000E+00  0.65088143456E+03  0.65088143456E+03  0.00000000000E+00 0. -1.
         21   -1    0    0  501  503 -0.00000000000E+00 -0.00000000000E+00 -0.69960636595E+02  0.69960636595E+02  0.00000000000E+00 0. -1.
          6    2    1    2  501    0  0.58711473882E+02 -0.90960623189E+02  0.16212399186E+03  0.25522697105E+03  0.16472931092E+03 0.  0.
         24    2    3    3    0    0 -0.67693382771E+01 -0.74431959399E+01  0.11363974386E+03  0.13845492936E+03  0.78450946283E+02 0.  0.
         -6    2    1    2    0  502 -0.58711473882E+02  0.90960623189E+02  0.41879680610E+03  0.46561510011E+03  0.17229563115E+03 0.  0.
        -24    2    5    5    0    0 -0.61183249887E+02 -0.10826486818E+02  0.18274705694E+03  0.20849975728E+03  0.78835646009E+02 0.  0.
          5    1    3    3  501    0  0.65480812159E+02 -0.83517427249E+02  0.48484248006E+02  0.11677204169E+03  0.47000000000E+01 0. -1.
        -11    1    4    4    0    0  0.83881785689E+01 -0.40947925652E+02  0.52486189942E+02  0.67096157040E+02  0.00000000000E+00 0.  1.
         12    1    4    4    0    0 -0.15157516846E+02  0.33504729713E+02  0.61153553915E+02  0.71358772317E+02  0.00000000000E+00 0. -1.
         -5    1    5    5    0  502  0.24717760050E+01  0.10178711001E+03  0.23604974916E+03  0.25711534283E+03  0.47000000000E+01 0.  1.
         11    1    6    6    0    0 -0.37145653587E+02  0.33226090293E+02  0.99832834949E+02  0.11158121522E+03  0.00000000000E+00 0. -1.
        -12    1    6    6    0    0 -0.24037596300E+02 -0.44052577111E+02  0.82914221993E+02  0.96918542058E+02  0.00000000000E+00 0.  1.
</event>
<event>
12    1  0.1627564E-001  0.1825710E+03  0.7818608E-02  0.1165802E+00
         21   -1    0    0  501  502  0.00000000000E+00  0.00000000000E+00  0.19506288172E+03  0.19506288172E+03  0.00000000000E+00 0. -1.
         21   -1    0    0  502  503 -0.00000000000E+00 -0.00000000000E+00 -0.38509892519E+03  0.38509892519E+03  0.00000000000E+00 0. -1.
         -6    2    1    2    0  503 -0.69781990859E-01  0.59513782769E+02 -0.31250748774E+03  0.36192966513E+03  0.17259854402E+03 0.  0.
        -24    2    3    3    0    0  0.42733414046E+02  0.89229932626E+02 -0.25229058873E+03  0.28215919391E+03  0.78582084404E+02 0.  0.
          6    2    1    2  501    0  0.69781990859E-01 -0.59513782769E+02  0.12247144426E+03  0.21823214178E+03  0.17054066330E+03 0.  0.
         24    2    5    5    0    0  0.77166390667E+01 -0.48625758269E+02  0.15586999526E+03  0.18197504993E+03  0.79971573001E+02 0.  0.
          5    1    5    5  501    0 -0.76468570758E+01 -0.10888024500E+02 -0.33398550999E+02  0.36257091851E+02  0.47000000000E+01 0. -1.
        -13    1    6    6    0    0  0.37001295701E+02 -0.32049908769E+02  0.46393780350E+02  0.67443868445E+02  0.00000000000E+00 0.  1.
         14    1    6    6    0    0 -0.29284656635E+02 -0.16575849501E+02  0.10947621491E+03  0.11453118149E+03  0.00000000000E+00 0. -1.
         -5    1    3    3    0  503 -0.42803196037E+02 -0.29716149857E+02 -0.60216899006E+02  0.79770471223E+02  0.47000000000E+01 0.  1.
         13    1    4    4    0    0  0.61189245213E+01  0.71532403964E+02 -0.21612351760E+03  0.22773603341E+03  0.00000000000E+00 0. -1.
        -14    1    4    4    0    0  0.36614489525E+02  0.17697528662E+02 -0.36167071138E+02  0.54423160498E+02  0.00000000000E+00 0.  1.
</event>
<event>
12    1  0.1627564E-001  0.1977816E+03  0.7818608E-02  0.1152043E+00
         21   -1    0    0  501  502  0.00000000000E+00  0.00000000000E+00  0.88894182947E+03  0.88894182947E+03  0.00000000000E+00 0. -1.
         21   -1    0    0  502  503 -0.00000000000E+00 -0.00000000000E+00 -0.12224076996E+03  0.12224076996E+03  0.00000000000E+00 0. -1.
         -6    2    1    2    0  503 -0.63712754450E+02  0.73385147313E+02 -0.22918845841E+02  0.19716959812E+03  0.17001729912E+03 0.  0.
        -24    2    3    3    0    0 -0.44780938959E+01  0.93850660527E+02 -0.43700300154E+02  0.13097638785E+03  0.80106792060E+02 0.  0.
          6    2    1    2  501    0  0.63712754450E+02 -0.73385147313E+02  0.78961990535E+03  0.81401300132E+03  0.17225816808E+03 0.  0.
         24    2    5    5    0    0  0.10535549606E+03 -0.57960075650E+02  0.47731884090E+03  0.49853543379E+03  0.79026273709E+02 0.  0.
          5    1    5    5  501    0 -0.41642741614E+02 -0.15425071662E+02  0.31230106445E+03  0.31547756754E+03  0.47000000000E+01 0. -1.
        -13    1    6    6    0    0  0.55079694874E+02 -0.97227273248E+01  0.97712262766E+02  0.11258770141E+03  0.00000000000E+00 0.  1.
         14    1    6    6    0    0  0.50275801189E+02 -0.48237348326E+02  0.37960657814E+03  0.38594773237E+03  0.00000000000E+00 0. -1.
         -5    1    3    3    0  503 -0.59234660554E+02 -0.20465513215E+02  0.20781454313E+02  0.66193210267E+02  0.47000000000E+01 0.  1.
         13    1    4    4    0    0 -0.28082772783E+02  0.15675292238E+01 -0.78768585390E+01  0.29208631867E+02  0.00000000000E+00 0. -1.
        -14    1    4    4    0    0  0.23604678888E+02  0.92283131303E+02 -0.35823441615E+02  0.10176775598E+03  0.00000000000E+00 0.  1.
</event>
<event>
12    1  0.1627564E-001  0.2332092E+03  0.7818608E-02  0.1124581E+00
         21   -1    0    0  501  502  0.00000000000E+00  0.00000000000E+00  0.44242395016E+03  0.44242395016E+03  0.00000000000E+00 0.  1.
         21   -1    0    0  502  503 -0.00000000000E+00 -0.00000000000E+00 -0.14922233267E+03  0.14922233267E+03  0.00000000000E+00 0.  1.
         -6    2    1    2    0  503 -0.14241763074E+03  0.62920729911E+02  0.20872072232E+02  0.23310771966E+03  0.17222591491E+03 0.  0.
        -24    2    3    3    0    0 -0.71566538848E+02 -0.64643287104E+01 -0.40219871305E+02  0.11653808747E+03  0.82461692656E+02 0.  0.
          6    2    1    2  501    0  0.14241763074E+03 -0.62920729911E+02  0.27232954525E+03  0.35853856318E+03  0.17362234956E+03 0.  0.
         24    2    5    5    0    0  0.89526634036E+02 -0.10261622867E+03  0.16432848194E+03  0.23181244183E+03  0.90487842404E+02 0.  0.
          5    1    5    5  501    0  0.52890996707E+02  0.39695498760E+02  0.10800106331E+03  0.12672612134E+03  0.47000000000E+01 0. -1.
        -13    1    6    6    0    0  0.63477129378E+02 -0.88864171750E+01  0.47468557162E+02  0.79759502778E+02  0.00000000000E+00 0.  1.
         14    1    6    6    0    0  0.26049504658E+02 -0.93729811496E+02  0.11685992478E+03  0.15205293906E+03  0.00000000000E+00 0. -1.
         -5    1    3    3    0  503 -0.70851091895E+02  0.69385058621E+02  0.61091943538E+02  0.11656963219E+03  0.47000000000E+01 0.  1.
         13    1    4    4    0    0 -0.58310883078E+01  0.60759061944E+01 -0.48392701530E+02  0.49119973415E+02  0.00000000000E+00 0. -1.
        -14    1    4    4    0    0 -0.65735450541E+02 -0.12540234905E+02  0.81728302247E+01  0.67418114058E+02  0.00000000000E+00 0.  1.
</event>
<event>
12    1  0.1627564E-001  0.2046010E+03  0.7818608E-02  0.1146162E+00
         21   -1    0    0  503  502  0.00000000000E+00  0.00000000000E+00  0.42039678215E+03  0.42039678215E+03  0.00000000000E+00 0. -1.
         21   -1    0    0  501  503 -0.00000000000E+00 -0.00000000000E+00 -0.10079394623E+03  0.10079394623E+03  0.00000000000E+00 0. -1.
          6    2    1    2  501    0  0.91093087490E+02  0.62546782879E+02  0.12448658118E+03  0.23846836074E+03  0.17076357793E+03 0.  0.
         24    2    3    3    0    0  0.10688306603E+03  0.12044003149E+02  0.12830628212E+03  0.18520923666E+03  0.79189086986E+02 0.  0.
         -6    2    1    2    0  502 -0.91093087490E+02 -0.62546782879E+02  0.19511625475E+03  0.28272236764E+03  0.17219620688E+03 0.  0.
        -24    2    5    5    0    0 -0.10263538124E+02 -0.82338674187E+02  0.79924690946E+02  0.14053825678E+03  0.80486321280E+02 0.  0.
          5    1    3    3  501    0 -0.15789978539E+02  0.50502779730E+02 -0.38197009433E+01  0.53259124083E+02  0.47000000000E+01 0. -1.
        -13    1    4    4    0    0 -0.84255983908E+01  0.60586269871E+01  0.35755240098E+02  0.37230832165E+02  0.00000000000E+00 0.  1.
         14    1    4    4    0    0  0.11530866442E+03  0.59853761616E+01  0.92551042020E+02  0.14797840450E+03  0.00000000000E+00 0. -1.
         -5    1    5    5    0  502 -0.80829549366E+02  0.19791891308E+02  0.11519156380E+03  0.14218411087E+03  0.47000000000E+01 0.  1.
         13    1    6    6    0    0  0.10716188728E+02 -0.67984225594E+02  0.89909430911E+02  0.11322719372E+03  0.00000000000E+00 0. -1.
        -14    1    6    6    0    0 -0.20979726852E+02 -0.14354448594E+02 -0.99847399654E+01  0.27311063058E+02  0.00000000000E+00 0.  1.
</event>
<event>
12    1  0.1627564E-001  0.1871056E+03  0.7818608E-02  0.1161258E+00
         21   -1    0    0  503  502  0.00000000000E+00  0.00000000000E+00  0.58744487864E+03  0.58744487864E+03  0.00000000000E+00 0.  1.
         21   -1    0    0  501  503 -0.00000000000E+00 -0.00000000000E+00 -0.98861620941E+02  0.98861620941E+02  0.00000000000E+00 0.  1.
          6    2    1    2  501    0 -0.41054878390E+02 -0.60063313998E+02  0.27691861333E+02  0.18914371486E+03  0.17238155632E+03 0.  0.
         24    2    3    3    0    0 -0.63041980497E+02 -0.99533646916E+02  0.30844262821E+02  0.14360946978E+03  0.76099100450E+02 0.  0.
         -6    2    1    2    0  502  0.41054878390E+02  0.60063313998E+02  0.46089139637E+03  0.49716278472E+03  0.17162998147E+03 0.  0.
        -24    2    5    5    0    0  0.74852741407E+02  0.57050364535E+02  0.20946708854E+03  0.24341557592E+03  0.80727965592E+02 0.  0.
          5    1    3    3  501    0  0.21987102106E+02  0.39470332917E+02 -0.31524014888E+01  0.45534245077E+02  0.47000000000E+01 0. -1.
        -13    1    4    4    0    0 -0.53379984606E+02 -0.41585153805E+02 -0.14736233677E+02  0.69252468234E+02  0.00000000000E+00 0.  1.
         14    1    4    4    0    0 -0.96619958905E+01 -0.57948493110E+02  0.45580496498E+02  0.74357001549E+02  0.00000000000E+00 0. -1.
         -5    1    5    5    0  502 -0.33797863017E+02  0.30129494633E+01  0.25142430783E+03  0.25374720880E+03  0.47000000000E+01 0.  1.
         11    1    6    6    0    0  0.44470781237E+02 -0.14021577046E+02  0.74821433241E+02  0.88161793759E+02  0.00000000000E+00 0. -1.
        -12    1    6    6    0    0  0.30381960170E+02  0.71071941581E+02  0.13464565530E+03  0.15525378216E+03  0.00000000000E+00 0.  1.
</event>
<event>
12    1  0.1627564E-001  0.2205341E+03  0.7818608E-02  0.1133679E+00
         21   -1    0    0  503  502  0.00000000000E+00  0.00000000000E+00  0.37296777730E+02  0.37296777730E+02  0.00000000000E+00 0. -1.
         21   -1    0    0  501  503 -0.00000000000E+00 -0.00000000000E+00 -0.19817120713E+04  0.19817120713E+04  0.00000000000E+00 0.  1.
          6    2    1    2  501    0 -0.13720713174E+03  0.18169561420E+02 -0.38069496989E+03  0.43995902013E+03  0.17169551343E+03 0.  0.
         24    2    3    3    0    0 -0.13768814020E+03 -0.30199163910E+02 -0.22917326766E+03  0.28083428539E+03  0.80482891285E+02 0.  0.
         -6    2    1    2    0  502  0.13720713174E+03 -0.18169561420E+02 -0.15637203236E+04  0.15790498289E+04  0.17035604330E+03 0.  0.
        -24    2    5    5    0    0  0.14071582436E+03  0.10131950364E+02 -0.87332450876E+03  0.88804928060E+03  0.77667416099E+02 0.  0.
          5    1    3    3  501    0  0.48100845912E+00  0.48368725330E+02 -0.15152170223E+03  0.15912473474E+03  0.47000000000E+01 0. -1.
        -11    1    4    4    0    0 -0.24832449092E+01 -0.12173662293E+02 -0.70523034805E+02  0.71609098563E+02  0.00000000000E+00 0.  1.
         12    1    4    4    0    0 -0.13520489529E+03 -0.18025501617E+02 -0.15865023285E+03  0.20922518683E+03  0.00000000000E+00 0. -1.
         -5    1    5    5    0  502 -0.35086926217E+01 -0.28301511784E+02 -0.69039581489E+03  0.69100054827E+03  0.47000000000E+01 0.  1.
         11    1    6    6    0    0  0.14378088829E+02 -0.82388818081E+01 -0.23891532604E+02  0.29076002855E+02  0.00000000000E+00 0. -1.
        -12    1    6    6    0    0  0.12633773553E+03  0.18370832172E+02 -0.84943297616E+03  0.85897327774E+03  0.00000000000E+00 0.  1.
</event>
<event>
12    1  0.1627564E-001  0.2720095E+03  0.7818608E-02  0.1100518E+00
         21   -1    0    0  501  502  0.00000000000E+00  0.00000000000E+00  0.11242251104E+03  0.11242251104E+03  0.00000000000E+00 0. -1.
         21   -1    0    0  502  503 -0.00000000000E+00 -0.00000000000E+00 -0.10943423148E+04  0.10943423148E+04  0.00000000000E+00 0.  1.
         -6    2    1    2    0  503 -0.18259604044E+03  0.99048878088E+02 -0.87617238448E+03  0.91742422885E+03  0.17560516545E+03 0.  0.
        -24    2    3    3    0    0 -0.63369792132E+02  0.41091024496E+02 -0.20007530771E+03  0.22843703138E+03  0.80306573197E+02 0.  0.
          6    2    1    2  501    0  0.18259604044E+03 -0.99048878088E+02 -0.10574741924E+03  0.28934059694E+03  0.17141607313E+03 0.  0.
         24    2    5    5    0    0  0.44504743280E+02 -0.66336120801E+02 -0.93445241383E+02  0.14681774116E+03  0.80263832977E+02 0.  0.
          5    1    5    5  501    0  0.13809129716E+03 -0.32712757287E+02 -0.12302177855E+02  0.14252285578E+03  0.47000000000E+01 0. -1.
        -11    1    6    6    0    0  0.66225856450E+02 -0.39537638953E+02 -0.75505171130E+02  0.10793572080E+03  0.00000000000E+00 0.  1.
         12    1    6    6    0    0 -0.21721113169E+02 -0.26798481848E+02 -0.17940070253E+02  0.38882020361E+02  0.00000000000E+00 0. -1.
         -5    1    3    3    0  503 -0.11922624830E+03  0.57957853592E+02 -0.67609707677E+03  0.68898719748E+03  0.47000000000E+01 0.  1.
         13    1    4    4    0    0  0.16942424725E+02  0.21767423214E+02 -0.53238595995E+02  0.59960108176E+02  0.00000000000E+00 0. -1.
        -14    1    4    4    0    0 -0.80312216858E+02  0.19323601282E+02 -0.14683671172E+03  0.16847692320E+03  0.00000000000E+00 0.  1.
</event>
<event>
12    1  0.1627564E-001  0.1905243E+03  0.7818608E-02  0.1158712E+00
         21   -1    0    0  503  502  0.00000000000E+00  0.00000000000E+00  0.50845943800E+03  0.50845943800E+03  0.00000000000E+00 0. -1.
         21   -1    0    0  501  503 -0.00000000000E+00 -0.00000000000E+00 -0.22387847174E+03  0.22387847174E+03  0.00000000000E+00 0. -1.
          6    2    1    2  501    0  0.47574614977E+02  0.67545747493E+02 -0.16145774677E+03  0.24731209151E+03  0.16813356185E+03 0.  0.
         24    2    3    3    0    0 -0.16850711851E+02  0.30611779298E+02 -0.22034330254E+02  0.89275007833E+02  0.79142199819E+02 0.  0.
         -6    2    1    2    0  502 -0.47574614977E+02 -0.67545747493E+02  0.44603871302E+03  0.48502581823E+03  0.17167917416E+03 0.  0.
        -24    2    5    5    0    0 -0.42832337784E+02 -0.11297102860E+03  0.34002038871E+03  0.36949261761E+03  0.79459846871E+02 0.  0.
          5    1    3    3  501    0  0.64425326828E+02  0.36933968195E+02 -0.13942341651E+03  0.15803708367E+03  0.47000000000E+01 0. -1.
        -11    1    4    4    0    0 -0.70718169746E+00  0.54085184095E+02 -0.14168938424E+01  0.54108361948E+02  0.00000000000E+00 0.  1.
         12    1    4    4    0    0 -0.16143530154E+02 -0.23473404797E+02 -0.20617436411E+02  0.35166645885E+02  0.00000000000E+00 0. -1.
         -5    1    5    5    0  502 -0.47422771922E+01  0.45425281105E+02  0.10601832431E+03  0.11553320062E+03  0.47000000000E+01 0.  1.
         11    1    6    6    0    0 -0.52854420657E+02 -0.49109813600E+02  0.23818868265E+03  0.24887589702E+03  0.00000000000E+00 0. -1.
        -12    1    6    6    0    0  0.10022082872E+02 -0.63861214998E+02  0.10183170606E+03  0.12061672059E+03  0.00000000000E+00 0.  1.
</event>
<event>
12    1  0.1627564E-001  0.1871876E+03  0.7818608E-02  0.1161094E+00
         21   -1    0    0  503  502  0.00000000000E+00  0.00000000000E+00  0.16735503174E+04  0.16735503174E+04  0.00000000000E+00 0. -1.
         21   -1    0    0  501  503 -0.00000000000E+00 -0.00000000000E+00 -0.30784184981E+02  0.30784184981E+02  0.00000000000E+00 0. -1.
          6    2    1    2  501    0 -0.61058780944E+02  0.42320580299E+02  0.33810031907E+03  0.38630867589E+03  0.17147408277E+03 0.  0.
         24    2    3    3    0    0 -0.37703415532E+00 -0.26444194377E+02  0.22593447857E+03  0.24134614830E+03  0.80635830249E+02 0.  0.
         -6    2    1    2    0  502  0.61058780944E+02 -0.42320580299E+02  0.13046658133E+04  0.13180258265E+04  0.17181381941E+03 0.  0.
        -24    2    5    5    0    0  0.66171670518E+02 -0.41490425464E+02  0.48197019502E+03  0.49530047669E+03  0.83229489583E+02 0.  0.
          5    1    3    3  501    0 -0.60681746789E+02  0.68764774675E+02  0.11216584050E+03  0.14496252759E+03  0.47000000000E+01 0. -1.
        -11    1    4    4    0    0 -0.17339572878E+02 -0.49955005981E+02  0.11316768149E+03  0.12491231943E+03  0.00000000000E+00 0.  1.
         12    1    4    4    0    0  0.16962538723E+02  0.23510811605E+02  0.11276679708E+03  0.11643382887E+03  0.00000000000E+00 0. -1.
         -5    1    5    5    0  502 -0.51128895740E+01 -0.83015483521E+00  0.82269561831E+03  0.82272534979E+03  0.47000000000E+01 0.  1.
         13    1    6    6    0    0  0.78702204584E+02 -0.52599657414E+02  0.44090084028E+03  0.45094823642E+03  0.00000000000E+00 0. -1.
        -14    1    6    6    0    0 -0.12530534065E+02  0.11109231951E+02  0.41069354733E+02  0.44352240267E+02  0.00000000000E+00 0.  1.
</event>
<event>
12    1  0.1627564E-001  0.1830819E+03  0.7818608E-02  0.1165163E+00
         21   -1    0    0  503  502  0.00000000000E+00  0.00000000000E+00  0.13567849586E+04  0.13567849586E+04  0.00000000000E+00 0. -1.
         21   -1    0    0  501  503 -0.00000000000E+00 -0.00000000000E+00 -0.10928121036E+03  0.10928121036E+03  0.00000000000E+00 0. -1.
          6    2    1    2  501    0  0.77564422048E+02  0.92241486858E+01 -0.21291190874E+02  0.18431578599E+03  0.16558281816E+03 0.  0.
         24    2    3    3    0    0  0.23789532065E+02 -0.52643361938E+02 -0.14965934377E+02  0.10196636866E+03  0.82679476020E+02 0.  0.
         -6    2    1    2    0  502 -0.77564422048E+02 -0.92241486858E+01  0.12687949391E+04  0.12817503829E+04  0.16414055637E+03 0.  0.
        -24    2    5    5    0    0 -0.58959935391E+02 -0.51333081141E+02  0.11011886554E+04  0.11078732842E+04  0.93034402228E+02 0.  0.
          5    1    3    3  501    0  0.53774889983E+02  0.61867510624E+02 -0.63252564967E+01  0.82349417322E+02  0.47000000000E+01 0. -1.
        -13    1    4    4    0    0 -0.25049762582E+02 -0.26181155856E+02  0.14570451765E+02  0.39054341526E+02  0.00000000000E+00 0.  1.
         14    1    4    4    0    0  0.48839294647E+02 -0.26462206082E+02 -0.29536386142E+02  0.62912027139E+02  0.00000000000E+00 0. -1.
         -5    1    5    5    0  502 -0.18604486657E+02  0.42108932455E+02  0.16760628372E+03  0.17387709871E+03  0.47000000000E+01 0.  1.
         11    1    6    6    0    0 -0.73740774055E+02 -0.35431117443E+02  0.53044335239E+03  0.53671520934E+03  0.00000000000E+00 0. -1.
        -12    1    6    6    0    0  0.14780838664E+02 -0.15901963698E+02  0.57074530296E+03  0.57115807488E+03  0.00000000000E+00 0.  1.
</event>
<event>
12    1  0.1627564E-001  0.1792722E+03  0.7818608E-02  0.1169229E+00
         21   -1    0    0  501  502  0.00000000000E+00  0.00000000000E+00  0.18163835676E+03  0.18163835676E+03  0.00000000000E+00 0.  1.
         21   -1    0    0  502  503 -0.00000000000E+00 -0.00000000000E+00 -0.20881520808E+03  0.20881520808E+03  0.00000000000E+00 0.  1.
         -6    2    1    2    0  503 -0.29201463443E+02 -0.29320348061E+02  0.65971210709E+02  0.19102548771E+03  0.17443086893E+03 0.  0.
        -24    2    3    3    0    0 -0.54590268316E+02  0.20854153866E+02 -0.69622573101E+01  0.98811319528E+02  0.79373866680E+02 0.  0.
          6    2    1    2  501    0  0.29201463443E+02  0.29320348061E+02 -0.93148062030E+02  0.19942807713E+03  0.17141350067E+03 0.  0.
         24    2    5    5    0    0  0.88095716314E+01  0.68356611494E+02 -0.12474906092E+02  0.10739597837E+03  0.81412763128E+02 0.  0.
          5    1    5    5  501    0  0.20391891812E+02 -0.39036263434E+02 -0.80673155938E+02  0.92032098768E+02  0.47000000000E+01 0. -1.
        -13    1    6    6    0    0 -0.20071512295E+02  0.56332957796E+02 -0.34589627040E+02  0.69084803239E+02  0.00000000000E+00 0.  1.
         14    1    6    6    0    0  0.28881083927E+02  0.12023653699E+02  0.22114720948E+02  0.38311175128E+02  0.00000000000E+00 0. -1.
         -5    1    3    3    0  503  0.25388804873E+02 -0.50174501926E+02  0.72933468019E+02  0.92214168183E+02  0.47000000000E+01 0.  1.
         13    1    4    4    0    0  0.78023897025E+00 -0.25943583846E+02  0.24266765941E+00  0.25956448202E+02  0.00000000000E+00 0. -1.
        -14    1    4    4    0    0 -0.55370507286E+02  0.46797737712E+02 -0.72049249695E+01  0.72854871326E+02  0.00000000000E+00 0.  1.
</event>
<event>
12    1  0.1627564E-001  0.1962144E+03  0.7818608E-02  0.1153277E+00
         21   -1    0    0  501  502  0.00000000000E+00  0.00000000000E+00  0.52623458207E+02  0.52623458207E+02  0.00000000000E+00 0. -1.
         21   -1    0    0  502  503 -0.00000000000E+00 -0.00000000000E+00 -0.72685435697E+03  0.72685435697E+03  0.00000000000E+00 0.  1.
         -6    2    1    2    0  503 -0.48731866039E+02 -0.79315606860E+02 -0.34799234925E+03  0.39949814032E+03  0.17272616687E+03 0.  0.
        -24    2    3    3    0    0 -0.15110678398E+02 -0.50631649496E+02 -0.34081428201E+03  0.35447849663E+03  0.81906856996E+02 0.  0.
          6    2    1    2  501    0  0.48731866039E+02  0.79315606860E+02 -0.32623854951E+03  0.37997967486E+03  0.17113503983E+03 0.  0.
         24    2    5    5    0    0 -0.26464355802E+02  0.74891027966E+02 -0.24024866469E+03  0.26556639342E+03  0.80604343747E+02 0.  0.
          5    1    5    5  501    0  0.75196221841E+02  0.44245788939E+01 -0.85989884824E+02  0.11441328144E+03  0.47000000000E+01 0. -1.
        -13    1    6    6    0    0 -0.12366524016E+01 -0.16015730426E+02 -0.60098166750E+02  0.62207898027E+02  0.00000000000E+00 0.  1.
         14    1    6    6    0    0 -0.25227703401E+02  0.90906758393E+02 -0.18015049794E+03  0.20335849539E+03  0.00000000000E+00 0. -1.
         -5    1    3    3    0  503 -0.33621187641E+02 -0.28683957365E+02 -0.71780672468E+01  0.45019643689E+02  0.47000000000E+01 0.  1.
         11    1    4    4    0    0 -0.20160076742E+02  0.35881188219E+01 -0.18498915520E+02  0.27595528013E+02  0.00000000000E+00 0. -1.
        -12    1    4    4    0    0  0.50493983439E+01 -0.54219768318E+02 -0.32231536649E+03  0.32688296862E+03  0.00000000000E+00 0.  1.
</event>
<event>
12    1  0.1627564E-001  0.2297139E+03  0.7818608E-02  0.1126990E+00
         21   -1    0    0  501  502  0.00000000000E+00  0.00000000000E+00  0.23832466069E+03  0.23832466069E+03  0.00000000000E+00 0. -1.
         21   -1    0    0  502  503 -0.00000000000E+00 -0.00000000000E+00 -0.22390163415E+03  0.22390163415E+03  0.00000000000E+00 0. -1.
         -6    2    1    2    0  503 -0.35063426322E+02  0.14844763598E+03 -0.20845975032E+02  0.22982068298E+03  0.17063659384E+03 0.  0.
        -24    2    3    3    0    0  0.14338467276E+02  0.80186619289E+02 -0.67854058874E+02  0.13321859482E+03  0.80669294925E+02 0.  0.
          6    2    1    2  501    0  0.35063426322E+02 -0.14844763598E+03  0.35269001571E+02  0.23240561186E+03  0.17176239827E+03 0.  0.
         24    2    5    5    0    0 -0.30444069650E+01 -0.46811542698E+02 -0.39207519135E+02  0.10068262772E+03  0.79994831232E+02 0.  0.
          5    1    5    5  501    0  0.38107833287E+02 -0.10163609328E+03  0.74476520705E+02  0.13172298414E+03  0.47000000000E+01 0. -1.
        -13    1    6    6    0    0 -0.13658192675E+01 -0.69368639938E+02 -0.34867340089E+02  0.77650531705E+02  0.00000000000E+00 0.  1.
         14    1    6    6    0    0 -0.16785876975E+01  0.22557097241E+02 -0.43401790459E+01  0.23032096012E+02  0.00000000000E+00 0. -1.
         -5    1    3    3    0  503 -0.49401893598E+02  0.68261016688E+02  0.47008083842E+02  0.96602088159E+02  0.47000000000E+01 0.  1.
         13    1    4    4    0    0 -0.28384507663E+02  0.61621190519E+02 -0.36189288588E+02  0.76892886568E+02  0.00000000000E+00 0. -1.
        -14    1    4    4    0    0  0.42722974939E+02  0.18565428770E+02 -0.31664770286E+02  0.56325708254E+02  0.00000000000E+00 0.  1.
</event>
<event>
12    1  0.1627564E-001  0.1890163E+03  0.7818608E-02  0.1159710E+00
         21   -1    0    0  501  502  0.00000000000E+00  0.00000000000E+00  0.33354458788E+03  0.33354458788E+03  0.00000000000E+00 0.  1.
         21   -1    0    0  502  503 -0.00000000000E+00 -0.00000000000E+00 -0.12190353946E+03  0.12190353946E+03  0.00000000000E+00 0.  1.
         -6    2    1    2    0  503 -0.74452780858E+02 -0.12834856151E+02  0.24536842565E+02  0.19060225732E+03  0.17326053718E+03 0.  0.
        -24    2    3    3    0    0 -0.49259544615E+02  0.56745022646E+02 -0.30488817611E+01  0.11148765139E+03  0.82302493286E+02 0.  0.
          6    2    1    2  501    0  0.74452780858E+02  0.12834856151E+02  0.18710420586E+03  0.26484587002E+03  0.17154416605E+03 0.  0.
         24    2    5    5    0    0  0.19852162926E+02 -0.41866748892E+01  0.19098141890E+03  0.20732993502E+03  0.78103540059E+02 0.  0.
          5    1    5    5  501    0  0.54600617932E+02  0.17021531040E+02 -0.38772130447E+01  0.57515934996E+02  0.47000000000E+01 0. -1.
        -11    1    6    6    0    0  0.25985329805E+02  0.27511443017E+02  0.50043606966E+02  0.62741369606E+02  0.00000000000E+00 0.  1.
         12    1    6    6    0    0 -0.61331668790E+01 -0.31698117906E+02  0.14093781194E+03  0.14458856541E+03  0.00000000000E+00 0. -1.
         -5    1    3    3    0  503 -0.25193236243E+02 -0.69579878797E+02  0.27585724326E+02  0.79114605936E+02  0.47000000000E+01 0.  1.
         13    1    4    4    0    0 -0.69345514752E+02  0.26796084133E+02 -0.91869073659E+01  0.74908142468E+02  0.00000000000E+00 0. -1.
        -14    1    4    4    0    0  0.20085970137E+02  0.29948938514E+02  0.61380256048E+01  0.36579508919E+02  0.00000000000E+00 0.  1.
</event>
<event>
12    1  0.1627564E-001  0.3303360E+03  0.7818608E-02  0.1071459E+00
         21   -1    0    0  503  502  0.00000000000E+00  0.00000000000E+00  0.16861136614E+03  0.16861136614E+03  0.00000000000E+00 0. -1.
         21   -1    0    0  501  503 -0.00000000000E+00 -0.00000000000E+00 -0.10777453091E+04  0.10777453091E+04  0.00000000000E+00 0.  1.
          6    2    1    2  501    0  0.14602838853E+03  0.24014038180E+03 -0.55182200471E+02  0.33073914485E+03  0.16538323211E+03 0.  0.
         24    2    3    3    0    0  0.21901762075E+02  0.13302132402E+03 -0.55143270081E+02  0.16671474590E+03  0.81108978796E+02 0.  0.
         -6    2    1    2    0  502 -0.14602838853E+03 -0.24014038180E+03 -0.85395174245E+03  0.91561753035E+03  0.17358050067E+03 0.  0.
        -24    2    5    5    0    0 -0.16815804270E+03 -0.16899224193E+03 -0.58943254112E+03  0.64076433813E+03  0.79452572810E+02 0.  0.
          5    1    3    3  501    0  0.12412662645E+03  0.10711905778E+03 -0.38930389318E-01  0.16402439895E+03  0.47000000000E+01 0. -1.
        -13    1    4    4    0    0  0.15890558484E+02 -0.34684732047E+01 -0.19745001269E+02  0.25581345360E+02  0.00000000000E+00 0.  1.
         14    1    4    4    0    0  0.60112035913E+01  0.13648979722E+03 -0.35398268812E+02  0.14113340054E+03  0.00000000000E+00 0. -1.
         -5    1    5    5    0  502  0.22129654170E+02 -0.71148139872E+02 -0.26451920133E+03  0.27485319222E+03  0.47000000000E+01 0.  1.
         11    1    6    6    0    0 -0.42783942214E+02 -0.17420209879E+02 -0.58337959024E+02  0.74412679610E+02  0.00000000000E+00 0. -1.
        -12    1    6    6    0    0 -0.12537410048E+03 -0.15157203205E+03 -0.53109458210E+03  0.56635165852E+03  0.00000000000E+00 0.  1.
</event>
<event>
12    1  0.1627564E-001  0.2268908E+03  0.7818608E-02  0.1129193E+00
         21   -1    0    0  501  502  0.00000000000E+00  0.00000000000E+00  0.25392258001E+04  0.25392258001E+04  0.00000000000E+00 0. -1.
         21   -1    0    0  502  503 -0.00000000000E+00 -0.00000000000E+00 -0.33516199714E+02  0.33516199714E+02  0.00000000000E+00 0. -1.
         -6    2    1    2    0  503 -0.23466202478E+02 -0.14467055847E+03  0.43587678506E+03  0.49051067102E+03  0.17068073554E+03 0.  0.
        -24    2    3    3    0    0 -0.72489227550E+02 -0.49936989518E+02  0.22303020217E+03  0.25238577958E+03  0.78789083152E+02 0.  0.
          6    2    1    2  501    0  0.23466202478E+02  0.14467055847E+03  0.20698328154E+04  0.20822313288E+04  0.17320274262E+03 0.  0.
         24    2    5    5    0    0 -0.13915703341E+02  0.15888244085E+03  0.14137121307E+04  0.14248761529E+04  0.79074558414E+02 0.  0.
          5    1    5    5  501    0  0.37381905819E+02 -0.14211882383E+02  0.65612068465E+03  0.65735517592E+03  0.47000000000E+01 0. -1.
        -13    1    6    6    0    0 -0.33826937371E+02  0.13230903678E+03  0.92375119148E+03  0.93379130788E+03  0.00000000000E+00 0.  1.
         14    1    6    6    0    0  0.19911234030E+02  0.26573404072E+02  0.48996093923E+03  0.49108484502E+03  0.00000000000E+00 0. -1.
         -5    1    3    3    0  503  0.49023025072E+02 -0.94733568953E+02  0.21284658289E+03  0.23812489144E+03  0.47000000000E+01 0.  1.
         11    1    4    4    0    0  0.12320291943E+02  0.98883980979E+00  0.57216879522E+01  0.13620026093E+02  0.00000000000E+00 0. -1.
        -12    1    4    4    0    0 -0.84809519493E+02 -0.50925829328E+02  0.21730851421E+03  0.23876575349E+03  0.00000000000E+00 0.  1.
</event>
<event>
12    1  0.1627564E-001  0.1861791E+03  0.7818608E-02  0.1162234E+00
         21   -1    0    0  503  502  0.00000000000E+00  0.00000000000E+00  0.42507100294E+03  0.42507100294E+03  0.00000000000E+00 0.  1.
         21   -1    0    0  501  503 -0.00000000000E+00 -0.00000000000E+00 -0.14154685949E+03  0.14154685949E+03  0.00000000000E+00 0.  1.
          6    2    1    2  501    0  0.57929707233E+02  0.37201932810E+02 -0.43238342653E+02  0.19113400571E+03  0.17298213514E+03 0.  0.
         24    2    3    3    0    0 -0.26249209113E+02 -0.61160801890E+01  0.11866763123E+01  0.86452524454E+02  0.82135274809E+02 0.  0.
         -6    2    1    2    0  502 -0.57929707233E+02 -0.37201932810E+02  0.32676248611E+03  0.37548385672E+03  0.17168159349E+03 0.  0.
        -24    2    5    5    0    0 -0.79648240010E+02  0.27165415295E+02  0.22315451839E+03  0.25150179696E+03  0.79833657498E+02 0.  0.
          5    1    3    3  501    0  0.84178916346E+02  0.43318012999E+02 -0.44425018966E+02  0.10468148125E+03  0.47000000000E+01 0. -1.
        -11    1    4    4    0    0 -0.15068294982E+02 -0.18010609841E+02 -0.37622569724E+02  0.44349671174E+02  0.00000000000E+00 0.  1.
         12    1    4    4    0    0 -0.11180914131E+02  0.11894529652E+02  0.38809246037E+02  0.42102853281E+02  0.00000000000E+00 0. -1.
         -5    1    5    5    0  502  0.21718532777E+02 -0.64367348105E+02  0.10360796772E+03  0.12398205976E+03  0.47000000000E+01 0.  1.
         11    1    6    6    0    0 -0.51424596070E+02 -0.10445182873E+02  0.51504890508E+02  0.73527849638E+02  0.00000000000E+00 0. -1.
        -12    1    6    6    0    0 -0.28223643940E+02  0.37610598168E+02  0.17164962788E+03  0.17797394732E+03  0.00000000000E+00 0.  1.
</event>
<event>
12    1  0.1627564E-001  0.2057285E+03  0.7818608E-02  0.1147244E+00
         21   -1    0    0  503  502  0.00000000000E+00  0.00000000000E+00  0.36407185214E+03  0.36407185214E+03  0.00000000000E+00 0.  1.
         21   -1    0    0  501  503 -0.00000000000E+00 -0.00000000000E+00 -0.16551111401E+04  0.16551111401E+04  0.00000000000E+00 0.  1.
          6    2    1    2  501    0 -0.51351268839E+02  0.99431466981E+02 -0.16197271170E+04  0.16314203210E+04  0.15966452509E+03 0.  0.
         24    2    3    3    0    0  0.27056141093E+02  0.61979597012E+02 -0.10287616347E+04  0.10340823465E+04  0.80014329844E+02 0.  0.
         -6    2    1    2    0  502  0.51351268839E+02 -0.99431466981E+02  0.32868782904E+03  0.38776267131E+03  0.17262859227E+03 0.  0.
        -24    2    5    5    0    0 -0.78269407594E+01 -0.94268522403E+02  0.29489881687E+03  0.31926081856E+03  0.77552193746E+02 0.  0.
          5    1    3    3  501    0 -0.78407409932E+02  0.37451869969E+02 -0.59096548231E+03  0.59733797450E+03  0.47000000000E+01 0. -1.
        -11    1    4    4    0    0 -0.17929963268E+02  0.47413785625E+02 -0.34701276454E+03  0.35069560790E+03  0.00000000000E+00 0.  1.
         12    1    4    4    0    0  0.44986104361E+02  0.14565811387E+02 -0.68174887018E+03  0.68338673856E+03  0.00000000000E+00 0. -1.
         -5    1    5    5    0  502  0.59178209598E+02 -0.51629445781E+01  0.33789012165E+02  0.68501852757E+02  0.47000000000E+01 0.  1.
         13    1    6    6    0    0  0.20052539707E+02 -0.56906583550E+02  0.84937564200E+02  0.10418662780E+03  0.00000000000E+00 0. -1.
        -14    1    6    6    0    0 -0.27879480466E+02 -0.37361938853E+02  0.20996125267E+03  0.21507419076E+03  0.00000000000E+00 0.  1.
</event>
<event>
12    1  0.1627564E-001  0.1942330E+03  0.7818608E-02  0.1154760E+00
         21   -1    0    0  503  502  0.00000000000E+00  0.00000000000E+00  0.84970633183E+03  0.84970633183E+03  0.00000000000E+00 0.  1.
         21   -1    0    0  501  503 -0.00000000000E+00 -0.00000000000E+00 -0.36360709018E+03  0.36360709018E+03  0.00000000000E+00 0.  1.
          6    2    1    2  501    0  0.24456910622E+02 -0.87832496456E+02 -0.32539882919E+03  0.37896020511E+03  0.17150437637E+03 0.  0.
         24    2    3    3    0    0  0.34895898256E+02 -0.12661561445E+03 -0.26302752300E+03  0.30462735545E+03  0.79781641333E+02 0.  0.
         -6    2    1    2    0  502 -0.24456910622E+02  0.87832496456E+02  0.81149807084E+03  0.83435321690E+03  0.17118260330E+03 0.  0.
        -24    2    5    5    0    0  0.36513771484E+02  0.66812905834E+02  0.31959524075E+03  0.33821842523E+03  0.80332841085E+02 0.  0.
          5    1    3    3  501    0 -0.10438987635E+02  0.38783117995E+02 -0.62371306186E+02  0.74332849667E+02  0.47000000000E+01 0. -1.
        -13    1    4    4    0    0  0.52624178019E+02 -0.11697521379E+03 -0.19288824573E+03  0.23164278555E+03  0.00000000000E+00 0.  1.
         14    1    4    4    0    0 -0.17728279763E+02 -0.96404006593E+01 -0.70139277265E+02  0.72984569900E+02  0.00000000000E+00 0. -1.
         -5    1    5    5    0  502 -0.60970682105E+02  0.21019590621E+02  0.49190283008E+03  0.49613479167E+03  0.47000000000E+01 0.  1.
         13    1    6    6    0    0 -0.25171055244E+02  0.25481274057E+02  0.87943329097E+02  0.94957392984E+02  0.00000000000E+00 0. -1.
        -14    1    6    6    0    0  0.61684826728E+02  0.41331631778E+02  0.23165191166E+03  0.24326103224E+03  0.00000000000E+00 0.  1.
</event>
<event>
12    1  0.1627564E-001  0.1910465E+03  0.7818608E-02  0.1157625E+00
         21   -1    0    0  501  502  0.00000000000E+00  0.00000000000E+00  0.35664254864E+03  0.35664254864E+03  0.00000000000E+00 0. -1.
         21   -1    0    0  502  503 -0.00000000000E+00 -0.00000000000E+00 -0.11107187696E+03  0.11107187696E+03  0.00000000000E+00 0.  1.
         -6    2    1    2    0  503  0.79772955013E+02 -0.15605684204E+02  0.56155205821E+02  0.19868468393E+03  0.17238020407E+03 0.  0.
        -24    2    3    3    0    0  0.61794351464E+01  0.40937966079E+02 -0.38026726784E+00  0.89911800032E+02  0.79811557411E+02 0.  0.
          6    2    1    2  501    0 -0.79772955013E+02  0.15605684204E+02  0.18941546586E+03  0.26902974167E+03  0.17289164660E+03 0.  0.
         24    2    5    5    0    0 -0.39400095204E+02 -0.53941505358E+02  0.11345975269E+03  0.15831325803E+03  0.87908581410E+02 0.  0.
          5    1    5    5  501    0 -0.40372859810E+02  0.69547189562E+02  0.75955713177E+02  0.11071648364E+03  0.47000000000E+01 0. -1.
        -13    1    6    6    0    0 -0.56285929355E+02 -0.51834699678E+02  0.47202280249E+02  0.89905490348E+02  0.00000000000E+00 0.  1.
         14    1    6    6    0    0  0.16885834152E+02 -0.21068056803E+01  0.66257472438E+02  0.68407767680E+02  0.00000000000E+00 0. -1.
         -5    1    3    3    0  503  0.73593519867E+02 -0.56543650283E+02  0.56535473089E+02  0.10877288390E+03  0.47000000000E+01 0.  1.
         11    1    4    4    0    0  0.42621474519E+02  0.16637522909E+02 -0.41913925216E+01  0.45945239471E+02  0.00000000000E+00 0. -1.
        -12    1    4    4    0    0 -0.36442039373E+02  0.24300443170E+02  0.38111252538E+01  0.43966560561E+02  0.00000000000E+00 0.  1.
</event>
<event>
12    1  0.1627564E-001  0.1830129E+03  0.7818608E-02  0.1164985E+00
         21   -1    0    0  501  502  0.00000000000E+00  0.00000000000E+00  0.19272878875E+04  0.19272878875E+04  0.00000000000E+00 0. -1.
         21   -1    0    0  502  503 -0.00000000000E+00 -0.00000000000E+00 -0.27326503137E+02  0.27326503137E+02  0.00000000000E+00 0. -1.
         -6    2    1    2    0  503 -0.29497536240E+02  0.54543377888E+02  0.35999190883E+03  0.40384141575E+03  0.17218777523E+03 0.  0.
        -24    2    3    3    0    0  0.36770676279E+02 -0.16015091450E+02  0.16893673763E+03  0.18961223467E+03  0.76188007103E+02 0.  0.
          6    2    1    2  501    0  0.29497536240E+02 -0.54543377888E+02  0.15399694755E+04  0.15507729749E+04  0.17188877027E+03 0.  0.
         24    2    5    5    0    0  0.34620234464E+00  0.37700160377E+02  0.65362357077E+03  0.65915095658E+03  0.76385792908E+02 0.  0.
          5    1    5    5  501    0  0.29151333895E+02 -0.92243538265E+02  0.88634590474E+03  0.89162201827E+03  0.47000000000E+01 0. -1.
        -13    1    6    6    0    0  0.37962772440E+02  0.22601755902E+02  0.30625219028E+03  0.30942271331E+03  0.00000000000E+00 0.  1.
         14    1    6    6    0    0 -0.37616570095E+02  0.15098404475E+02  0.34737138048E+03  0.34972824327E+03  0.00000000000E+00 0. -1.
         -5    1    3    3    0  503 -0.66268212518E+02  0.70558469338E+02  0.19105517120E+03  0.21422918108E+03  0.47000000000E+01 0.  1.
         11    1    4    4    0    0  0.37825764880E+02  0.24812768212E+02  0.90845770341E+02  0.10148603817E+03  0.00000000000E+00 0. -1.
        -12    1    4    4    0    0 -0.10550886016E+01 -0.40827859662E+02  0.78090967289E+02  0.88126196495E+02  0.00000000000E+00 0.  1.
</event>
<event>
12    1  0.1627564E-001  0.1797008E+03  0.7818608E-02  0.1168611E+00
         21   -1    0    0  503  502  0.00000000000E+00  0.00000000000E+00  0.36029449585E+03  0.36029449585E+03  0.00000000000E+00 0. -1.
         21   -1    0    0  501  503 -0.00000000000E+00 -0.00000000000E+00 -0.89077432379E+02  0.89077432379E+02  0.00000000000E+00 0. -1.
          6    2    1    2  501    0  0.30500852938E+02 -0.30271970646E+02  0.15174717662E+03  0.23358164530E+03  0.17229766445E+03 0.  0.
         24    2    3    3    0    0  0.21422615335E+02 -0.50668490663E+01  0.17735821717E+03  0.19622220272E+03  0.81009963788E+02 0.  0.
         -6    2    1    2    0  502 -0.30500852938E+02  0.30271970646E+02  0.11946988685E+03  0.21579028293E+03  0.17448695683E+03 0.  0.
        -24    2    5    5    0    0 -0.65327617495E+02  0.50451245515E+02  0.31898248215E+02  0.11929681912E+03  0.80007543589E+02 0.  0.
          5    1    3    3  501    0  0.90782376031E+01 -0.25205121580E+02 -0.25611040556E+02  0.37359442584E+02  0.47000000000E+01 0. -1.
        -13    1    4    4    0    0  0.27646975656E+02 -0.16104208518E+02  0.18701035716E+02  0.37059810196E+02  0.00000000000E+00 0.  1.
         14    1    4    4    0    0 -0.62243603217E+01  0.11037359451E+02  0.15865718146E+03  0.15916239252E+03  0.00000000000E+00 0. -1.
         -5    1    5    5    0  502  0.34826764558E+02 -0.20179274869E+02  0.87571638640E+02  0.96493463809E+02  0.47000000000E+01 0.  1.
         11    1    6    6    0    0 -0.20948994684E+01  0.51302032471E+02  0.95483070126E+01  0.52225063966E+02  0.00000000000E+00 0. -1.
        -12    1    6    6    0    0 -0.63232718027E+02 -0.85078695674E+00  0.22349941202E+02  0.67071755153E+02  0.00000000000E+00 0.  1.
</event>
<event>
12    1  0.1627564E-001  0.1744839E+03  0.7818608E-02  0.1173470E+00
         21   -1    0    0  503  502  0.00000000000E+00  0.00000000000E+00  0.26259571985E+03  0.26259571985E+03  0.00000000000E+00 0.  1.
         21   -1    0    0  501  503 -0.00000000000E+00 -0.00000000000E+00 -0.19031507677E+03  0.19031507677E+03  0.00000000000E+00 0.  1.
          6    2    1    2  501    0  0.23070654917E+02  0.61090521367E+01 -0.10602971766E+03  0.20343292315E+03  0.17196824578E+03 0.  0.
         24    2    3    3    0    0  0.48658418912E+02  0.60781595220E+02 -0.72387849794E+02  0.13416759339E+03  0.81846797552E+02 0.  0.
         -6    2    1    2    0  502 -0.23070654917E+02 -0.61090521367E+01  0.17831036074E+03  0.24947787346E+03  0.17284400181E+03 0.  0.
        -24    2    5    5    0    0 -0.39925820394E+02  0.45922025561E+02  0.67808403129E+02  0.12609188444E+03  0.87168114709E+02 0.  0.
          5    1    3    3  501    0 -0.25587763995E+02 -0.54672543083E+02 -0.33641867869E+02  0.69265329763E+02  0.47000000000E+01 0. -1.
        -11    1    4    4    0    0  0.57978322865E+02  0.22479170891E+02 -0.71472325945E+02  0.94736964392E+02  0.00000000000E+00 0.  1.
         12    1    4    4    0    0 -0.93199039535E+01  0.38302424329E+02 -0.91552384960E+00  0.39430628997E+02  0.00000000000E+00 0. -1.
         -5    1    5    5    0  502  0.16855165478E+02 -0.52031077697E+02  0.11050195761E+03  0.12338598902E+03  0.47000000000E+01 0.  1.
         11    1    6    6    0    0 -0.42570785884E+02 -0.10636466642E+02  0.96584615901E+01  0.44929857709E+02  0.00000000000E+00 0. -1.
        -12    1    6    6    0    0  0.26449654901E+01  0.56558492203E+02  0.58149941539E+02  0.81162026735E+02  0.00000000000E+00 0.  1.
</event>
<event>
12    1  0.1627564E-001  0.2253464E+03  0.7818608E-02  0.1131543E+00
         21   -1    0    0  503  502  0.00000000000E+00  0.00000000000E+00  0.19765307743E+03  0.19765307743E+03  0.00000000000E+00 0.  1.
         21   -1    0    0  501  503 -0.00000000000E+00 -0.00000000000E+00 -0.38794175466E+03  0.38794175466E+03  0.00000000000E+00 0.  1.
          6    2    1    2  501    0  0.57350017138E+02  0.11878262399E+03 -0.27029120733E+03  0.34646848063E+03  0.17200213686E+03 0.  0.
         24    2    3    3    0    0  0.95525121262E+02  0.10033295051E+03 -0.25576464208E+03  0.30140363708E+03  0.78973733324E+02 0.  0.
         -6    2    1    2    0  502 -0.57350017138E+02 -0.11878262399E+03  0.80002530090E+02  0.23912635146E+03  0.18270925241E+03 0.  0.
        -24    2    5    5    0    0 -0.24644798764E+02 -0.40810719974E+02  0.11453071178E+03  0.14767398979E+03  0.80108940497E+02 0.  0.
          5    1    3    3  501    0 -0.38175104124E+02  0.18449673473E+02 -0.14526565244E+02  0.45064843547E+02  0.47000000000E+01 0. -1.
        -13    1    4    4    0    0  0.23556108681E+02  0.49938601362E+02 -0.16953238228E+03  0.17829745596E+03  0.00000000000E+00 0.  1.
         14    1    4    4    0    0  0.71969012581E+02  0.50394349151E+02 -0.86232259803E+02  0.12310618112E+03  0.00000000000E+00 0. -1.
         -5    1    5    5    0  502 -0.32705218375E+02 -0.77971904012E+02 -0.34528181694E+02  0.91452361672E+02  0.47000000000E+01 0.  1.
         11    1    6    6    0    0 -0.29091553482E+02  0.16821801563E+02  0.56684459239E+02  0.65897036436E+02  0.00000000000E+00 0. -1.
        -12    1    6    6    0    0  0.44467547184E+01 -0.57632521537E+02  0.57846252545E+02  0.81776953353E+02  0.00000000000E+00 0.  1.
</event>
<event>
12    1  0.1627564E-001  0.1825333E+03  0.7818608E-02  0.1165686E+00
         21   -1    0    0  503  502  0.00000000000E+00  0.00000000000E+00  0.55047983925E+02  0.55047983925E+02  0.00000000000E+00 0.  1.
         21   -1    0    0  501  503 -0.00000000000E+00 -0.00000000000E+00 -0.19124937433E+04  0.19124937433E+04  0.00000000000E+00 0.  1.
          6    2    1    2  501    0 -0.24246649468E+02  0.56136427078E+02 -0.17444537770E+04  0.17539775871E+04  0.17198603854E+03 0.  0.
         24    2    3    3    0    0  0.31383150112E+00  0.65641675761E+02 -0.61357783315E+03  0.62278527039E+03  0.84111875446E+02 0.  0.
         -6    2    1    2    0  502  0.24246649468E+02 -0.56136427078E+02 -0.11299198241E+03  0.21356414017E+03  0.17059676264E+03 0.  0.
        -24    2    5    5    0    0  0.76885394706E+02 -0.48492651130E+02 -0.10308012818E+03  0.15925392322E+03  0.80457430381E+02 0.  0.
          5    1    3    3  501    0 -0.24560480969E+02 -0.95052486831E+01 -0.11308759438E+04  0.11311923167E+04  0.47000000000E+01 0. -1.
        -13    1    4    4    0    0 -0.26500110716E+02  0.47237372588E+02 -0.53511711850E+03  0.53785123942E+03  0.00000000000E+00 0.  1.
         14    1    4    4    0    0  0.26813942218E+02  0.18404303173E+02 -0.78460714660E+02  0.84934030974E+02  0.00000000000E+00 0. -1.
         -5    1    5    5    0  502 -0.52638745238E+02 -0.76437759482E+01 -0.99118542289E+01  0.54310216951E+02  0.47000000000E+01 0.  1.
         11    1    6    6    0    0 -0.39164638597E+01 -0.20789176816E+02  0.47586568443E+01  0.21683481658E+02  0.00000000000E+00 0. -1.
        -12    1    6    6    0    0  0.80801858566E+02 -0.27703474314E+02 -0.10783878502E+03  0.13757044156E+03  0.00000000000E+00 0.  1.
</event>
<event>
12    1  0.1627564E-001  0.2153385E+03  0.7818608E-02  0.1137610E+00
         21   -1    0    0  503  502  0.00000000000E+00  0.00000000000E+00  0.80741275816E+02  0.80741275816E+02  0.00000000000E+00 0. -1.
         21   -1    0    0  501  503 -0.00000000000E+00 -0.00000000000E+00 -0.10076014610E+04  0.10076014610E+04  0.00000000000E+00 0. -1.
          6    2    1    2  501    0  0.12675054205E+03  0.14381786018E+02 -0.82208097528E+03  0.84981632184E+03  0.17348808394E+03 0.  0.
         24    2    3    3    0    0  0.13888541803E+02  0.37924542911E+02 -0.22365552502E+03  0.24036804510E+03  0.78254972272E+02 0.  0.
         -6    2    1    2    0  502 -0.12675054205E+03 -0.14381786018E+02 -0.10477920995E+03  0.23852641502E+03  0.17217326200E+03 0.  0.
        -24    2    5    5    0    0 -0.92745622064E+02  0.50539911023E+02 -0.97967656927E+02  0.16477244167E+03  0.79976638545E+02 0.  0.
          5    1    3    3  501    0  0.11286200024E+03 -0.23542756893E+02 -0.59842545026E+03  0.60944827674E+03  0.47000000000E+01 0. -1.
        -11    1    4    4    0    0  0.17405215923E+00  0.21395942466E+02 -0.21675607899E+03  0.21780958295E+03  0.00000000000E+00 0.  1.
         12    1    4    4    0    0  0.13714489644E+02  0.16528600445E+02 -0.68994460303E+01  0.22558462146E+02  0.00000000000E+00 0. -1.
         -5    1    5    5    0  502 -0.34004919983E+02 -0.64921697042E+02 -0.68115530217E+01  0.73753973347E+02  0.47000000000E+01 0.  1.
         11    1    6    6    0    0 -0.43369832015E+02  0.28931237388E+01  0.20110179881E+01  0.43512718685E+02  0.00000000000E+00 0. -1.
        -12    1    6    6    0    0 -0.49375790048E+02  0.47646787285E+02 -0.99978674916E+02  0.12125972299E+03  0.00000000000E+00 0.  1.
</event>
<event>
12    1  0.1627564E-001  0.1765122E+03  0.7818608E-02  0.1171363E+00
         21   -1    0    0  503  502  0.00000000000E+00  0.00000000000E+00  0.73361330730E+02  0.73361330730E+02  0.00000000000E+00 0. -1.
         21   -1    0    0  501  503 -0.00000000000E+00 -0.00000000000E+00 -0.42417432029E+03  0.42417432029E+03  0.00000000000E+00 0. -1.
          6    2    1    2  501    0 -0.89135580421E+00  0.37065191889E+02 -0.18616436542E+03  0.25615270477E+03  0.17199539018E+03 0.  0.
         24    2    3    3    0    0 -0.65791209140E+01 -0.41818009350E+01 -0.17948447511E+02  0.82796568085E+02  0.80450933043E+02 0.  0.
         -6    2    1    2    0  502  0.89135580421E+00 -0.37065191889E+02 -0.16464862414E+03  0.24138294625E+03  0.17257443131E+03 0.  0.
        -24    2    5    5    0    0 -0.35100888099E+02 -0.25120181086E+02 -0.20824563243E+02  0.92569051073E+02  0.79197670036E+02 0.  0.
          5    1    3    3  501    0  0.56877651098E+01  0.41246992824E+02 -0.16821591791E+03  0.17335613669E+03  0.47000000000E+01 0. -1.
        -13    1    4    4    0    0 -0.36024213678E+02  0.81049704934E+01 -0.31109554132E+02  0.48282904595E+02  0.00000000000E+00 0.  1.
         14    1    4    4    0    0  0.29445092764E+02 -0.12286771428E+02  0.13161106621E+02  0.34513663490E+02  0.00000000000E+00 0. -1.
         -5    1    5    5    0  502  0.35992243903E+02 -0.11945010803E+02 -0.14382406090E+03  0.14881389518E+03  0.47000000000E+01 0.  1.
         11    1    6    6    0    0 -0.46438597946E+02 -0.35769859244E+02  0.86396452798E+01  0.59250904467E+02  0.00000000000E+00 0. -1.
        -12    1    6    6    0    0  0.11337709847E+02  0.10649678158E+02 -0.29464208522E+02  0.33318146607E+02  0.00000000000E+00 0.  1.
</event>
<event>
12    1  0.1627564E-001  0.3236712E+03  0.7818608E-02  0.1074314E+00
         21   -1    0    0  501  502  0.00000000000E+00  0.00000000000E+00  0.35711842004E+03  0.35711842004E+03  0.00000000000E+00 0. -1.
         21   -1    0    0  502  503 -0.00000000000E+00 -0.00000000000E+00 -0.39552253141E+03  0.39552253141E+03  0.00000000000E+00 0.  1.
         -6    2    1    2    0  503  0.31731694055E+02 -0.27143717332E+03 -0.21291996392E+03  0.38491978241E+03  0.16775961490E+03 0.  0.
        -24    2    3    3    0    0  0.32762594556E+01 -0.10179883231E+03 -0.15820075778E+03  0.20435633091E+03  0.79751451935E+02 0.  0.
          6    2    1    2  501    0 -0.31731694055E+02  0.27143717332E+03  0.17451585255E+03  0.36772116903E+03  0.17343020468E+03 0.  0.
         24    2    5    5    0    0 -0.11981385037E+02  0.66100101947E+02  0.11642244406E+02  0.10484612302E+03  0.79651682922E+02 0.  0.
          5    1    5    5  501    0 -0.19750309018E+02  0.20533707137E+03  0.16287360815E+03  0.26287504601E+03  0.47000000000E+01 0. -1.
        -11    1    6    6    0    0  0.11930734302E+02  0.67264519231E+02  0.30065250394E+02  0.74637639631E+02  0.00000000000E+00 0.  1.
         12    1    6    6    0    0 -0.23912119340E+02 -0.11644172846E+01 -0.18423005988E+02  0.30208483387E+02  0.00000000000E+00 0. -1.
         -5    1    3    3    0  503  0.28455434600E+02 -0.16963834101E+03 -0.54719206146E+02  0.18056345151E+03  0.47000000000E+01 0.  1.
         13    1    4    4    0    0  0.38114843165E+02 -0.36733688468E+02 -0.46404836439E+02  0.70395411661E+02  0.00000000000E+00 0. -1.
        -14    1    4    4    0    0 -0.34838583709E+02 -0.65065143837E+02 -0.11179592134E+03  0.13396091925E+03  0.00000000000E+00 0.  1.
</event>
<event>
12    1  0.1627564E-001  0.2812100E+03  0.7818608E-02  0.1095112E+00
         21   -1    0    0  503  502  0.00000000000E+00  0.00000000000E+00  0.91523718612E+03  0.91523718612E+03  0.00000000000E+00 0. -1.
         21   -1    0    0  501  503 -0.00000000000E+00 -0.00000000000E+00 -0.92404049618E+02  0.92404049618E+02  0.00000000000E+00 0.  1.
          6    2    1    2  501    0 -0.15842241942E+03 -0.15521468357E+03  0.28063075558E+03  0.39685282652E+03  0.17189905168E+03 0.  0.
         24    2    3    3    0    0 -0.68359871728E+02 -0.15940290405E+03  0.20598255793E+03  0.27970656281E+03  0.75661015247E+02 0.  0.
         -6    2    1    2    0  502  0.15842241942E+03  0.15521468357E+03  0.54220238092E+03  0.61078840922E+03  0.17288666226E+03 0.  0.
        -24    2    5    5    0    0  0.17329891524E+03  0.12349963258E+03  0.52339724712E+03  0.57075245482E+03  0.80802308877E+02 0.  0.
          5    1    3    3  501    0 -0.90062547692E+02  0.41882204755E+01  0.74648197651E+02  0.11714626370E+03  0.47000000000E+01 0. -1.
        -13    1    4    4    0    0 -0.76841929385E+02 -0.93171935361E+02  0.11427714978E+03  0.16626773172E+03  0.00000000000E+00 0.  1.
         14    1    4    4    0    0  0.84820576564E+01 -0.66230968688E+02  0.91705408151E+02  0.11343883109E+03  0.00000000000E+00 0. -1.
         -5    1    5    5    0  502 -0.14876495820E+02  0.31715050991E+02  0.18805133800E+02  0.40035954397E+02  0.47000000000E+01 0.  1.
         13    1    6    6    0    0  0.16057844477E+03  0.12389564999E+03  0.51910746713E+03  0.55732228687E+03  0.00000000000E+00 0. -1.
        -14    1    6    6    0    0  0.12720470475E+02 -0.39601741104E+00  0.42897799926E+01  0.13430167955E+02  0.00000000000E+00 0.  1.
</event>
<event>
12    1  0.1627564E-001  0.2479018E+03  0.7818608E-02  0.1114734E+00
         21   -1    0    0  503  502  0.00000000000E+00  0.00000000000E+00  0.16038211126E+03  0.16038211126E+03  0.00000000000E+00 0.  1.
         21   -1    0    0  501  503 -0.00000000000E+00 -0.00000000000E+00 -0.38612114863E+03  0.38612114863E+03  0.00000000000E+00 0. -1.
          6    2    1    2  501    0  0.17750873210E+03  0.19534223382E+02 -0.14007440049E+03  0.28421768204E+03  0.17107868732E+03 0.  0.
         24    2    3    3    0    0  0.18745809222E+03 -0.37505241609E+01 -0.15382852312E+03  0.25502119039E+03  0.78854234190E+02 0.  0.
         -6    2    1    2    0  502 -0.17750873210E+03 -0.19534223382E+02 -0.85664636882E+02  0.26228557785E+03  0.17194289308E+03 0.  0.
        -24    2    5    5    0    0 -0.83174615450E+02 -0.19587277852E+02 -0.11969380138E+03  0.16189134288E+03  0.67679558956E+02 0.  0.
          5    1    3    3  501    0 -0.99493601257E+01  0.23284747543E+02  0.13754122633E+02  0.29196491646E+02  0.47000000000E+01 0. -1.
        -11    1    4    4    0    0  0.56421256850E+01  0.16382046334E+02 -0.22862493990E+01  0.17476611818E+02  0.00000000000E+00 0.  1.
         12    1    4    4    0    0  0.18181596654E+03 -0.20132570495E+02 -0.15154227372E+03  0.23754457857E+03  0.00000000000E+00 0. -1.
         -5    1    5    5    0  502 -0.94334116648E+02  0.53054469782E-01  0.34029164500E+02  0.10039423497E+03  0.47000000000E+01 0.  1.
         13    1    6    6    0    0 -0.42126363830E+02 -0.42878164717E+02 -0.80967296259E+02  0.10084081814E+03  0.00000000000E+00 0. -1.
        -14    1    6    6    0    0 -0.41048251620E+02  0.23290886865E+02 -0.38726505122E+02  0.61050524740E+02  0.00000000000E+00 0.  1.
</event>
<event>
12    1  0.1627564E-001  0.2087872E+03  0.7818608E-02  0.1142710E+00
         21   -1    0    0  501  502  0.00000000000E+00  0.00000000000E+00  0.22382809797E+02  0.22382809797E+02  0.00000000000E+00 0.  1.
         21   -1    0    0  502  503 -0.00000000000E+00 -0.00000000000E+00 -0.19424739235E+04  0.19424739235E+04  0.00000000000E+00 0.  1.
         -6    2    1    2    0  503 -0.10464639850E+03 -0.47588370531E+02 -0.91741267322E+03  0.94067113320E+03  0.17320694593E+03 0.  0.
        -24    2    3    3    0    0 -0.13554903205E+03 -0.64689113784E+02 -0.70120945183E+03  0.72155168833E+03  0.79899449707E+02 0.  0.
          6    2    1    2  501    0  0.10464639850E+03  0.47588370531E+02 -0.10026784405E+04  0.10241856001E+04  0.17428874522E+03 0.  0.
         24    2    5    5    0    0  0.13815875657E+03  0.34188342799E+02 -0.92178718376E+03  0.93548315200E+03  0.71975209027E+02 0.  0.
          5    1    5    5  501    0 -0.33512358067E+02  0.13400027732E+02 -0.80891256743E+02  0.88702448127E+02  0.47000000000E+01 0. -1.
        -13    1    6    6    0    0  0.45249181831E+02  0.34530086097E+02 -0.20700627171E+03  0.21468910506E+03  0.00000000000E+00 0.  1.
         14    1    6    6    0    0  0.92909574735E+02 -0.34174329766E+00 -0.71478091205E+03  0.72079404694E+03  0.00000000000E+00 0. -1.
         -5    1    3    3    0  503  0.30902633550E+02  0.17100743253E+02 -0.21620322139E+03  0.21911944487E+03  0.47000000000E+01 0.  1.
         13    1    4    4    0    0  0.66467896315E+01  0.76248627793E+01 -0.30587213271E+02  0.32216392730E+02  0.00000000000E+00 0. -1.
        -14    1    4    4    0    0 -0.14219582168E+03 -0.72313976563E+02 -0.67062223856E+03  0.68933529560E+03  0.00000000000E+00 0.  1.
</event>
<event>
12    1  0.1627564E-001  0.1830252E+03  0.7818608E-02  0.1165212E+00
         21   -1    0    0  501  502  0.00000000000E+00  0.00000000000E+00  0.11449206919E+04  0.11449206919E+04  0.00000000000E+00 0.  1.
         21   -1    0    0  502  503 -0.00000000000E+00 -0.00000000000E+00 -0.33347525667E+02  0.33347525667E+02  0.00000000000E+00 0.  1.
         -6    2    1    2    0  503  0.45992040661E+02  0.39695945760E+02  0.34268026886E+03  0.38789204194E+03  0.17128757580E+03 0.  0.
        -24    2    3    3    0    0  0.48778525847E+02 -0.39680703669E+02  0.16291397106E+03  0.19130509223E+03  0.78120250372E+02 0.  0.
          6    2    1    2  501    0 -0.45992040661E+02 -0.39695945760E+02  0.76889289736E+03  0.79037617561E+03  0.17264754688E+03 0.  0.
         24    2    5    5    0    0 -0.63287379289E+02 -0.83869754125E+02  0.61525780061E+03  0.62951509567E+03  0.81900344555E+02 0.  0.
          5    1    5    5  501    0  0.17295338628E+02  0.44173808365E+02  0.15363509675E+03  0.16086107994E+03  0.47000000000E+01 0. -1.
        -11    1    6    6    0    0 -0.29484786655E+02 -0.84270734367E+02  0.31651410739E+03  0.32886484989E+03  0.00000000000E+00 0.  1.
         12    1    6    6    0    0 -0.33802592634E+02  0.40098024151E+00  0.29874369321E+03  0.30065024578E+03  0.00000000000E+00 0. -1.
         -5    1    3    3    0  503 -0.27864851867E+01  0.79376649429E+02  0.17976629780E+03  0.19658694972E+03  0.47000000000E+01 0.  1.
         13    1    4    4    0    0  0.24319552737E+02  0.10453707723E+02  0.11425738068E+03  0.11728371451E+03  0.00000000000E+00 0. -1.
        -14    1    4    4    0    0  0.24458973111E+02 -0.50134411392E+02  0.48656590382E+02  0.74021377715E+02  0.00000000000E+00 0.  1.
</event>
<event>
12    1  0.1627564E-001  0.2117102E+03  0.7818608E-02  0.1140423E+00
         21   -1    0    0  501  502  0.00000000000E+00  0.00000000000E+00  0.12421525288E+03  0.12421525288E+03  0.00000000000E+00 0.  1.
         21   -1    0    0  502  503 -0.00000000000E+00 -0.00000000000E+00 -0.40399877247E+03  0.40399877247E+03  0.00000000000E+00 0. -1.
         -6    2    1    2    0  503  0.58193233806E+01  0.12193787253E+03 -0.22827943149E+03  0.31134016874E+03  0.17296962896E+03 0.  0.
        -24    2    3    3    0    0  0.68657022836E+02  0.72796693822E+02 -0.11555311719E+03  0.17316367343E+03  0.81363317831E+02 0.  0.
          6    2    1    2  501    0 -0.58193233806E+01 -0.12193787253E+03 -0.51504088091E+02  0.21687385661E+03  0.17169417378E+03 0.  0.
         24    2    5    5    0    0  0.18122653201E+02 -0.13454998382E+03 -0.79548504862E+02  0.17762002997E+03  0.82394063593E+02 0.  0.
          5    1    5    5  501    0 -0.23941976582E+02  0.12612111292E+02  0.28044416771E+02  0.39253826640E+02  0.47000000000E+01 0. -1.
        -13    1    6    6    0    0  0.46663707739E+02 -0.57008142679E+02 -0.21857649867E+02  0.76845213314E+02  0.00000000000E+00 0.  1.
         14    1    6    6    0    0 -0.28541054538E+02 -0.77541841141E+02 -0.57690854994E+02  0.10077481665E+03  0.00000000000E+00 0. -1.
         -5    1    3    3    0  503 -0.62837699456E+02  0.49141178706E+02 -0.11272631431E+03  0.13817649530E+03  0.47000000000E+01 0.  1.
         11    1    4    4    0    0  0.30348144048E+02  0.13496556614E+02 -0.93464801868E+02  0.99190907223E+02  0.00000000000E+00 0. -1.
        -12    1    4    4    0    0  0.38308878789E+02  0.59300137208E+02 -0.22088315320E+02  0.73972766209E+02  0.00000000000E+00 0.  1.
</event>
<event>
12    1  0.1627564E-001  0.2567922E+03  0.7818608E-02  0.1109171E+00
         21   -1    0    0  501  502  0.00000000000E+00  0.00000000000E+00  0.61229683297E+03  0.61229683297E+03  0.00000000000E+00 0.  1.
         21   -1    0    0  502  503 -0.00000000000E+00 -0.00000000000E+00 -0.10853810513E+03  0.10853810513E+03  0.00000000000E+00 0. -1.
         -6    2    1    2    0  503 -0.10884613103E+03 -0.15590098552E+03  0.28803760691E+03  0.38588585997E+03  0.17259674506E+03 0.  0.
        -24    2    3    3    0    0 -0.55083480675E+02 -0.10671160989E+03  0.78520059256E+02  0.16400816839E+03  0.79446347072E+02 0.  0.
          6    2    1    2  501    0  0.10884613103E+03  0.15590098552E+03  0.21572112093E+03  0.33494907813E+03  0.17176345771E+03 0.  0.
         24    2    5    5    0    0 -0.20572478799E+01  0.82319373903E+02  0.60809457958E+02  0.13066122645E+03  0.81202551270E+02 0.  0.
          5    1    5    5  501    0  0.11090337891E+03  0.73581611613E+02  0.15491166297E+03  0.20428785168E+03  0.47000000000E+01 0. -1.
        -11    1    6    6    0    0  0.33133016646E+02  0.50149223452E+02  0.56991451132E+02  0.82829746511E+02  0.00000000000E+00 0.  1.
         12    1    6    6    0    0 -0.35190264526E+02  0.32170150451E+02  0.38180068262E+01  0.47831479944E+02  0.00000000000E+00 0. -1.
         -5    1    3    3    0  503 -0.53762650350E+02 -0.49189375626E+02  0.20951754766E+03  0.22187769159E+03  0.47000000000E+01 0.  1.
         13    1    4    4    0    0 -0.73686883042E+02 -0.97083935480E+02  0.73974008040E+02  0.14257349377E+03  0.00000000000E+00 0. -1.
        -14    1    4    4    0    0  0.18603402367E+02 -0.96276744096E+01  0.45460512157E+01  0.21434674614E+02  0.00000000000E+00 0.  1.
</event>
<event>
12    1  0.1627564E-001  0.1981524E+03  0.7818608E-02  0.1151488E+00
         21   -1    0    0  503  502  0.00000000000E+00  0.00000000000E+00  0.60597373448E+02  0.60597373448E+02  0.00000000000E+00 0. -1.
         21   -1    0    0  501  503 -0.00000000000E+00 -0.00000000000E+00 -0.12486770773E+04  0.12486770773E+04  0.00000000000E+00 0. -1.
          6    2    1    2  501    0 -0.56873429445E+02  0.78712627558E+02 -0.13959457308E+03  0.24238609382E+03  0.17272553062E+03 0.  0.
         24    2    3    3    0    0  0.15084226605E+02  0.84138839216E+02 -0.47444975290E+02  0.12524947952E+03  0.78291304001E+02 0.  0.
         -6    2    1    2    0  502  0.56873429445E+02 -0.78712627558E+02 -0.10484851307E+04  0.10668883569E+04  0.17175398681E+03 0.  0.
        -24    2    5    5    0    0  0.17278768709E+02 -0.21234719531E+02 -0.88401785177E+03  0.88816224542E+03  0.81210484475E+02 0.  0.
          5    1    3    3  501    0 -0.71957656050E+02 -0.54262116574E+01 -0.92149597791E+02  0.11713661430E+03  0.47000000000E+01 0. -1.
        -11    1    4    4    0    0  0.35644326586E+02  0.76031272915E+02 -0.56664979126E+02  0.10130247943E+03  0.00000000000E+00 0.  1.
         12    1    4    4    0    0 -0.20560099980E+02  0.81075663008E+01  0.92200038365E+01  0.23947000089E+02  0.00000000000E+00 0. -1.
         -5    1    5    5    0  502  0.39594660736E+02 -0.57477908027E+02 -0.16446727897E+03  0.17872611147E+03  0.47000000000E+01 0.  1.
         11    1    6    6    0    0  0.12288557816E+02 -0.52473465329E+02 -0.58379069039E+03  0.58627301098E+03  0.00000000000E+00 0. -1.
        -12    1    6    6    0    0  0.49902108929E+01  0.31238745799E+02 -0.30022716137E+03  0.30188923444E+03  0.00000000000E+00 0.  1.
</event>
<event>
12    1  0.1627564E-001  0.1981834E+03  0.7818608E-02  0.1151385E+00
         21   -1    0    0  501  502  0.00000000000E+00  0.00000000000E+00  0.13901439221E+03  0.13901439221E+03  0.00000000000E+00 0.  1.
         21   -1    0    0  502  503 -0.00000000000E+00 -0.00000000000E+00 -0.29059354376E+03  0.29059354376E+03  0.00000000000E+00 0.  1.
         -6    2    1    2    0  503 -0.83891384099E+02 -0.49930352583E+02 -0.11297667584E+03  0.22769999359E+03  0.17190914276E+03 0.  0.
        -24    2    3    3    0    0 -0.11101874166E+03 -0.78809236769E+02 -0.92435877238E+02  0.18282351994E+03  0.79649176033E+02 0.  0.
          6    2    1    2  501    0  0.83891384099E+02  0.49930352583E+02 -0.38602475709E+02  0.20190794237E+03  0.17246988615E+03 0.  0.
         24    2    5    5    0    0 -0.93791722033E+01  0.29616226343E+01 -0.46407421381E+02  0.97082060823E+02  0.84702642784E+02 0.  0.
          5    1    5    5  501    0  0.93270556302E+02  0.46968729949E+02  0.78049456720E+01  0.10482588155E+03  0.47000000000E+01 0. -1.
        -13    1    6    6    0    0 -0.68551548834E+00 -0.26599638530E+02  0.13408658565E+02  0.29796020303E+02  0.00000000000E+00 0.  1.
         14    1    6    6    0    0 -0.86936567150E+01  0.29561261164E+02 -0.59816079946E+02  0.67286040520E+02  0.00000000000E+00 0. -1.
         -5    1    3    3    0  503  0.27127357565E+02  0.28878884186E+02 -0.20540798599E+02  0.44876473651E+02  0.47000000000E+01 0.  1.
         13    1    4    4    0    0 -0.33037454614E+02 -0.68358291477E+02 -0.63550995911E+02  0.99010395930E+02  0.00000000000E+00 0. -1.
        -14    1    4    4    0    0 -0.77981287050E+02 -0.10450945292E+02 -0.28884881327E+02  0.83813124013E+02  0.00000000000E+00 0.  1.
</event>
<event>
12    1  0.1627564E-001  0.1774634E+03  0.7818608E-02  0.1170450E+00
         21   -1    0    0  503  502  0.00000000000E+00  0.00000000000E+00  0.19489953128E+03  0.19489953128E+03  0.00000000000E+00 0. -1.
         21   -1    0    0  501  503 -0.00000000000E+00 -0.00000000000E+00 -0.20768593683E+03  0.20768593683E+03  0.00000000000E+00 0. -1.
          6    2    1    2  501    0  0.60997892072E+01  0.38518458314E+02 -0.10187647679E+03  0.20462663465E+03  0.17312528419E+03 0.  0.
         24    2    3    3    0    0  0.34153430212E+02 -0.25557152321E+02 -0.98290781653E+02  0.13442949894E+03  0.81182434052E+02 0.  0.
         -6    2    1    2    0  502 -0.60997892072E+01 -0.38518458314E+02  0.89090071242E+02  0.19795883346E+03  0.17242325798E+03 0.  0.
        -24    2    5    5    0    0  0.54762852760E+02  0.11324276013E+02  0.59616637245E+02  0.11382006318E+03  0.79206401735E+02 0.  0.
          5    1    3    3  501    0 -0.28053641005E+02  0.64075610635E+02 -0.35856951332E+01  0.70197135707E+02  0.47000000000E+01 0. -1.
        -11    1    4    4    0    0 -0.20216754203E+01 -0.25190193618E+02  0.43112922068E+01  0.25636307584E+02  0.00000000000E+00 0.  1.
         12    1    4    4    0    0  0.36175105632E+02 -0.36695870235E+00 -0.10260207386E+03  0.10879319136E+03  0.00000000000E+00 0. -1.
         -5    1    5    5    0  502 -0.60862641968E+02 -0.49842734328E+02  0.29473433997E+02  0.84138770279E+02  0.47000000000E+01 0.  1.
         11    1    6    6    0    0  0.23667563908E+02 -0.21180914920E+02 -0.78640457050E+01  0.32720451602E+02  0.00000000000E+00 0. -1.
        -12    1    6    6    0    0  0.31095288852E+02  0.32505190933E+02  0.67480682950E+02  0.81099611576E+02  0.00000000000E+00 0.  1.
</event>
<event>
12    1  0.1627564E-001  0.3127291E+03  0.7818608E-02  0.1079061E+00
         21   -1    0    0  501  502  0.00000000000E+00  0.00000000000E+00  0.57087748965E+03  0.57087748965E+03  0.00000000000E+00 0. -1.
         21   -1    0    0  502  503 -0.00000000000E+00 -0.00000000000E+00 -0.24570755229E+03  0.24570755229E+03  0.00000000000E+00 0. -1.
         -6    2    1    2    0  503  0.10208804357E+03 -0.24035068121E+03 -0.62210604549E+02  0.31872644479E+03  0.17183122154E+03 0.  0.
        -24    2    3    3    0    0  0.13252983016E+03 -0.22411909782E+03 -0.74382716842E+02  0.28184261382E+03  0.78159737138E+02 0.  0.
          6    2    1    2  501    0 -0.10208804357E+03  0.24035068121E+03  0.38738054191E+03  0.49785859715E+03  0.17207289125E+03 0.  0.
         24    2    5    5    0    0 -0.18903282067E+02  0.10955530023E+03  0.90681527933E+02  0.16307578527E+03  0.77529828783E+02 0.  0.
          5    1    5    5  501    0 -0.83184761506E+02  0.13079538097E+03  0.29669901398E+03  0.33478281187E+03  0.47000000000E+01 0. -1.
        -11    1    6    6    0    0  0.18809961830E+02 -0.71317795398E+00  0.15567037507E+02  0.24426541785E+02  0.00000000000E+00 0.  1.
         12    1    6    6    0    0 -0.37713243897E+02  0.11026847819E+03  0.75114490426E+02  0.13864924349E+03  0.00000000000E+00 0. -1.
         -5    1    3    3    0  503 -0.30441786587E+02 -0.16231583391E+02  0.12172112293E+02  0.36883830979E+02  0.47000000000E+01 0.  1.
         11    1    4    4    0    0  0.10993927017E+03 -0.19909213526E+03 -0.90121953178E+02  0.24463500954E+03  0.00000000000E+00 0. -1.
        -12    1    4    4    0    0  0.22590559991E+02 -0.25026962551E+02  0.15739236336E+02  0.37207604272E+02  0.00000000000E+00 0.  1.
</event>
<event>
12    1  0.1627564E-001  0.1840946E+03  0.7818608E-02  0.1165192E+00
         21   -1    0    0  501  502  0.00000000000E+00  0.00000000000E+00  0.39006819385E+02  0.39006819385E+02  0.00000000000E+00 0.  1.
         21   -1    0    0  502  503 -0.00000000000E+00 -0.00000000000E+00 -0.84688472433E+03  0.84688472433E+03  0.00000000000E+00 0. -1.
         -6    2    1    2    0  503 -0.34349492184E+02  0.43726622709E+02 -0.43809853264E+03  0.47520643028E+03  0.17549621628E+03 0.  0.
        -24    2    3    3    0    0 -0.77554350882E+02 -0.70730817180E+01 -0.33514360537E+03  0.35245026206E+03  0.76388776562E+02 0.  0.
          6    2    1    2  501    0  0.34349492184E+02 -0.43726622709E+02 -0.36977937231E+03  0.41068511344E+03  0.16980451428E+03 0.  0.
         24    2    5    5    0    0  0.65293665516E+02 -0.80312690186E+02 -0.28753228262E+03  0.31538161949E+03  0.77957433269E+02 0.  0.
          5    1    5    5  501    0 -0.30944173332E+02  0.36586067478E+02 -0.82247089684E+02  0.95303493945E+02  0.47000000000E+01 0. -1.
        -13    1    6    6    0    0  0.56696797233E+01 -0.49440815797E+02 -0.58973258804E+02  0.77164660232E+02  0.00000000000E+00 0.  1.
         14    1    6    6    0    0  0.59623985793E+02 -0.30871874390E+02 -0.22855902382E+03  0.23821695926E+03  0.00000000000E+00 0. -1.
         -5    1    3    3    0  503  0.43204858698E+02  0.50799704427E+02 -0.10295492727E+03  0.12275616821E+03  0.47000000000E+01 0.  1.
         13    1    4    4    0    0 -0.63521573840E+02 -0.40375915135E+01 -0.11182491417E+03  0.12867052466E+03  0.00000000000E+00 0. -1.
        -14    1    4    4    0    0 -0.14032777042E+02 -0.30354902045E+01 -0.22331869120E+03  0.22377973740E+03  0.00000000000E+00 0.  1.
</event>
<event>
12    1  0.1627564E-001  0.1836561E+03  0.7818608E-02  0.1165469E+00
         21   -1    0    0  501  502  0.00000000000E+00  0.00000000000E+00  0.34250111839E+03  0.34250111839E+03  0.00000000000E+00 0.  1.
         21   -1    0    0  502  503 -0.00000000000E+00 -0.00000000000E+00 -0.13950973477E+03  0.13950973477E+03  0.00000000000E+00 0.  1.
         -6    2    1    2    0  503  0.21585362115E+02  0.44856771717E+02 -0.32310523226E+02  0.18647661419E+03  0.17678093761E+03 0.  0.
        -24    2    3    3    0    0 -0.53092489870E+02  0.51289973589E+02 -0.13322173345E+02  0.10901168603E+03  0.79098631573E+02 0.  0.
          6    2    1    2  501    0 -0.21585362115E+02 -0.44856771717E+02  0.23530190685E+03  0.29553423898E+03  0.17174236873E+03 0.  0.
         24    2    5    5    0    0 -0.56776017024E+02 -0.54505331884E+02  0.23258639846E+03  0.25864330660E+03  0.81274719228E+02 0.  0.
          5    1    5    5  501    0  0.35190654908E+02  0.96485601677E+01  0.27155083848E+01  0.36890932381E+02  0.47000000000E+01 0. -1.
        -13    1    6    6    0    0 -0.56891256523E+02  0.58682768386E+00  0.13651781943E+03  0.14789886564E+03  0.00000000000E+00 0.  1.
         14    1    6    6    0    0  0.11523949914E+00 -0.55092159568E+02  0.96068579028E+02  0.11074444096E+03  0.00000000000E+00 0. -1.
         -5    1    3    3    0  503  0.74677851985E+02 -0.64332018724E+01 -0.18988349881E+02  0.77464928159E+02  0.47000000000E+01 0.  1.
         13    1    4    4    0    0  0.23529215106E+01  0.52021518992E+02 -0.12506457101E+02  0.53555449275E+02  0.00000000000E+00 0. -1.
        -14    1    4    4    0    0 -0.55445411381E+02 -0.73154540238E+00 -0.81571624466E+00  0.55456236753E+02  0.00000000000E+00 0.  1.
</event>
<event>
12    1  0.1627564E-001  0.2295148E+03  0.7818608E-02  0.1127012E+00
         21   -1    0    0  501  502  0.00000000000E+00  0.00000000000E+00  0.71622302505E+02  0.71622302505E+02  0.00000000000E+00 0. -1.
         21   -1    0    0  502  503 -0.00000000000E+00 -0.00000000000E+00 -0.77491230114E+03  0.77491230114E+03  0.00000000000E+00 0. -1.
         -6    2    1    2    0  503 -0.55454138922E+02 -0.14124759048E+03 -0.44765897885E+03  0.50298803899E+03  0.17196616725E+03 0.  0.
        -24    2    3    3    0    0 -0.10326574997E+03 -0.88856487367E+02 -0.30151252527E+03  0.34047141297E+03  0.80322410897E+02 0.  0.
          6    2    1    2  501    0  0.55454138922E+02  0.14124759048E+03 -0.25563101978E+03  0.34354656465E+03  0.17219460059E+03 0.  0.
         24    2    5    5    0    0  0.38356753933E+02  0.47327928879E+02 -0.21933317367E+03  0.24130739876E+03  0.80069009002E+02 0.  0.
          5    1    5    5  501    0  0.17097384989E+02  0.93919661604E+02 -0.36297846108E+02  0.10223916589E+03  0.47000000000E+01 0. -1.
        -11    1    6    6    0    0 -0.16926321824E+02 -0.10471308708E+02 -0.33056964261E+02  0.38586416816E+02  0.00000000000E+00 0.  1.
         12    1    6    6    0    0  0.55283075757E+02  0.57799237587E+02 -0.18627620941E+03  0.20272098195E+03  0.00000000000E+00 0. -1.
         -5    1    3    3    0  503  0.47811611051E+02 -0.52391103115E+02 -0.14614645358E+03  0.16251662602E+03  0.47000000000E+01 0.  1.
         13    1    4    4    0    0 -0.34441783631E+02 -0.78937687688E+02 -0.13640194948E+03  0.16131610837E+03  0.00000000000E+00 0. -1.
        -14    1    4    4    0    0 -0.68823966341E+02 -0.99187996791E+01 -0.16511057579E+03  0.17915530461E+03  0.00000000000E+00 0.  1.
</event>
<event>
12    1  0.1627564E-001  0.2274707E+03  0.7818608E-02  0.1128563E+00
         21   -1    0    0  501  502  0.00000000000E+00  0.00000000000E+00  0.55563494875E+03  0.55563494875E+03  0.00000000000E+00 0. -1.
         21   -1    0    0  502  503 -0.00000000000E+00 -0.00000000000E+00 -0.18528815180E+03  0.18528815180E+03  0.00000000000E+00 0.  1.
         -6    2    1    2    0  503 -0.14183387407E+03 -0.44264147364E+02 -0.76673513783E+02  0.23935550069E+03  0.17127774350E+03 0.  0.
        -24    2    3    3    0    0 -0.12719020390E+03 -0.57054560501E+02  0.56178482486E+00  0.15957196169E+03  0.77655164113E+02 0.  0.
          6    2    1    2  501    0  0.14183387407E+03  0.44264147364E+02  0.44702031074E+03  0.50156759986E+03  0.17224034498E+03 0.  0.
         24    2    5    5    0    0  0.71327515783E+02  0.28541750828E+02  0.12255150399E+03  0.16912145856E+03  0.87641032438E+02 0.  0.
          5    1    5    5  501    0  0.70506358287E+02  0.15722396536E+02  0.32446880675E+03  0.33244614130E+03  0.47000000000E+01 0. -1.
        -13    1    6    6    0    0  0.90640603053E+02  0.33441828466E+02  0.10080330025E+03  0.13962585776E+03  0.00000000000E+00 0.  1.
         14    1    6    6    0    0 -0.19313087270E+02 -0.49000776377E+01  0.21748203732E+02  0.29495600796E+02  0.00000000000E+00 0. -1.
         -5    1    3    3    0  503 -0.14643670169E+02  0.12790413138E+02 -0.77235298608E+02  0.79783538999E+02  0.47000000000E+01 0.  1.
         11    1    4    4    0    0 -0.53198295897E+01 -0.12430554452E+02 -0.23941615558E+02  0.27495821980E+02  0.00000000000E+00 0. -1.
        -12    1    4    4    0    0 -0.12187037431E+03 -0.44624006049E+02  0.24503400382E+02  0.13207613971E+03  0.00000000000E+00 0.  1.
</event>
<event>
12    1  0.1627564E-001  0.2345120E+03  0.7818608E-02  0.1124892E+00
         21   -1    0    0  501  502  0.00000000000E+00  0.00000000000E+00  0.17323925137E+04  0.17323925137E+04  0.00000000000E+00 0.  1.
         21   -1    0    0  502  503 -0.00000000000E+00 -0.00000000000E+00 -0.45580805899E+02  0.45580805899E+02  0.00000000000E+00 0. -1.
         -6    2    1    2    0  503  0.41319330835E+02  0.14275779768E+03  0.13418722679E+04  0.13608653292E+04  0.17101515990E+03 0.  0.
        -24    2    3    3    0    0 -0.38307500914E+02  0.39049396287E+02  0.57616458042E+03  0.58406019434E+03  0.78538951511E+02 0.  0.
          6    2    1    2  501    0 -0.41319330835E+02 -0.14275779768E+03  0.34493943994E+03  0.41710799046E+03  0.18140777981E+03 0.  0.
         24    2    5    5    0    0 -0.97607808193E+02 -0.11178338230E+03  0.22217769421E+03  0.27847053770E+03  0.78486328646E+02 0.  0.
          5    1    5    5  501    0  0.56288477358E+02 -0.30974415389E+02  0.12276174573E+03  0.13863745276E+03  0.47000000000E+01 0. -1.
        -13    1    6    6    0    0 -0.66526542882E+02 -0.71185626329E+02  0.20052991551E+03  0.22294712673E+03  0.00000000000E+00 0.  1.
         14    1    6    6    0    0 -0.31081265311E+02 -0.40597755967E+02  0.21647778702E+02  0.55523410969E+02  0.00000000000E+00 0. -1.
         -5    1    3    3    0  503  0.79626831749E+02  0.10370840140E+03  0.76570768749E+03  0.77680513485E+03  0.47000000000E+01 0.  1.
         11    1    4    4    0    0  0.89366324258E+01 -0.93372343118E+01  0.20088640989E+02  0.23887252678E+02  0.00000000000E+00 0. -1.
        -12    1    4    4    0    0 -0.47244133340E+02  0.48386630599E+02  0.55607593943E+03  0.56017294166E+03  0.00000000000E+00 0.  1.
</event>
<event>
12    1  0.1627564E-001  0.5229187E+03  0.7818608E-02  0.1008017E+00
         21   -1    0    0  501  502  0.00000000000E+00  0.00000000000E+00  0.33702352890E+03  0.33702352890E+03  0.00000000000E+00 0. -1.
         21   -1    0    0  502  503 -0.00000000000E+00 -0.00000000000E+00 -0.91735501380E+03  0.91735501380E+03  0.00000000000E+00 0.  1.
         -6    2    1    2    0  503 -0.48517600283E+03  0.88786886342E+02 -0.50489939427E+03  0.72688880005E+03  0.17368092697E+03 0.  0.
        -24    2    3    3    0    0 -0.92836291799E+02  0.26841332279E+02 -0.12853761555E+03  0.17967953569E+03  0.80148504294E+02 0.  0.
          6    2    1    2  501    0  0.48517600283E+03 -0.88786886342E+02 -0.75432090636E+02  0.52748974265E+03  0.17110395492E+03 0.  0.
         24    2    5    5    0    0  0.10166653346E+03 -0.39318478303E+01 -0.15364545679E+02  0.13011071625E+03  0.79631562629E+02 0.  0.
          5    1    5    5  501    0  0.38350946938E+03 -0.84855038512E+02 -0.60067544956E+02  0.39737902639E+03  0.47000000000E+01 0. -1.
        -11    1    6    6    0    0  0.10284827817E+03 -0.17458274240E+02 -0.31548234649E+02  0.10898555304E+03  0.00000000000E+00 0.  1.
         12    1    6    6    0    0 -0.11817447130E+01  0.13526426410E+02  0.16183688970E+02  0.21125163210E+02  0.00000000000E+00 0. -1.
         -5    1    3    3    0  503 -0.39233971104E+03  0.61945554063E+02 -0.37636177872E+03  0.54720926436E+03  0.47000000000E+01 0.  1.
         11    1    4    4    0    0 -0.58017944310E+02  0.25118732486E+02 -0.20978027523E+02  0.66611637290E+02  0.00000000000E+00 0. -1.
        -12    1    4    4    0    0 -0.34818347489E+02  0.17225997930E+01 -0.10755958803E+03  0.11306789840E+03  0.00000000000E+00 0.  1.
</event>
<event>
12    1  0.1627564E-001  0.1972369E+03  0.7818608E-02  0.1152382E+00
         21   -1    0    0  503  502  0.00000000000E+00  0.00000000000E+00  0.66546891098E+02  0.66546891098E+02  0.00000000000E+00 0.  1.
         21   -1    0    0  501  503 -0.00000000000E+00 -0.00000000000E+00 -0.58980293634E+03  0.58980293634E+03  0.00000000000E+00 0.  1.
          6    2    1    2  501    0  0.47646564683E+02 -0.84177121614E+02 -0.30174512914E+03  0.35975332065E+03  0.17034184991E+03 0.  0.
         24    2    3    3    0    0  0.27940276168E+02 -0.12444950422E+03 -0.23183830507E+03  0.27657125131E+03  0.80463154429E+02 0.  0.
         -6    2    1    2    0  502 -0.47646564683E+02  0.84177121614E+02 -0.22151091610E+03  0.29659650679E+03  0.17189071807E+03 0.  0.
        -24    2    5    5    0    0 -0.41917538777E+02  0.10356821126E+03 -0.92923900237E+02  0.16634464790E+03  0.80945884441E+02 0.  0.
          5    1    3    3  501    0  0.19706288516E+02  0.40272382607E+02 -0.69906824065E+02  0.83182069335E+02  0.47000000000E+01 0. -1.
        -11    1    4    4    0    0  0.49151616285E+02 -0.88033701881E+02 -0.11814826661E+03  0.15532168861E+03  0.00000000000E+00 0.  1.
         12    1    4    4    0    0 -0.21211340117E+02 -0.36415802341E+02 -0.11369003846E+03  0.12124956270E+03  0.00000000000E+00 0. -1.
         -5    1    5    5    0  502 -0.57290259066E+01 -0.19391089647E+02 -0.12858701586E+03  0.13025185889E+03  0.47000000000E+01 0.  1.
         13    1    6    6    0    0  0.12343514468E+02  0.96311558482E+01  0.85169394040E+01  0.17823012349E+02  0.00000000000E+00 0. -1.
        -14    1    6    6    0    0 -0.54261053245E+02  0.93937055413E+02 -0.10144083964E+03  0.14852163555E+03  0.00000000000E+00 0.  1.
</event>
<event>
12    1  0.1627564E-001  0.2765591E+03  0.7818608E-02  0.1098818E+00
         21   -1    0    0  503  502  0.00000000000E+00  0.00000000000E+00  0.31876462550E+03  0.31876462550E+03  0.00000000000E+00 0.  1.
         21   -1    0    0  501  503 -0.00000000000E+00 -0.00000000000E+00 -0.31527866237E+03  0.31527866237E+03  0.00000000000E+00 0. -1.
          6    2    1    2  501    0 -0.68447343060E+01  0.20526012509E+03 -0.16074863767E+03  0.31988290309E+03  0.18521980951E+03 0.  0.
         24    2    3    3    0    0  0.13755010027E+02  0.36433834540E+02 -0.56636842343E+01  0.89665400210E+02  0.80567872478E+02 0.  0.
         -6    2    1    2    0  502  0.68447343060E+01 -0.20526012509E+03  0.16423460080E+03  0.31416038479E+03  0.17188709647E+03 0.  0.
        -24    2    5    5    0    0 -0.24020685717E+02 -0.40649247944E+02  0.41587438606E+02  0.10652168073E+03  0.85953468317E+02 0.  0.
          5    1    3    3  501    0 -0.20599744333E+02  0.16882629055E+03 -0.15508495344E+03  0.23021750288E+03  0.47000000000E+01 0. -1.
        -11    1    4    4    0    0 -0.30648459824E+02  0.27097388953E+02  0.91757989707E+01  0.41926028484E+02  0.00000000000E+00 0.  1.
         12    1    4    4    0    0  0.44403469851E+02  0.93364455874E+01 -0.14839483205E+02  0.47739371726E+02  0.00000000000E+00 0. -1.
         -5    1    5    5    0  502  0.30865420023E+02 -0.16461087715E+03  0.12264716220E+03  0.20763870406E+03  0.47000000000E+01 0.  1.
         11    1    6    6    0    0 -0.16104400318E+00 -0.47669678872E+02 -0.10489631792E+02  0.48810414811E+02  0.00000000000E+00 0. -1.
        -12    1    6    6    0    0 -0.23859641714E+02  0.70204309276E+01  0.52077070397E+02  0.57711265922E+02  0.00000000000E+00 0.  1.
</event>
<event>
12    1  0.1627564E-001  0.2274538E+03  0.7818608E-02  0.1128590E+00
         21   -1    0    0  501  502  0.00000000000E+00  0.00000000000E+00  0.94702324783E+02  0.94702324783E+02  0.00000000000E+00 0.  1.
         21   -1    0    0  502  503 -0.00000000000E+00 -0.00000000000E+00 -0.58727012134E+03  0.58727012134E+03  0.00000000000E+00 0.  1.
         -6    2    1    2    0  503  0.66891816422E+02 -0.13297962731E+03 -0.33887178651E+03  0.40812903501E+03  0.17198001380E+03 0.  0.
        -24    2    3    3    0    0  0.23133550410E+02 -0.14312360711E+03 -0.31650846542E+03  0.35773167099E+03  0.82309244184E+02 0.  0.
          6    2    1    2  501    0 -0.66891816422E+02  0.13297962731E+03 -0.15369601005E+03  0.27384341111E+03  0.17090832021E+03 0.  0.
         24    2    5    5    0    0 -0.87083202894E+02  0.35523458805E+02 -0.79705488572E+02  0.14973827771E+03  0.84989331978E+02 0.  0.
          5    1    5    5  501    0  0.20191386472E+02  0.97456168509E+02 -0.73990521474E+02  0.12410513340E+03  0.47000000000E+01 0. -1.
        -11    1    6    6    0    0 -0.41573579287E+02  0.16156285841E+02 -0.88872269775E+02  0.99436755790E+02  0.00000000000E+00 0.  1.
         12    1    6    6    0    0 -0.45509623607E+02  0.19367172965E+02  0.91667812036E+01  0.50301521917E+02  0.00000000000E+00 0. -1.
         -5    1    3    3    0  503  0.43758266011E+02  0.10143979798E+02 -0.22363321083E+02  0.50397364021E+02  0.47000000000E+01 0.  1.
         11    1    4    4    0    0  0.76140131280E+01  0.10019782296E+02 -0.28941635110E+02  0.31559269256E+02  0.00000000000E+00 0. -1.
        -12    1    4    4    0    0  0.15519537282E+02 -0.15314338941E+03 -0.28756683031E+03  0.32617240174E+03  0.00000000000E+00 0.  1.
</event>
<event>
12    1  0.1627564E-001  0.1769243E+03  0.7818608E-02  0.1170883E+00
         21   -1    0    0  501  502  0.00000000000E+00  0.00000000000E+00  0.51535868560E+03  0.51535868560E+03  0.00000000000E+00 0.  1.
         21   -1    0    0  502  503 -0.00000000000E+00 -0.00000000000E+00 -0.13914756806E+03  0.13914756806E+03  0.00000000000E+00 0. -1.
         -6    2    1    2    0  503  0.76494697642E+01  0.43603297299E+02 -0.57766473346E+02  0.18584990953E+03  0.17100719724E+03 0.  0.
        -24    2    3    3    0    0 -0.14967658269E+02  0.28583987091E+02 -0.10156651777E+03  0.13410391402E+03  0.81406554475E+02 0.  0.
          6    2    1    2  501    0 -0.76494697642E+01 -0.43603297299E+02  0.43397759088E+03  0.46865634413E+03  0.17129640272E+03 0.  0.
         24    2    5    5    0    0  0.20062911530E+02  0.30107051802E+02  0.30418150545E+03  0.31676722196E+03  0.80660583073E+02 0.  0.
          5    1    5    5  501    0 -0.27712381294E+02 -0.73710349101E+02  0.12979608543E+03  0.15188912218E+03  0.47000000000E+01 0. -1.
        -11    1    6    6    0    0  0.19896395705E+02 -0.23442552070E+02  0.16077444508E+03  0.16368824637E+03  0.00000000000E+00 0.  1.
         12    1    6    6    0    0  0.16651582408E+00  0.53549603872E+02  0.14340706038E+03  0.15307897559E+03  0.00000000000E+00 0. -1.
         -5    1    3    3    0  503  0.22617128033E+02  0.15019310207E+02  0.43800044427E+02  0.51745995510E+02  0.47000000000E+01 0.  1.
         11    1    4    4    0    0 -0.44884715629E+02  0.29111102640E+02 -0.83446759297E+02  0.99123436336E+02  0.00000000000E+00 0. -1.
        -12    1    4    4    0    0  0.29917057360E+02 -0.52711554870E+00 -0.18119758476E+02  0.34980477685E+02  0.00000000000E+00 0.  1.
</event>
<event>
12    1  0.1627564E-001  0.2975853E+03  0.7818608E-02  0.1086508E+00
         21   -1    0    0  503  502  0.00000000000E+00  0.00000000000E+00  0.11089623977E+04  0.11089623977E+04  0.00000000000E+00 0. -1.
         21   -1    0    0  501  503 -0.00000000000E+00 -0.00000000000E+00 -0.80843087712E+02  0.80843087712E+02  0.00000000000E+00 0. -1.
          6    2    1    2  501    0  0.21066689176E+03  0.11714098944E+03  0.44496697910E+03  0.53530608789E+03  0.17451201835E+03 0.  0.
         24    2    3    3    0    0  0.49043032699E+02 -0.35364826365E+01  0.11636621864E+03  0.14970801494E+03  0.80334719341E+02 0.  0.
         -6    2    1    2    0  502 -0.21066689176E+03 -0.11714098944E+03  0.58315233091E+03  0.65449939755E+03  0.17378224779E+03 0.  0.
        -24    2    5    5    0    0 -0.66063703327E+02 -0.10911235959E+03  0.34155745248E+03  0.37278195704E+03  0.77685096605E+02 0.  0.
          5    1    3    3  501    0  0.16162385906E+03  0.12067747208E+03  0.32860076046E+03  0.38559807295E+03  0.47000000000E+01 0. -1.
        -13    1    4    4    0    0 -0.53482592059E+01  0.37133648954E+01  0.87432680780E+02  0.87674777580E+02  0.00000000000E+00 0.  1.
         14    1    4    4    0    0  0.54391291905E+02 -0.72498475318E+01  0.28933537856E+02  0.62033237359E+02  0.00000000000E+00 0. -1.
         -5    1    5    5    0  502 -0.14460318843E+03 -0.80286298524E+01  0.24159487843E+03  0.28171744051E+03  0.47000000000E+01 0.  1.
         11    1    6    6    0    0 -0.49931684665E+02 -0.49709863043E+02  0.92768210565E+02  0.11649113489E+03  0.00000000000E+00 0. -1.
        -12    1    6    6    0    0 -0.16132018662E+02 -0.59402496548E+02  0.24878924192E+03  0.25629082215E+03  0.00000000000E+00 0.  1.
</event>
<event>
12    1  0.1627564E-001  0.1863378E+03  0.7818608E-02  0.1161912E+00
         21   -1    0    0  501  502  0.00000000000E+00  0.00000000000E+00  0.11757519164E+04  0.11757519164E+04  0.00000000000E+00 0. -1.
         21   -1    0    0  502  503 -0.00000000000E+00 -0.00000000000E+00 -0.40423980114E+02  0.40423980114E+02  0.00000000000E+00 0. -1.
         -6    2    1    2    0  503  0.56824203031E+02 -0.42636805745E+02  0.25045567430E+03  0.31189679884E+03  0.17176926698E+03 0.  0.
        -24    2    3    3    0    0  0.52601468228E+02  0.41483967807E+02  0.12554580679E+03  0.16116955832E+03  0.75670620993E+02 0.  0.
          6    2    1    2  501    0 -0.56824203031E+02  0.42636805745E+02  0.88487226197E+03  0.90427909767E+03  0.17226398118E+03 0.  0.
         24    2    5    5    0    0 -0.42555419651E+02 -0.42785244451E+02  0.47078601916E+03  0.48120696277E+03  0.79240925642E+02 0.  0.
          5    1    5    5  501    0 -0.14268783380E+02  0.85422050196E+02  0.41408624281E+03  0.42307213490E+03  0.47000000000E+01 0. -1.
        -11    1    6    6    0    0  0.64894409344E+01 -0.38729427734E+02  0.10459162566E+03  0.11172058706E+03  0.00000000000E+00 0.  1.
         12    1    6    6    0    0 -0.49044860585E+02 -0.40558167169E+01  0.36619439350E+03  0.36948637571E+03  0.00000000000E+00 0. -1.
         -5    1    3    3    0  503  0.42227348033E+01 -0.84120773552E+02  0.12490986751E+03  0.15072724052E+03  0.47000000000E+01 0.  1.
         13    1    4    4    0    0  0.60178209395E+02  0.10029575493E+02  0.49625981188E+02  0.78643164226E+02  0.00000000000E+00 0. -1.
        -14    1    4    4    0    0 -0.75767411678E+01  0.31454392314E+02  0.75919825599E+02  0.82526394091E+02  0.00000000000E+00 0.  1.
</event>
<event>
12    1  0.1627564E-001  0.4027015E+03  0.7818608E-02  0.1042854E+00
         21   -1    0    0  503  502  0.00000000000E+00  0.00000000000E+00  0.28070344791E+03  0.28070344791E+03  0.00000000000E+00 0. -1.
         21   -1    0    0  501  503 -0.00000000000E+00 -0.00000000000E+00 -0.71930797139E+03  0.71930797139E+03  0.00000000000E+00 0.  1.
          6    2    1    2  501    0 -0.44761387633E+02  0.36126923070E+03 -0.44119290902E+03  0.59730159463E+03  0.17204352097E+03 0.  0.
         24    2    3    3    0    0  0.18538941976E+02  0.12898194288E+03 -0.21358405383E+03  0.26595253884E+03  0.90180767954E+02 0.  0.
         -6    2    1    2    0  502  0.44761387633E+02 -0.36126923070E+03  0.25883855377E+01  0.40270982468E+03  0.17219019799E+03 0.  0.
        -24    2    5    5    0    0  0.76319916306E+02 -0.13575796688E+03  0.13043223408E+02  0.17471275348E+03  0.78099073973E+02 0.  0.
          5    1    3    3  501    0 -0.63300329609E+02  0.23228728781E+03 -0.22760885519E+03  0.33134905579E+03  0.47000000000E+01 0. -1.
        -13    1    4    4    0    0  0.30614874857E+02  0.13625612638E+03 -0.16923226010E+03  0.21941412989E+03  0.00000000000E+00 0.  1.
         14    1    4    4    0    0 -0.12075932881E+02 -0.72741835005E+01 -0.44351793729E+02  0.46538408949E+02  0.00000000000E+00 0. -1.
         -5    1    5    5    0  502 -0.31558528673E+02 -0.22551126382E+03 -0.10454837870E+02  0.22799707120E+03  0.47000000000E+01 0.  1.
         13    1    6    6    0    0  0.37456433815E+02 -0.10458179248E+02  0.19219287441E+02  0.43379015170E+02  0.00000000000E+00 0. -1.
        -14    1    6    6    0    0  0.38863482490E+02 -0.12529978763E+03 -0.61760640334E+01  0.13133373831E+03  0.00000000000E+00 0.  1.
</event>
<event>
12    1  0.1627564E-001  0.2009508E+03  0.7818608E-02  0.1149668E+00
         21   -1    0    0  503  502  0.00000000000E+00  0.00000000000E+00  0.68326363804E+03  0.68326363804E+03  0.00000000000E+00 0. -1.
         21   -1    0    0  501  503 -0.00000000000E+00 -0.00000000000E+00 -0.76452367786E+02  0.76452367786E+02  0.00000000000E+00 0. -1.
          6    2    1    2  501    0 -0.10325630517E+02  0.10275991583E+03  0.11526707634E+03  0.22868218671E+03  0.16835327345E+03 0.  0.
         24    2    3    3    0    0  0.47256103715E+02  0.21452283388E+02  0.77979134795E+02  0.12219712768E+03  0.78473261370E+02 0.  0.
         -6    2    1    2    0  502  0.10325630517E+02 -0.10275991583E+03  0.49154419392E+03  0.53103381912E+03  0.17238040355E+03 0.  0.
        -24    2    5    5    0    0  0.72518245497E+02 -0.81231186848E+02  0.32059143633E+03  0.34778987555E+03  0.79508030024E+02 0.  0.
          5    1    3    3  501    0 -0.57581734232E+02  0.81307632442E+02  0.37287941544E+02  0.10648505902E+03  0.47000000000E+01 0. -1.
        -13    1    4    4    0    0  0.21359464517E+02  0.37901876298E+02  0.80406341382E+02  0.91421872031E+02  0.00000000000E+00 0.  1.
         14    1    4    4    0    0  0.25896639199E+02 -0.16449592910E+02 -0.24272065871E+01  0.30775255653E+02  0.00000000000E+00 0. -1.
         -5    1    5    5    0  502 -0.62192614981E+02 -0.21528728982E+02  0.17095275759E+03  0.18324394357E+03  0.47000000000E+01 0.  1.
         11    1    6    6    0    0  0.92856775362E+01 -0.30337557204E+01 -0.19266769636E+01  0.99568853161E+01  0.00000000000E+00 0. -1.
        -12    1    6    6    0    0  0.63232567961E+02 -0.78197431128E+02  0.32251811330E+03  0.33783299023E+03  0.00000000000E+00 0.  1.
</event>
<event>
12    1  0.1627564E-001  0.1816054E+03  0.7818608E-02  0.1166526E+00
         21   -1    0    0  503  502  0.00000000000E+00  0.00000000000E+00  0.34794521406E+03  0.34794521406E+03  0.00000000000E+00 0.  1.
         21   -1    0    0  501  503 -0.00000000000E+00 -0.00000000000E+00 -0.94401877605E+02  0.94401877605E+02  0.00000000000E+00 0.  1.
          6    2    1    2  501    0  0.52148371890E+02 -0.19083985513E+02  0.13648154466E+03  0.22628230572E+03  0.17173473340E+03 0.  0.
         24    2    3    3    0    0  0.98869693967E+02 -0.33341346441E+02  0.94628275962E+02  0.16178470594E+03  0.79579637450E+02 0.  0.
         -6    2    1    2    0  502 -0.52148371890E+02  0.19083985513E+02  0.11706179179E+03  0.21606478594E+03  0.17290713528E+03 0.  0.
        -24    2    5    5    0    0 -0.31048564953E+02 -0.15643508929E+02  0.14140714354E+03  0.16846240286E+03  0.84704593593E+02 0.  0.
          5    1    3    3  501    0 -0.46721322077E+02  0.14257360928E+02  0.41853268699E+02  0.64497599785E+02  0.47000000000E+01 0. -1.
        -11    1    4    4    0    0  0.12535412914E+02 -0.84130902619E+01 -0.14148895644E+02  0.20690768778E+02  0.00000000000E+00 0.  1.
         12    1    4    4    0    0  0.86334281052E+02 -0.24928256179E+02  0.10877717161E+03  0.14109393716E+03  0.00000000000E+00 0. -1.
         -5    1    5    5    0  502 -0.21099806937E+02  0.34727494442E+02 -0.24345351749E+02  0.47602383079E+02  0.47000000000E+01 0.  1.
         11    1    6    6    0    0  0.92860206044E+01  0.17394747267E+02  0.99878563004E+02  0.10180635913E+03  0.00000000000E+00 0. -1.
        -12    1    6    6    0    0 -0.40334585557E+02 -0.33038256196E+02  0.41528580536E+02  0.66656043731E+02  0.00000000000E+00 0.  1.
</event>
<event>
12    1  0.1627564E-001  0.1751771E+03  0.7818608E-02  0.1172980E+00
         21   -1    0    0  503  502  0.00000000000E+00  0.00000000000E+00  0.16577838935E+03  0.16577838935E+03  0.00000000000E+00 0. -1.
         21   -1    0    0  501  503 -0.00000000000E+00 -0.00000000000E+00 -0.23140633116E+03  0.23140633116E+03  0.00000000000E+00 0. -1.
          6    2    1    2  501    0  0.25249168678E+02  0.21168783780E+02 -0.12320797634E+03  0.21278709432E+03  0.17033057315E+03 0.  0.
         24    2    3    3    0    0  0.33554618000E+02 -0.49349476498E+02 -0.50931216689E+02  0.11135817582E+03  0.79027661422E+02 0.  0.
         -6    2    1    2    0  502 -0.25249168678E+02 -0.21168783780E+02  0.57580034525E+02  0.18439762619E+03  0.17205053398E+03 0.  0.
        -24    2    5    5    0    0 -0.51417064646E+02 -0.69261726254E+02  0.24923057299E+02  0.12047378043E+03  0.80323544032E+02 0.  0.
          5    1    3    3  501    0 -0.83054493224E+01  0.70518260278E+02 -0.72276759647E+02  0.10142891849E+03  0.47000000000E+01 0. -1.
        -13    1    4    4    0    0  0.57647771850E+02 -0.28618195779E+02 -0.46194554473E+02  0.79222494229E+02  0.00000000000E+00 0.  1.
         14    1    4    4    0    0 -0.24093153850E+02 -0.20731280718E+02 -0.47366622164E+01  0.32135681595E+02  0.00000000000E+00 0. -1.
         -5    1    5    5    0  502  0.26167895968E+02  0.48092942474E+02  0.32656977226E+02  0.63923845759E+02  0.47000000000E+01 0.  1.
         11    1    6    6    0    0  0.16028086970E+02 -0.36168705939E+02 -0.44472503253E+01  0.39810210960E+02  0.00000000000E+00 0. -1.
        -12    1    6    6    0    0 -0.67445151615E+02 -0.33093020315E+02  0.29370307624E+02  0.80663569472E+02  0.00000000000E+00 0.  1.
</event>
<event>
12    1  0.1627564E-001  0.1960772E+03  0.7818608E-02  0.1153450E+00
         21   -1    0    0  501  502  0.00000000000E+00  0.00000000000E+00  0.67909344071E+02  0.67909344071E+02  0.00000000000E+00 0.  1.
         21   -1    0    0  502  503 -0.00000000000E+00 -0.00000000000E+00 -0.56142432033E+03  0.56142432033E+03  0.00000000000E+00 0. -1.
         -6    2    1    2    0  503  0.89338995835E+02  0.17250016764E+02 -0.25001120080E+03  0.31772920796E+03  0.17368716076E+03 0.  0.
        -24    2    3    3    0    0  0.13915464867E+02  0.36178365675E+02 -0.21481213980E+03  0.23224204336E+03  0.79306979484E+02 0.  0.
          6    2    1    2  501    0 -0.89338995835E+02 -0.17250016764E+02 -0.24350377546E+03  0.31160445644E+03  0.17182616027E+03 0.  0.
         24    2    5    5    0    0 -0.36000406913E+02  0.53079705926E+02 -0.95086726847E+02  0.13885902153E+03  0.78274247104E+02 0.  0.
          5    1    5    5  501    0 -0.53338588922E+02 -0.70329722690E+02 -0.14841704861E+03  0.17274543490E+03  0.47000000000E+01 0. -1.
        -11    1    6    6    0    0  0.66365701157E+01  0.10839526479E+02  0.11106579190E+02  0.16878847665E+02  0.00000000000E+00 0.  1.
         12    1    6    6    0    0 -0.42636977029E+02  0.42240179447E+02 -0.10619330604E+03  0.12198017387E+03  0.00000000000E+00 0. -1.
         -5    1    3    3    0  503  0.75423530968E+02 -0.18928348911E+02 -0.35199061003E+02  0.85487164602E+02  0.47000000000E+01 0.  1.
         13    1    4    4    0    0 -0.29056331107E+02 -0.11513928111E+01 -0.49560453621E+02  0.57461592789E+02  0.00000000000E+00 0. -1.
        -14    1    4    4    0    0  0.42971795974E+02  0.37329758486E+02 -0.16525168618E+03  0.17478045057E+03  0.00000000000E+00 0.  1.
</event>
<event>
12    1  0.1627564E-001  0.1962972E+03  0.7818608E-02  0.1155044E+00
         21   -1    0    0  503  502  0.00000000000E+00  0.00000000000E+00  0.31283797644E+03  0.31283797644E+03  0.00000000000E+00 0.  1.
         21   -1    0    0  501  503 -0.00000000000E+00 -0.00000000000E+00 -0.11927437657E+03  0.11927437657E+03  0.00000000000E+00 0.  1.
          6    2    1    2  501    0 -0.25312911439E+02 -0.69769199222E+02  0.70620948966E+02  0.20861422733E+03  0.18172532230E+03 0.  0.
         24    2    3    3    0    0 -0.11758484853E+00 -0.22011160283E+02 -0.34776463647E+02  0.90096973943E+02  0.80147097805E+02 0.  0.
         -6    2    1    2    0  502  0.25312911439E+02  0.69769199222E+02  0.12294265091E+03  0.22349812568E+03  0.17125429082E+03 0.  0.
        -24    2    5    5    0    0 -0.17441081279E+02  0.70285612931E+02  0.14613783639E+02  0.10694168416E+03  0.77322069530E+02 0.  0.
          5    1    3    3  501    0 -0.25195326591E+02 -0.47758038938E+02  0.10539741261E+03  0.11851725339E+03  0.47000000000E+01 0. -1.
        -11    1    4    4    0    0 -0.35721728618E+02 -0.18875708317E+02 -0.25094702208E+00  0.40402935962E+02  0.00000000000E+00 0.  1.
         12    1    4    4    0    0  0.35604143769E+02 -0.31354519657E+01 -0.34525516625E+02  0.49694037980E+02  0.00000000000E+00 0. -1.
         -5    1    5    5    0  502  0.42753992718E+02 -0.51641370951E+00  0.10832886727E+03  0.11655644152E+03  0.47000000000E+01 0.  1.
         11    1    6    6    0    0 -0.55749963660E+01 -0.15693413511E+02  0.11220435119E+02  0.20081383826E+02  0.00000000000E+00 0. -1.
        -12    1    6    6    0    0 -0.11866084913E+02  0.85979026442E+02  0.33933485205E+01  0.86860300329E+02  0.00000000000E+00 0.  1.
</event>
<event>
12    1  0.1627564E-001  0.2182827E+03  0.7818608E-02  0.1135219E+00
         21   -1    0    0  501  502  0.00000000000E+00  0.00000000000E+00  0.65976954204E+02  0.65976954204E+02  0.00000000000E+00 0.  1.
         21   -1    0    0  502  503 -0.00000000000E+00 -0.00000000000E+00 -0.72207964111E+03  0.72207964111E+03  0.00000000000E+00 0.  1.
         -6    2    1    2    0  503 -0.89264167850E+01 -0.13286800750E+03 -0.31553250946E+03  0.38367706333E+03  0.17295587897E+03 0.  0.
        -24    2    3    3    0    0  0.55478857048E+02 -0.67772390627E+02 -0.22819866047E+03  0.25704859176E+03  0.79550923157E+02 0.  0.
          6    2    1    2  501    0  0.89264167850E+01  0.13286800750E+03 -0.34057017745E+03  0.40437953198E+03  0.17263015897E+03 0.  0.
         24    2    5    5    0    0  0.67558192098E+02  0.59585000023E+02 -0.13107915534E+03  0.17477843746E+03  0.72465686294E+02 0.  0.
          5    1    5    5  501    0 -0.58631775313E+02  0.73283007475E+02 -0.20949102211E+03  0.22960109452E+03  0.47000000000E+01 0. -1.
        -13    1    6    6    0    0  0.36408990258E+02  0.69051930669E+02 -0.66872689627E+02  0.10278978703E+03  0.00000000000E+00 0.  1.
         14    1    6    6    0    0  0.31149201841E+02 -0.94669306460E+01 -0.64206465713E+02  0.71988650428E+02  0.00000000000E+00 0. -1.
         -5    1    3    3    0  503 -0.64405273833E+02 -0.65095616870E+02 -0.87333848989E+02  0.12662847157E+03  0.47000000000E+01 0.  1.
         11    1    4    4    0    0  0.20787310478E+02 -0.27040194032E+01 -0.44058367056E+01  0.21420443388E+02  0.00000000000E+00 0. -1.
        -12    1    4    4    0    0  0.34691546569E+02 -0.65068371224E+02 -0.22379282376E+03  0.23562814837E+03  0.00000000000E+00 0.  1.
</event>
<event>
12    1  0.1627564E-001  0.3398130E+03  0.7818608E-02  0.1067385E+00
         21   -1    0    0  501  502  0.00000000000E+00  0.00000000000E+00  0.47402691996E+03  0.47402691996E+03  0.00000000000E+00 0. -1.
         21   -1    0    0  502  503 -0.00000000000E+00 -0.00000000000E+00 -0.39130735216E+03  0.39130735216E+03  0.00000000000E+00 0.  1.
         -6    2    1    2    0  503  0.27830130008E+03  0.92892476129E+02 -0.22767299362E+03  0.40509912880E+03  0.16183227857E+03 0.  0.
        -24    2    3    3    0    0  0.28912611969E+03  0.70953167809E+02 -0.22069720818E+03  0.37922903890E+03  0.80493112355E+02 0.  0.
          6    2    1    2  501    0 -0.27830130008E+03 -0.92892476129E+02  0.31039256141E+03  0.46023514332E+03  0.17144159127E+03 0.  0.
         24    2    5    5    0    0 -0.18503914841E+03 -0.44220052043E+02  0.11121904915E+03  0.23493753617E+03  0.81431379453E+02 0.  0.
          5    1    5    5  501    0 -0.93262151670E+02 -0.48672424087E+02  0.19917351226E+03  0.22529760715E+03  0.47000000000E+01 0. -1.
        -13    1    6    6    0    0 -0.55290249600E+02 -0.45077626633E+02  0.13739380725E+02  0.72648294588E+02  0.00000000000E+00 0.  1.
         14    1    6    6    0    0 -0.12974889881E+03  0.85757459093E+00  0.97479668421E+02  0.16228924158E+03  0.00000000000E+00 0. -1.
         -5    1    3    3    0  503 -0.10824819612E+02  0.21939308320E+02 -0.69757854409E+01  0.25870089905E+02  0.47000000000E+01 0.  1.
         11    1    4    4    0    0  0.16086550241E+03  0.30565464692E+02 -0.72374537748E+02  0.17902522507E+03  0.00000000000E+00 0. -1.
        -12    1    4    4    0    0  0.12826061729E+03  0.40387703117E+02 -0.14832267043E+03  0.20020381383E+03  0.00000000000E+00 0.  1.
</event>
<event>
12    1  0.1627564E-001  0.2148581E+03  0.7818608E-02  0.1139614E+00
         21   -1    0    0  501  502  0.00000000000E+00  0.00000000000E+00  0.95870621006E+02  0.95870621006E+02  0.00000000000E+00 0.  1.
         21   -1    0    0  502  503 -0.00000000000E+00 -0.00000000000E+00 -0.55461143905E+03  0.55461143905E+03  0.00000000000E+00 0. -1.
         -6    2    1    2    0  503 -0.12540303570E+03 -0.25514652886E+02 -0.36732463591E+03  0.42554834953E+03  0.17258937037E+03 0.  0.
        -24    2    3    3    0    0 -0.98193318540E+02  0.48947340778E+02 -0.25656312786E+03  0.28925763497E+03  0.76207419838E+02 0.  0.
          6    2    1    2  501    0  0.12540303570E+03  0.25514652886E+02 -0.91416182132E+02  0.22493371053E+03  0.16081460413E+03 0.  0.
         24    2    5    5    0    0  0.11021912529E+03 -0.14020551324E+02 -0.15214958363E+02  0.13762792600E+03  0.79781699775E+02 0.  0.
          5    1    5    5  501    0  0.15183910412E+02  0.39535204210E+02 -0.76201223769E+02  0.87305784523E+02  0.47000000000E+01 0. -1.
        -11    1    6    6    0    0  0.72347000328E+02 -0.64166884010E+01 -0.47919541441E+02  0.87014624049E+02  0.00000000000E+00 0.  1.
         12    1    6    6    0    0  0.37872124961E+02 -0.76038629231E+01  0.32704583077E+02  0.50613301954E+02  0.00000000000E+00 0. -1.
         -5    1    3    3    0  503 -0.27209717161E+02 -0.74461993663E+02 -0.11076150805E+03  0.13629071456E+03  0.47000000000E+01 0.  1.
         11    1    4    4    0    0 -0.60083653067E+02 -0.22881847666E+01 -0.17878733183E+03  0.18862712207E+03  0.00000000000E+00 0. -1.
        -12    1    4    4    0    0 -0.38109665473E+02  0.51235525544E+02 -0.77775796026E+02  0.10063051291E+03  0.00000000000E+00 0.  1.
</event>
<event>
12    1  0.1627564E-001  0.1801451E+03  0.7818608E-02  0.1167875E+00
         21   -1    0    0  503  502  0.00000000000E+00  0.00000000000E+00  0.35269792683E+04  0.35269792683E+04  0.00000000000E+00 0.  1.
         21   -1    0    0  501  503 -0.00000000000E+00 -0.00000000000E+00 -0.10407531329E+02  0.10407531329E+02  0.00000000000E+00 0.  1.
          6    2    1    2  501    0  0.50623642048E+02  0.25400726382E+01  0.11412612032E+04  0.11552548985E+04  0.17195214870E+03 0.  0.
         24    2    3    3    0    0  0.43096014156E+02 -0.37227525295E+02  0.36241753523E+03  0.37534613705E+03  0.79341651614E+02 0.  0.
         -6    2    1    2    0  502 -0.50623642048E+02 -0.25400726382E+01  0.23753105338E+04  0.23821319012E+04  0.17286716719E+03 0.  0.
        -24    2    5    5    0    0 -0.16634754887E+01 -0.10722581251E+02  0.21397128098E+04  0.21413157287E+04  0.82124300725E+02 0.  0.
          5    1    3    3  501    0  0.75276278918E+01  0.39767597933E+02  0.77884366795E+03  0.77990876142E+03  0.47000000000E+01 0. -1.
        -11    1    4    4    0    0  0.27457113824E+02  0.14573848060E+02  0.54772648616E+02  0.62978831231E+02  0.00000000000E+00 0.  1.
         12    1    4    4    0    0  0.15638900332E+02 -0.51801373355E+02  0.30764488661E+03  0.31236730581E+03  0.00000000000E+00 0. -1.
         -5    1    5    5    0  502 -0.48960166559E+02  0.81825086126E+01  0.23559772399E+03  0.24081617243E+03  0.47000000000E+01 0.  1.
         13    1    6    6    0    0 -0.78555076519E+01  0.13802456731E+02  0.86420739032E+02  0.87867860718E+02  0.00000000000E+00 0. -1.
        -14    1    6    6    0    0  0.61920321632E+01 -0.24525037982E+02  0.20532920708E+04  0.20534478680E+04  0.00000000000E+00 0.  1.
</event>
<event>
12    1  0.1627564E-001  0.1827100E+03  0.7818608E-02  0.1165214E+00
         21   -1    0    0  501  502  0.00000000000E+00  0.00000000000E+00  0.47298249302E+03  0.47298249302E+03  0.00000000000E+00 0.  1.
         21   -1    0    0  502  503 -0.00000000000E+00 -0.00000000000E+00 -0.95705723704E+02  0.95705723704E+02  0.00000000000E+00 0.  1.
         -6    2    1    2    0  503  0.46704941559E+02  0.40718030727E+02  0.42896555192E+02  0.18764614319E+03  0.17184775533E+03 0.  0.
        -24    2    3    3    0    0 -0.17526445341E+01  0.54459982996E+02  0.78616441411E+02  0.12571893452E+03  0.81582744039E+02 0.  0.
          6    2    1    2  501    0 -0.46704941559E+02 -0.40718030727E+02  0.33438021412E+03  0.38104207353E+03  0.17188258962E+03 0.  0.
         24    2    5    5    0    0  0.27453861095E+02 -0.24830777137E+02  0.10340525933E+03  0.13788892719E+03  0.83369218550E+02 0.  0.
          5    1    5    5  501    0 -0.74158802654E+02 -0.15887253590E+02  0.23097495479E+03  0.24315314635E+03  0.47000000000E+01 0. -1.
        -11    1    6    6    0    0  0.83636765807E+01 -0.54424886117E+02  0.53215719784E+02  0.76576315835E+02  0.00000000000E+00 0.  1.
         12    1    6    6    0    0  0.19090184515E+02  0.29594108979E+02  0.50189539546E+02  0.61312611353E+02  0.00000000000E+00 0. -1.
         -5    1    3    3    0  503  0.48457586093E+02 -0.13741952270E+02 -0.35719886219E+02  0.61927208670E+02  0.47000000000E+01 0.  1.
         11    1    4    4    0    0 -0.27273743060E+02 -0.87766632725E+01  0.14471051586E+02  0.32098258718E+02  0.00000000000E+00 0. -1.
        -12    1    4    4    0    0  0.25521098526E+02  0.63236646269E+02  0.64145389824E+02  0.93620675799E+02  0.00000000000E+00 0.  1.
</event>
<event>
12    1  0.1627564E-001  0.2191034E+03  0.7818608E-02  0.1135183E+00
         21   -1    0    0  501  502  0.00000000000E+00  0.00000000000E+00  0.87182343175E+03  0.87182343175E+03  0.00000000000E+00 0. -1.
         21   -1    0    0  502  503 -0.00000000000E+00 -0.00000000000E+00 -0.54417821695E+02  0.54417821695E+02  0.00000000000E+00 0.  1.
         -6    2    1    2    0  503  0.92700089979E+02  0.92797646797E+02  0.43284657666E+03  0.48364440641E+03  0.17132146097E+03 0.  0.
        -24    2    3    3    0    0  0.89221796122E+02  0.77702105274E+02  0.44230864324E+03  0.46489355027E+03  0.80566315100E+02 0.  0.
          6    2    1    2  501    0 -0.92700089979E+02 -0.92797646797E+02  0.38455903339E+03  0.44259684704E+03  0.17550387150E+03 0.  0.
         24    2    5    5    0    0  0.11248529996E+02 -0.25074667327E+01  0.12531079882E+03  0.14901658657E+03  0.79814346795E+02 0.  0.
          5    1    5    5  501    0 -0.10394861997E+03 -0.90290180064E+02  0.25924823457E+03  0.29358026047E+03  0.47000000000E+01 0. -1.
        -11    1    6    6    0    0  0.22921362561E+02 -0.35839321642E+02  0.48748141930E+02  0.64701060108E+02  0.00000000000E+00 0.  1.
         12    1    6    6    0    0 -0.11672832565E+02  0.33331854909E+02  0.76562656891E+02  0.84315526459E+02  0.00000000000E+00 0. -1.
         -5    1    3    3    0  503  0.34782938565E+01  0.15095541522E+02 -0.94620665780E+01  0.18750856138E+02  0.47000000000E+01 0.  1.
         11    1    4    4    0    0  0.80604242279E+02  0.18527134359E+02  0.23480353980E+03  0.24894377052E+03  0.00000000000E+00 0. -1.
        -12    1    4    4    0    0  0.86175538430E+01  0.59174970916E+02  0.20750510345E+03  0.21594977975E+03  0.00000000000E+00 0.  1.
</event>
<event>
12    1  0.1627564E-001  0.1794673E+03  0.7818608E-02  0.1168491E+00
         21   -1    0    0  503  502  0.00000000000E+00  0.00000000000E+00  0.89726043441E+02  0.89726043441E+02  0.00000000000E+00 0. -1.
         21   -1    0    0  501  503 -0.00000000000E+00 -0.00000000000E+00 -0.62345301919E+03  0.62345301919E+03  0.00000000000E+00 0. -1.
          6    2    1    2  501    0 -0.28478890943E+02  0.38677125756E+02 -0.50003780295E+03  0.53126860376E+03  0.17292066874E+03 0.  0.
         24    2    3    3    0    0 -0.23744322929E+02  0.66934776076E+02 -0.17669840236E+03  0.20662823519E+03  0.80180078943E+02 0.  0.
         -6    2    1    2    0  502  0.28478890943E+02 -0.38677125756E+02 -0.33689172803E+02  0.18191045887E+03  0.17219026511E+03 0.  0.
        -24    2    5    5    0    0 -0.30612062418E+02 -0.39610449571E+02  0.25611461351E+02  0.98057807910E+02  0.80332438398E+02 0.  0.
          5    1    3    3  501    0 -0.47345680141E+01 -0.28257650320E+02 -0.32333940059E+03  0.32464036857E+03  0.47000000000E+01 0. -1.
        -11    1    4    4    0    0  0.17992439348E+02  0.82680506626E+01 -0.49667336750E+01  0.20414626591E+02  0.00000000000E+00 0.  1.
         12    1    4    4    0    0 -0.41736762277E+02  0.58666725413E+02 -0.17173166869E+03  0.18621360860E+03  0.00000000000E+00 0. -1.
         -5    1    5    5    0  502  0.59090953361E+02  0.93332381465E+00 -0.59300634154E+02  0.83852650963E+02  0.47000000000E+01 0.  1.
         11    1    6    6    0    0  0.12636902352E+02 -0.47496280356E+02  0.22300474171E+02  0.53971280297E+02  0.00000000000E+00 0. -1.
        -12    1    6    6    0    0 -0.43248964770E+02  0.78858307854E+01  0.33109871802E+01  0.44086527613E+02  0.00000000000E+00 0.  1.
</event>
<event>
12    1  0.1627564E-001  0.2104326E+03  0.7818608E-02  0.1141399E+00
         21   -1    0    0  503  502  0.00000000000E+00  0.00000000000E+00  0.93932906009E+02  0.93932906009E+02  0.00000000000E+00 0.  1.
         21   -1    0    0  501  503 -0.00000000000E+00 -0.00000000000E+00 -0.15564701195E+04  0.15564701195E+04  0.00000000000E+00 0. -1.
          6    2    1    2  501    0 -0.56531688945E+02  0.10625398033E+03 -0.14204241521E+04  0.14357978257E+04  0.17153683060E+03 0.  0.
         24    2    3    3    0    0 -0.56717776985E+02  0.13547986242E+03 -0.97727716195E+03  0.99166323835E+03  0.82180457961E+02 0.  0.
         -6    2    1    2    0  502  0.56531688945E+02 -0.10625398033E+03 -0.42113061459E+02  0.21460519987E+03  0.17261558931E+03 0.  0.
        -24    2    5    5    0    0  0.10472427805E+03 -0.75635223050E+02 -0.21088213291E+02  0.15357923668E+03  0.80336839751E+02 0.  0.
          5    1    3    3  501    0  0.18608804056E+00 -0.29225882098E+02 -0.44314699012E+03  0.44413458733E+03  0.47000000000E+01 0. -1.
        -13    1    4    4    0    0 -0.22975163941E+02  0.25280934415E+02 -0.79635166747E+02  0.86653006790E+02  0.00000000000E+00 0.  1.
         14    1    4    4    0    0 -0.33742613044E+02  0.11019892801E+03 -0.89764199521E+03  0.90501023156E+03  0.00000000000E+00 0. -1.
         -5    1    5    5    0  502 -0.48192589107E+02 -0.30618757276E+02 -0.21024848168E+02  0.61025963183E+02  0.47000000000E+01 0.  1.
         13    1    6    6    0    0  0.48855143873E+02 -0.32167888093E+02 -0.50159182432E+02  0.77055445554E+02  0.00000000000E+00 0. -1.
        -14    1    6    6    0    0  0.55869134178E+02 -0.43467334957E+02  0.29070969141E+02  0.76523791130E+02  0.00000000000E+00 0.  1.
</event>
<event>
12    1  0.1627564E-001  0.3107188E+03  0.7818608E-02  0.1080101E+00
         21   -1    0    0  501  502  0.00000000000E+00  0.00000000000E+00  0.74075479323E+03  0.74075479323E+03  0.00000000000E+00 0. -1.
         21   -1    0    0  502  503 -0.00000000000E+00 -0.00000000000E+00 -0.19674589248E+03  0.19674589248E+03  0.00000000000E+00 0.  1.
         -6    2    1    2    0  503  0.25519449998E+03 -0.37616320921E+02 -0.80410787378E+00  0.31071984741E+03  0.17322516147E+03 0.  0.
        -24    2    3    3    0    0  0.17116150618E+03 -0.61325188776E+02  0.56235106415E+02  0.20632053501E+03  0.79678955816E+02 0.  0.
          6    2    1    2  501    0 -0.25519449998E+03  0.37616320921E+02  0.54481300862E+03  0.62678083830E+03  0.17173754532E+03 0.  0.
         24    2    5    5    0    0 -0.18321319228E+03 -0.28721815444E+02  0.28565143181E+03  0.34970888033E+03  0.79420047717E+02 0.  0.
          5    1    5    5  501    0 -0.71981307695E+02  0.66338136365E+02  0.25916157682E+03  0.27707195797E+03  0.47000000000E+01 0. -1.
        -13    1    6    6    0    0 -0.52853167156E+02 -0.45469775375E+02  0.11197892563E+03  0.13190995996E+03  0.00000000000E+00 0.  1.
         14    1    6    6    0    0 -0.13036002513E+03  0.16747959931E+02  0.17367250617E+03  0.21779892037E+03  0.00000000000E+00 0. -1.
         -5    1    3    3    0  503  0.84032993800E+02  0.23708867855E+02 -0.57039214289E+02  0.10439931240E+03  0.47000000000E+01 0.  1.
         11    1    4    4    0    0  0.91686645549E+02 -0.48710368902E+02  0.69258950346E+02  0.12480361859E+03  0.00000000000E+00 0. -1.
        -12    1    4    4    0    0  0.79474860628E+02 -0.12614819874E+02 -0.13023843931E+02  0.81516916422E+02  0.00000000000E+00 0.  1.
</event>
<event>
12    1  0.1627564E-001  0.1788033E+03  0.7818608E-02  0.1168977E+00
         21   -1    0    0  501  502  0.00000000000E+00  0.00000000000E+00  0.36805135802E+03  0.36805135802E+03  0.00000000000E+00 0.  1.
         21   -1    0    0  502  503 -0.00000000000E+00 -0.00000000000E+00 -0.12832821002E+03  0.12832821002E+03  0.00000000000E+00 0.  1.
         -6    2    1    2    0  503 -0.36095317163E+02 -0.27023740893E+02 -0.21241843940E+02  0.18006062839E+03  0.17302444761E+03 0.  0.
        -24    2    3    3    0    0 -0.88193828568E+02 -0.37712826179E+02 -0.14533003045E+02  0.12624975606E+03  0.80792227791E+02 0.  0.
          6    2    1    2  501    0  0.36095317163E+02  0.27023740893E+02  0.26096499195E+03  0.31631893965E+03  0.17297916079E+03 0.  0.
         24    2    5    5    0    0 -0.74185955493E+01 -0.37865151727E+02  0.18841313942E+03  0.20959551069E+03  0.83318435637E+02 0.  0.
          5    1    5    5  501    0  0.43513912712E+02  0.64888892620E+02  0.72551852520E+02  0.10672342896E+03  0.47000000000E+01 0. -1.
        -11    1    6    6    0    0  0.34737980719E+02  0.27944514597E-02  0.62154212736E+02  0.71203043988E+02  0.00000000000E+00 0.  1.
         12    1    6    6    0    0 -0.42156576269E+02 -0.37867946179E+02  0.12625892669E+03  0.13839246670E+03  0.00000000000E+00 0. -1.
         -5    1    3    3    0  503  0.52098511405E+02  0.10689085286E+02 -0.67088408954E+01  0.53810872332E+02  0.47000000000E+01 0.  1.
         11    1    4    4    0    0  0.28315182714E+01  0.15409285899E+02  0.92678771193E+01  0.18203217681E+02  0.00000000000E+00 0. -1.
        -12    1    4    4    0    0 -0.91025346840E+02 -0.53122112078E+02 -0.23800880164E+02  0.10804653838E+03  0.00000000000E+00 0.  1.
</event>
<event>
12    1  0.1627564E-001  0.1786293E+03  0.7818608E-02  0.1169385E+00
         21   -1    0    0  503  502  0.00000000000E+00  0.00000000000E+00  0.10023903019E+03  0.10023903019E+03  0.00000000000E+00 0. -1.
         21   -1    0    0  501  503 -0.00000000000E+00 -0.00000000000E+00 -0.38618935025E+03  0.38618935025E+03  0.00000000000E+00 0. -1.
          6    2    1    2  501    0  0.14300502644E+02 -0.36184473136E+02 -0.40006418667E+02  0.18305450559E+03  0.17434052314E+03 0.  0.
         24    2    3    3    0    0 -0.53809743315E+02 -0.37358054404E+02  0.32763975519E+01  0.10220974647E+03  0.78389953360E+02 0.  0.
         -6    2    1    2    0  502 -0.14300502644E+02  0.36184473136E+02 -0.24594390139E+03  0.30337387484E+03  0.17330171619E+03 0.  0.
        -24    2    5    5    0    0 -0.58936704829E+01  0.55093830858E+02 -0.26005014956E+03  0.27789221724E+03  0.80795659330E+02 0.  0.
          5    1    3    3  501    0  0.68110245959E+02  0.11735812688E+01 -0.43282816219E+02  0.80844759121E+02  0.47000000000E+01 0. -1.
        -11    1    4    4    0    0 -0.34652464535E+02 -0.44395025766E+01  0.37323731831E+02  0.51123022595E+02  0.00000000000E+00 0.  1.
         12    1    4    4    0    0 -0.19157278780E+02 -0.32918551828E+02 -0.34047334279E+02  0.51086723874E+02  0.00000000000E+00 0. -1.
         -5    1    5    5    0  502 -0.84068321609E+01 -0.18909357723E+02  0.14106248174E+02  0.25481657599E+02  0.47000000000E+01 0.  1.
         11    1    6    6    0    0 -0.21183236407E+02 -0.15168129292E+02 -0.67483906308E+02  0.72338642933E+02  0.00000000000E+00 0. -1.
        -12    1    6    6    0    0  0.15289565924E+02  0.70261960151E+02 -0.19256624326E+03  0.20555357431E+03  0.00000000000E+00 0.  1.
</event>
<event>
12    1  0.1627564E-001  0.2142932E+03  0.7818608E-02  0.1140180E+00
         21   -1    0    0  501  502  0.00000000000E+00  0.00000000000E+00  0.26233077605E+03  0.26233077605E+03  0.00000000000E+00 0. -1.
         21   -1    0    0  502  503 -0.00000000000E+00 -0.00000000000E+00 -0.16980346655E+03  0.16980346655E+03  0.00000000000E+00 0. -1.
         -6    2    1    2    0  503 -0.67885982978E+02 -0.88477229425E+02  0.75023776684E+02  0.22704658441E+03  0.18298868165E+03 0.  0.
        -24    2    3    3    0    0 -0.51607417634E+02 -0.10369148936E+03 -0.81991361927E+01  0.14076443896E+03  0.79574813351E+02 0.  0.
          6    2    1    2  501    0  0.67885982978E+02  0.88477229425E+02  0.17503532815E+02  0.20508765819E+03  0.17122455160E+03 0.  0.
         24    2    5    5    0    0  0.83102283766E+02  0.10905297432E+03  0.47321232864E+02  0.16551390017E+03  0.79730867892E+02 0.  0.
          5    1    5    5  501    0 -0.15216300788E+02 -0.20575744897E+02 -0.29817700050E+02  0.39573758022E+02  0.47000000000E+01 0. -1.
        -13    1    6    6    0    0 -0.44355285295E+01  0.35546314531E+02  0.35772490671E+02  0.50624949174E+02  0.00000000000E+00 0.  1.
         14    1    6    6    0    0  0.87537812296E+02  0.73506659791E+02  0.11548742193E+02  0.11488895100E+03  0.00000000000E+00 0. -1.
         -5    1    3    3    0  503 -0.16278565344E+02  0.15214259940E+02  0.83222912876E+02  0.86282145446E+02  0.47000000000E+01 0.  1.
         11    1    4    4    0    0 -0.35509129241E+02 -0.91018124448E+01  0.18650399483E+02  0.41128805600E+02  0.00000000000E+00 0. -1.
        -12    1    4    4    0    0 -0.16098288393E+02 -0.94589676919E+02 -0.26849535676E+02  0.99635633359E+02  0.00000000000E+00 0.  1.
</event>
<event>
12    1  0.1627564E-001  0.1741462E+03  0.7818608E-02  0.1175790E+00
         21   -1    0    0  503  502  0.00000000000E+00  0.00000000000E+00  0.16632730250E+03  0.16632730250E+03  0.00000000000E+00 0. -1.
         21   -1    0    0  501  503 -0.00000000000E+00 -0.00000000000E+00 -0.38280719015E+03  0.38280719015E+03  0.00000000000E+00 0. -1.
          6    2    1    2  501    0 -0.50386055946E+01  0.28024403389E+02 -0.30997938066E+03  0.35147559187E+03  0.16320882487E+03 0.  0.
         24    2    3    3    0    0 -0.22682093563E+02 -0.19641505482E+02 -0.27887111699E+03  0.29169979740E+03  0.80121194491E+02 0.  0.
         -6    2    1    2    0  502  0.50386055946E+01 -0.28024403389E+02  0.93499493014E+02  0.19765890077E+03  0.17180259349E+03 0.  0.
        -24    2    5    5    0    0  0.54809623651E+02 -0.52076382116E+02  0.31672313335E+02  0.11459060317E+03  0.80073881412E+02 0.  0.
          5    1    3    3  501    0  0.17643487968E+02  0.47665908871E+02 -0.31108263669E+02  0.59775794471E+02  0.47000000000E+01 0. -1.
        -13    1    4    4    0    0  0.25311702190E+02 -0.15820412076E+02 -0.53692759661E+02  0.61431914719E+02  0.00000000000E+00 0.  1.
         14    1    4    4    0    0 -0.47993795753E+02 -0.38210934053E+01 -0.22517835733E+03  0.23026788268E+03  0.00000000000E+00 0. -1.
         -5    1    5    5    0  502 -0.49771018057E+02  0.24051978727E+02  0.61827179679E+02  0.83068297600E+02  0.47000000000E+01 0.  1.
         11    1    6    6    0    0  0.44899636422E+01 -0.43881058033E+02  0.43824637843E+02  0.62179626162E+02  0.00000000000E+00 0. -1.
        -12    1    6    6    0    0  0.50319660009E+02 -0.81953240828E+01 -0.12152324508E+02  0.52410977010E+02  0.00000000000E+00 0.  1.
</event>
<event>
12    1  0.1627564E-001  0.2013234E+03  0.7818608E-02  0.1149072E+00
         21   -1    0    0  501  502  0.00000000000E+00  0.00000000000E+00  0.11714929650E+04  0.11714929650E+04  0.00000000000E+00 0. -1.
         21   -1    0    0  502  503 -0.00000000000E+00 -0.00000000000E+00 -0.76720485521E+02  0.76720485521E+02  0.00000000000E+00 0. -1.
         -6    2    1    2    0  503  0.87992542651E+02 -0.49917491067E+02  0.84246813708E+02  0.21823984896E+03  0.17405936510E+03 0.  0.
        -24    2    3    3    0    0  0.54523593706E+02  0.24608809081E+02  0.12805918976E+01  0.10170734741E+03  0.82245539977E+02 0.  0.
          6    2    1    2  501    0 -0.87992542651E+02  0.49917491067E+02  0.10105256657E+04  0.10299736015E+04  0.17160727038E+03 0.  0.
         24    2    5    5    0    0 -0.79028719941E+02 -0.27753014571E+02  0.70739836097E+03  0.71689004965E+03  0.80642010024E+02 0.  0.
          5    1    5    5  501    0 -0.89638227105E+01  0.77670505637E+02  0.30312730476E+03  0.31308355187E+03  0.47000000000E+01 0. -1.
        -13    1    6    6    0    0 -0.35207699448E+02 -0.10417177544E+02  0.83518577084E+02  0.91232956801E+02  0.00000000000E+00 0.  1.
         14    1    6    6    0    0 -0.43821020492E+02 -0.17335837027E+02  0.62387978389E+03  0.62565709285E+03  0.00000000000E+00 0. -1.
         -5    1    3    3    0  503  0.33468948945E+02 -0.74526300148E+02  0.82966221810E+02  0.11653250156E+03  0.47000000000E+01 0.  1.
         11    1    4    4    0    0  0.50981900417E+02  0.83494055597E+01 -0.34585221533E+02  0.62169158687E+02  0.00000000000E+00 0. -1.
        -12    1    4    4    0    0  0.35416932884E+01  0.16259403521E+02  0.35865813431E+02  0.39538188720E+02  0.00000000000E+00 0.  1.
</event>
<event>
12    1  0.1627564E-001  0.3043049E+03  0.7818608E-02  0.1083308E+00
         21   -1    0    0  503  502  0.00000000000E+00  0.00000000000E+00  0.11988947725E+04  0.11988947725E+04  0.00000000000E+00 0.  1.
         21   -1    0    0  501  503 -0.00000000000E+00 -0.00000000000E+00 -0.76852031529E+02  0.76852031529E+02  0.00000000000E+00 0. -1.
          6    2    1    2  501    0 -0.19222400467E+03 -0.16151884674E+03  0.55095746385E+03  0.62940894973E+03  0.17193921369E+03 0.  0.
         24    2    3    3    0    0 -0.45633284800E+02 -0.10830115661E+02  0.14733467482E+03  0.17429426237E+03  0.80444362166E+02 0.  0.
         -6    2    1    2    0  502  0.19222400467E+03  0.16151884674E+03  0.57108527711E+03  0.64633785428E+03  0.16904384735E+03 0.  0.
        -24    2    5    5    0    0  0.14297612309E+03  0.12225190590E+03  0.27046352446E+03  0.33915260944E+03  0.80537408452E+02 0.  0.
          5    1    3    3  501    0 -0.14659071987E+03 -0.15068873108E+03  0.40362278903E+03  0.45511468736E+03  0.47000000000E+01 0. -1.
        -11    1    4    4    0    0 -0.47528404600E+02  0.27385147046E+02  0.87419854282E+02  0.10320429470E+03  0.00000000000E+00 0.  1.
         12    1    4    4    0    0  0.18951198000E+01 -0.38215262707E+02  0.59914820539E+02  0.71089967669E+02  0.00000000000E+00 0. -1.
         -5    1    5    5    0  502  0.49247881584E+02  0.39266940846E+02  0.30062175265E+03  0.30718524484E+03  0.47000000000E+01 0.  1.
         11    1    6    6    0    0  0.44763677948E+02  0.76025964293E+02  0.76004799393E+02  0.11644940378E+03  0.00000000000E+00 0. -1.
        -12    1    6    6    0    0  0.98212445138E+02  0.46225941603E+02  0.19445872507E+03  0.22270320566E+03  0.00000000000E+00 0.  1.
</event>
<event>
12    1  0.1627564E-001  0.3397039E+03  0.7818608E-02  0.1066979E+00
         21   -1    0    0  503  502  0.00000000000E+00  0.00000000000E+00  0.27736419027E+03  0.27736419027E+03  0.00000000000E+00 0.  1.
         21   -1    0    0  501  503 -0.00000000000E+00 -0.00000000000E+00 -0.41881060829E+03  0.41881060829E+03  0.00000000000E+00 0. -1.
          6    2    1    2  501    0 -0.21962385586E+02 -0.29200597899E+03 -0.10220156228E+03  0.35474481935E+03  0.17218852858E+03 0.  0.
         24    2    3    3    0    0 -0.56671906738E+02 -0.25340230145E+03 -0.44326268034E+02  0.27685621644E+03  0.85206309336E+02 0.  0.
         -6    2    1    2    0  502  0.21962385586E+02  0.29200597899E+03 -0.39244855733E+02  0.34142997921E+03  0.17112695245E+03 0.  0.
        -24    2    5    5    0    0  0.17624847471E+02  0.12685598065E+03 -0.77025273481E+02  0.17189300344E+03  0.84919001409E+02 0.  0.
          5    1    3    3  501    0  0.34709521152E+02 -0.38603677542E+02 -0.57875294249E+02  0.77888602907E+02  0.47000000000E+01 0. -1.
        -11    1    4    4    0    0 -0.40665079672E+02 -0.34878527692E+02 -0.16072394060E+02  0.55932836952E+02  0.00000000000E+00 0.  1.
         12    1    4    4    0    0 -0.16006827066E+02 -0.21852377376E+03 -0.28253873975E+02  0.22092337949E+03  0.00000000000E+00 0. -1.
         -5    1    5    5    0  502  0.43375381147E+01  0.16514999834E+03  0.37780417748E+02  0.16953697577E+03  0.47000000000E+01 0.  1.
         11    1    6    6    0    0 -0.17923551652E+02  0.11447441665E+03 -0.61445509852E+02  0.13115333184E+03  0.00000000000E+00 0. -1.
        -12    1    6    6    0    0  0.35548399124E+02  0.12381564004E+02 -0.15579763629E+02  0.40739671601E+02  0.00000000000E+00 0.  1.
</event>
<event>
12    1  0.1627564E-001  0.2344549E+03  0.7818608E-02  0.1124143E+00
         21   -1    0    0  501  502  0.00000000000E+00  0.00000000000E+00  0.93092240108E+03  0.93092240108E+03  0.00000000000E+00 0. -1.
         21   -1    0    0  502  503 -0.00000000000E+00 -0.00000000000E+00 -0.81657266585E+02  0.81657266585E+02  0.00000000000E+00 0.  1.
         -6    2    1    2    0  503  0.15422442648E+03 -0.19824612908E+02  0.15090362491E+03  0.27591292039E+03  0.17081524120E+03 0.  0.
        -24    2    3    3    0    0  0.12831244909E+03  0.48309862866E+02  0.87551526846E+02  0.17922106091E+03  0.75212973464E+02 0.  0.
          6    2    1    2  501    0 -0.15422442648E+03  0.19824612908E+02  0.69836150959E+03  0.73666674727E+03  0.17547338678E+03 0.  0.
         24    2    5    5    0    0 -0.10094603327E+02 -0.12124813778E+02  0.15970934831E+03  0.17813079263E+03  0.77295479935E+02 0.  0.
          5    1    5    5  501    0 -0.14412982316E+03  0.31949426686E+02  0.53865216127E+03  0.55853595465E+03  0.47000000000E+01 0. -1.
        -13    1    6    6    0    0  0.21140618619E+02  0.22299217604E+02  0.82154373135E+02  0.87712723630E+02  0.00000000000E+00 0.  1.
         14    1    6    6    0    0 -0.31235221946E+02 -0.34424031382E+02  0.77554975177E+02  0.90418068998E+02  0.00000000000E+00 0. -1.
         -5    1    3    3    0  503  0.25911977391E+02 -0.68134475774E+02  0.63352098068E+02  0.96691859486E+02  0.47000000000E+01 0.  1.
         11    1    4    4    0    0 -0.44818468453E+01  0.10787578135E+02  0.25237877297E+02  0.27810236310E+02  0.00000000000E+00 0. -1.
        -12    1    4    4    0    0  0.13279429594E+03  0.37522284731E+02  0.62313649549E+02  0.15141082460E+03  0.00000000000E+00 0.  1.
</event>
<event>
12    1  0.1627564E-001  0.2123530E+03  0.7818608E-02  0.1139812E+00
         21   -1    0    0  503  502  0.00000000000E+00  0.00000000000E+00  0.14397997999E+04  0.14397997999E+04  0.00000000000E+00 0.  1.
         21   -1    0    0  501  503 -0.00000000000E+00 -0.00000000000E+00 -0.48263367642E+02  0.48263367642E+02  0.00000000000E+00 0.  1.
          6    2    1    2  501    0 -0.85657162598E+02  0.89857067466E+02  0.25345883934E+03  0.33034367476E+03  0.17168027882E+03 0.  0.
         24    2    3    3    0    0 -0.84070228003E+02  0.96983703483E+02  0.11024745019E+03  0.18686928929E+03  0.79322058912E+02 0.  0.
         -6    2    1    2    0  502  0.85657162598E+02 -0.89857067466E+02  0.11380775929E+04  0.11577194927E+04  0.17228573473E+03 0.  0.
        -24    2    5    5    0    0 -0.15293924320E+02 -0.16387407587E+02  0.33741016046E+03  0.34736195424E+03  0.79449730171E+02 0.  0.
          5    1    3    3  501    0 -0.15869345953E+01 -0.71266360168E+01  0.14321138915E+03  0.14347438547E+03  0.47000000000E+01 0. -1.
        -13    1    4    4    0    0 -0.17044534951E+01  0.30108801105E+02 -0.46116433055E+01  0.30507578070E+02  0.00000000000E+00 0.  1.
         14    1    4    4    0    0 -0.82365774507E+02  0.66874902377E+02  0.11485909349E+03  0.15636171122E+03  0.00000000000E+00 0. -1.
         -5    1    5    5    0  502  0.10095108692E+03 -0.73469659879E+02  0.80066743243E+03  0.81035753851E+03  0.47000000000E+01 0.  1.
         13    1    6    6    0    0 -0.75041073852E+01  0.31433968806E+02  0.17164729713E+03  0.17466310610E+03  0.00000000000E+00 0. -1.
        -14    1    6    6    0    0 -0.77898169345E+01 -0.47821376393E+02  0.16576286333E+03  0.17269884814E+03  0.00000000000E+00 0.  1.
</event>
<event>
12    1  0.1627564E-001  0.1937017E+03  0.7818608E-02  0.1157847E+00
         21   -1    0    0  501  502  0.00000000000E+00  0.00000000000E+00  0.30388294664E+03  0.30388294664E+03  0.00000000000E+00 0.  1.
         21   -1    0    0  502  503 -0.00000000000E+00 -0.00000000000E+00 -0.15332156576E+03  0.15332156576E+03  0.00000000000E+00 0.  1.
         -6    2    1    2    0  503 -0.85652318365E+02  0.18193003196E+02 -0.35577688628E+02  0.19694191827E+03  0.17278032943E+03 0.  0.
        -24    2    3    3    0    0 -0.75100962490E+02  0.69303858392E+02 -0.62796829169E+02  0.13789429138E+03  0.68030981815E+02 0.  0.
          6    2    1    2  501    0  0.85652318365E+02 -0.18193003196E+02  0.18613906951E+03  0.26026259413E+03  0.15944139896E+03 0.  0.
         24    2    5    5    0    0 -0.10468372938E+02 -0.20904781985E+01  0.10888426816E+03  0.13580829353E+03  0.80462114112E+02 0.  0.
          5    1    5    5  501    0  0.96120691304E+02 -0.16102524998E+02  0.77254801342E+02  0.12445430060E+03  0.47000000000E+01 0. -1.
        -13    1    6    6    0    0 -0.13095454230E+01  0.26902470968E+02  0.47805727797E+01  0.27355287048E+02  0.00000000000E+00 0.  1.
         14    1    6    6    0    0 -0.91588275154E+01 -0.28992949166E+02  0.10410369538E+03  0.10845300648E+03  0.00000000000E+00 0. -1.
         -5    1    3    3    0  503 -0.10551355875E+02 -0.51110855196E+02  0.27219140541E+02  0.59047626891E+02  0.47000000000E+01 0.  1.
         13    1    4    4    0    0  0.84050244666E+01  0.28711173562E+02 -0.15260578864E+02  0.33583644693E+02  0.00000000000E+00 0. -1.
        -14    1    4    4    0    0 -0.83505986957E+02  0.40592684831E+02 -0.47536250305E+02  0.10431064669E+03  0.00000000000E+00 0.  1.
</event>
<event>
12    1  0.1627564E-001  0.1854193E+03  0.7818608E-02  0.1165148E+00
         21   -1    0    0  501  502  0.00000000000E+00  0.00000000000E+00  0.47580628587E+02  0.47580628587E+02  0.00000000000E+00 0. -1.
         21   -1    0    0  502  503 -0.00000000000E+00 -0.00000000000E+00 -0.11180837279E+04  0.11180837279E+04  0.00000000000E+00 0. -1.
         -6    2    1    2    0  503 -0.19298415502E+02 -0.58971381428E+02 -0.88944720611E+03  0.90650887513E+03  0.16368248400E+03 0.  0.
        -24    2    3    3    0    0 -0.33030345058E+02 -0.32547192466E+02 -0.25038421852E+03  0.26673516845E+03  0.79404469477E+02 0.  0.
          6    2    1    2  501    0  0.19298415502E+02  0.58971381428E+02 -0.18105589320E+03  0.25915548135E+03  0.17472914578E+03 0.  0.
         24    2    5    5    0    0  0.29514373937E+02  0.68445974774E+02 -0.38617788522E+02  0.11596037882E+03  0.79997038279E+02 0.  0.
          5    1    5    5  501    0 -0.10215958435E+02 -0.94745933461E+01 -0.14243810468E+03  0.14319510253E+03  0.47000000000E+01 0. -1.
        -11    1    6    6    0    0  0.19870758644E+02 -0.18118543170E+01  0.16700544615E+02  0.26019954949E+02  0.00000000000E+00 0.  1.
         12    1    6    6    0    0  0.96436152934E+01  0.70257829091E+02 -0.55318333136E+02  0.89940423867E+02  0.00000000000E+00 0. -1.
         -5    1    3    3    0  503  0.13731929556E+02 -0.26424188961E+02 -0.63906298759E+03  0.63977370668E+03  0.47000000000E+01 0.  1.
         13    1    4    4    0    0 -0.87458817676E+01 -0.32238395588E+02 -0.29636987356E+02  0.44655969562E+02  0.00000000000E+00 0. -1.
        -14    1    4    4    0    0 -0.24284463291E+02 -0.30879687803E+00 -0.22074723116E+03  0.22207919889E+03  0.00000000000E+00 0.  1.
</event>
<event>
12    1  0.1627564E-001  0.1853253E+03  0.7818608E-02  0.1162759E+00
         21   -1    0    0  501  502  0.00000000000E+00  0.00000000000E+00  0.20757031535E+03  0.20757031535E+03  0.00000000000E+00 0. -1.
         21   -1    0    0  502  503 -0.00000000000E+00 -0.00000000000E+00 -0.90159589763E+03  0.90159589763E+03  0.00000000000E+00 0. -1.
         -6    2    1    2    0  503 -0.66516826183E+02 -0.21745106665E+02 -0.84815460835E+03  0.86816571496E+03  0.17160457782E+03 0.  0.
        -24    2    3    3    0    0 -0.86014562009E-01 -0.46771020876E+02 -0.66993070679E+03  0.67626678791E+03  0.79637181865E+02 0.  0.
          6    2    1    2  501    0  0.66516826183E+02  0.21745106665E+02  0.15412902607E+03  0.24100049803E+03  0.17154633644E+03 0.  0.
         24    2    5    5    0    0  0.11528723938E+02  0.72020458743E+02  0.79460959088E+02  0.13541303362E+03  0.81870554539E+02 0.  0.
          5    1    5    5  501    0  0.54988102245E+02 -0.50275352078E+02  0.74668066983E+02  0.10558746442E+03  0.47000000000E+01 0. -1.
        -13    1    6    6    0    0  0.25116572792E+02  0.62092044878E+02  0.14796243727E+02  0.68594410081E+02  0.00000000000E+00 0.  1.
         14    1    6    6    0    0 -0.13587848854E+02  0.99284138644E+01  0.64664715360E+02  0.66818623534E+02  0.00000000000E+00 0. -1.
         -5    1    3    3    0  503 -0.66430811621E+02  0.25025914212E+02 -0.17822390156E+03  0.19189892705E+03  0.47000000000E+01 0.  1.
         13    1    4    4    0    0 -0.29973746704E+02 -0.42720985165E+02 -0.55486739929E+03  0.55731619289E+03  0.00000000000E+00 0. -1.
        -14    1    4    4    0    0  0.29887732142E+02 -0.40500357110E+01 -0.11506330750E+03  0.11895059502E+03  0.00000000000E+00 0.  1.
</event>
<event>
12    1  0.1627564E-001  0.2671370E+03  0.7818608E-02  0.1103184E+00
         21   -1    0    0  503  502  0.00000000000E+00  0.00000000000E+00  0.54747523261E+03  0.54747523261E+03  0.00000000000E+00 0.  1.
         21   -1    0    0  501  503 -0.00000000000E+00 -0.00000000000E+00 -0.15300803586E+03  0.15300803586E+03  0.00000000000E+00 0.  1.
          6    2    1    2  501    0  0.18403044550E+02 -0.20282809166E+03  0.60483913069E+02  0.27389864111E+03  0.17287063096E+03 0.  0.
         24    2    3    3    0    0  0.32979339257E+02 -0.17603374588E+03 -0.10408334076E+02  0.19657978159E+03  0.80372635908E+02 0.  0.
         -6    2    1    2    0  502 -0.18403044550E+02  0.20282809166E+03  0.33398328369E+03  0.42658462736E+03  0.17015200176E+03 0.  0.
        -24    2    5    5    0    0  0.45744105200E+02  0.61925106988E+02  0.13004624542E+03  0.17049692073E+03  0.78929918245E+02 0.  0.
          5    1    3    3  501    0 -0.14576294708E+02 -0.26794345775E+02  0.70892247145E+02  0.77318859524E+02  0.47000000000E+01 0. -1.
        -13    1    4    4    0    0 -0.24428809355E+02 -0.58016085990E+02 -0.16903441309E+02  0.65179439152E+02  0.00000000000E+00 0.  1.
         14    1    4    4    0    0  0.57408148613E+02 -0.11801765989E+03  0.64951072329E+01  0.13140034243E+03  0.00000000000E+00 0. -1.
         -5    1    5    5    0  502 -0.64147149750E+02  0.14090298467E+03  0.20393703827E+03  0.25608770663E+03  0.47000000000E+01 0.  1.
         11    1    6    6    0    0  0.45075032502E+02  0.79204364481E+02  0.96341557735E+02  0.13261517882E+03  0.00000000000E+00 0. -1.
        -12    1    6    6    0    0  0.66907269774E+00 -0.17279257492E+02  0.33704687686E+02  0.37881741905E+02  0.00000000000E+00 0.  1.
</event>
<event>
12    1  0.1627564E-001  0.2184158E+03  0.7818608E-02  0.1135967E+00
         21   -1    0    0  501  502  0.00000000000E+00  0.00000000000E+00  0.18088283899E+03  0.18088283899E+03  0.00000000000E+00 0. -1.
         21   -1    0    0  502  503 -0.00000000000E+00 -0.00000000000E+00 -0.54345117446E+03  0.54345117446E+03  0.00000000000E+00 0. -1.
         -6    2    1    2    0  503  0.55904235999E+02  0.12269818900E+03 -0.44465979868E+03  0.49540670434E+03  0.17182938328E+03 0.  0.
        -24    2    3    3    0    0  0.49604512454E+02  0.56439448370E+02 -0.40053280043E+03  0.41541177200E+03  0.80587822319E+02 0.  0.
          6    2    1    2  501    0 -0.55904235999E+02 -0.12269818900E+03  0.82091463207E+02  0.22892730911E+03  0.16579678929E+03 0.  0.
         24    2    5    5    0    0 -0.19438823322E+02 -0.11581402784E+03  0.11201616311E+03  0.18102432736E+03  0.80196193182E+02 0.  0.
          5    1    5    5  501    0 -0.36465412678E+02 -0.68841611551E+01 -0.29924699899E+02  0.47902981751E+02  0.47000000000E+01 0. -1.
        -13    1    6    6    0    0  0.21652825426E+02 -0.88941614232E+02  0.59750368906E+02  0.10931405296E+03  0.00000000000E+00 0.  1.
         14    1    6    6    0    0 -0.41091648747E+02 -0.26872413608E+02  0.52265794200E+02  0.71710274391E+02  0.00000000000E+00 0. -1.
         -5    1    3    3    0  503  0.62997235451E+01  0.66258740625E+02 -0.44126998250E+02  0.79994932342E+02  0.47000000000E+01 0.  1.
         11    1    4    4    0    0  0.34929522024E+02  0.39168658904E+02 -0.90988082638E+02  0.10503850023E+03  0.00000000000E+00 0. -1.
        -12    1    4    4    0    0  0.14674990431E+02  0.17270789466E+02 -0.30954471779E+03  0.31037327176E+03  0.00000000000E+00 0.  1.
</event>
<event>
12    1  0.1627564E-001  0.2193254E+03  0.7818608E-02  0.1134391E+00
         21   -1    0    0  501  502  0.00000000000E+00  0.00000000000E+00  0.32509322189E+03  0.32509322189E+03  0.00000000000E+00 0. -1.
         21   -1    0    0  502  503 -0.00000000000E+00 -0.00000000000E+00 -0.27917898274E+03  0.27917898274E+03  0.00000000000E+00 0.  1.
         -6    2    1    2    0  503 -0.12404726452E+03  0.54890714357E+02 -0.18418650375E+03  0.28638863612E+03  0.17231676755E+03 0.  0.
        -24    2    3    3    0    0 -0.86842366523E+02  0.10496373685E+03 -0.13545985084E+03  0.20709242738E+03  0.77323473865E+02 0.  0.
          6    2    1    2  501    0  0.12404726452E+03 -0.54890714357E+02  0.23010074290E+03  0.31788356851E+03  0.17234528391E+03 0.  0.
         24    2    5    5    0    0  0.15545334848E+03 -0.58207392914E+02  0.21696103368E+03  0.28335699288E+03  0.75267862576E+02 0.  0.
          5    1    5    5  501    0 -0.31406083954E+02  0.33166785563E+01  0.13139709220E+02  0.34526575625E+02  0.47000000000E+01 0. -1.
        -13    1    6    6    0    0  0.75040313487E+02 -0.13750758516E+02  0.45499557129E+02  0.88827595414E+02  0.00000000000E+00 0.  1.
         14    1    6    6    0    0  0.80413034991E+02 -0.44456634397E+02  0.17146147655E+03  0.19452939747E+03  0.00000000000E+00 0. -1.
         -5    1    3    3    0  503 -0.37204898001E+02 -0.50073022496E+02 -0.48726652906E+02  0.79296208740E+02  0.47000000000E+01 0.  1.
         11    1    4    4    0    0  0.30125328938E+01  0.26710540298E+02 -0.60811014404E+02  0.66486899389E+02  0.00000000000E+00 0. -1.
        -12    1    4    4    0    0 -0.89854899416E+02  0.78253196555E+02 -0.74648836440E+02  0.14060552799E+03  0.00000000000E+00 0.  1.
</event>
<event>
12    1  0.1627564E-001  0.3536168E+03  0.7818608E-02  0.1062361E+00
         21   -1    0    0  501  502  0.00000000000E+00  0.00000000000E+00  0.19179227034E+03  0.19179227034E+03  0.00000000000E+00 0. -1.
         21   -1    0    0  502  503 -0.00000000000E+00 -0.00000000000E+00 -0.90334662396E+03  0.90334662396E+03  0.00000000000E+00 0.  1.
         -6    2    1    2    0  503  0.92011716919E+02 -0.28101913215E+03 -0.65254407060E+03  0.73663221466E+03  0.17139237703E+03 0.  0.
        -24    2    3    3    0    0  0.39435985069E+02 -0.23220872598E+03 -0.37536967557E+03  0.45028557404E+03  0.79866235108E+02 0.  0.
          6    2    1    2  501    0 -0.92011716919E+02  0.28101913215E+03 -0.59010283016E+02  0.35850667965E+03  0.19392502975E+03 0.  0.
         24    2    5    5    0    0 -0.10083049401E+03  0.13271675915E+03 -0.84675677308E+02  0.20766846456E+03  0.90419545245E+02 0.  0.
          5    1    5    5  501    0  0.88187770911E+01  0.14830237300E+03  0.25665394292E+02  0.15083821509E+03  0.47000000000E+01 0. -1.
        -13    1    6    6    0    0 -0.95180112362E+02  0.52899668901E+02 -0.39878116918E+02  0.11596505063E+03  0.00000000000E+00 0.  1.
         14    1    6    6    0    0 -0.56503816486E+01  0.79817090253E+02 -0.44797560390E+02  0.91703413929E+02  0.00000000000E+00 0. -1.
         -5    1    3    3    0  503  0.52575731850E+02 -0.48810406170E+02 -0.27717439504E+03  0.28634664062E+03  0.47000000000E+01 0.  1.
         11    1    4    4    0    0 -0.22052088460E+02 -0.50473261969E+02 -0.10759760789E+03  0.12087634178E+03  0.00000000000E+00 0. -1.
        -12    1    4    4    0    0  0.61488073529E+02 -0.18173546401E+03 -0.26777206768E+03  0.32940923225E+03  0.00000000000E+00 0.  1.
</event>
<event>
12    1  0.1627564E-001  0.1774336E+03  0.7818608E-02  0.1171136E+00
         21   -1    0    0  501  502  0.00000000000E+00  0.00000000000E+00  0.13972971545E+03  0.13972971545E+03  0.00000000000E+00 0.  1.
         21   -1    0    0  502  503 -0.00000000000E+00 -0.00000000000E+00 -0.27320285693E+03  0.27320285693E+03  0.00000000000E+00 0. -1.
         -6    2    1    2    0  503 -0.14336278234E+02 -0.38013731966E+02  0.22899318109E+02  0.17890512652E+03  0.17271969440E+03 0.  0.
        -24    2    3    3    0    0  0.41835275813E+02 -0.20502211550E+02 -0.31209805346E+02  0.98831509943E+02  0.81382334858E+02 0.  0.
          6    2    1    2  501    0  0.14336278234E+02  0.38013731966E+02 -0.15637245958E+03  0.23402744586E+03  0.16931014916E+03 0.  0.
         24    2    5    5    0    0  0.72644489658E+01  0.59121157763E+02 -0.17724279998E+03  0.20315358472E+03  0.79424714827E+02 0.  0.
          5    1    5    5  501    0  0.70718292679E+01 -0.21107425797E+02  0.20870340401E+02  0.30873861135E+02  0.47000000000E+01 0. -1.
        -13    1    6    6    0    0 -0.24554522586E+02 -0.67314562866E+01 -0.35931458771E+02  0.44037561383E+02  0.00000000000E+00 0.  1.
         14    1    6    6    0    0  0.31818971552E+02  0.65852614049E+02 -0.14131134121E+03  0.15911602334E+03  0.00000000000E+00 0. -1.
         -5    1    3    3    0  503 -0.56171554046E+02 -0.17511520416E+02  0.54109123456E+02  0.80073616581E+02  0.47000000000E+01 0.  1.
         13    1    4    4    0    0 -0.15634557142E+01 -0.42566779131E+02 -0.25913389136E+02  0.49858588186E+02  0.00000000000E+00 0. -1.
        -14    1    4    4    0    0  0.43398731527E+02  0.22064567581E+02 -0.52964162096E+01  0.48972921756E+02  0.00000000000E+00 0.  1.
</event>
<event>
12    1  0.1627564E-001  0.1906801E+03  0.7818608E-02  0.1158193E+00
         21   -1    0    0  501  502  0.00000000000E+00  0.00000000000E+00  0.18816791678E+03  0.18816791678E+03  0.00000000000E+00 0.  1.
         21   -1    0    0  502  503 -0.00000000000E+00 -0.00000000000E+00 -0.25633333617E+03  0.25633333617E+03  0.00000000000E+00 0.  1.
         -6    2    1    2    0  503 -0.79350324227E+01 -0.79610527171E+02 -0.14579852054E+03  0.24003354745E+03  0.17308406783E+03 0.  0.
        -24    2    3    3    0    0 -0.27038054583E+02 -0.15105297224E+00 -0.18169719042E+02  0.88409227284E+02  0.82188646213E+02 0.  0.
          6    2    1    2  501    0  0.79350324227E+01  0.79610527171E+02  0.77633101147E+02  0.20446770550E+03  0.17140403560E+03 0.  0.
         24    2    5    5    0    0  0.43635045553E+02 -0.10729118530E+02  0.33441846068E+02  0.97646829500E+02  0.79983842482E+02 0.  0.
          5    1    5    5  501    0 -0.35700013130E+02  0.90339645702E+02  0.44191255079E+02  0.10682087600E+03  0.47000000000E+01 0. -1.
        -13    1    6    6    0    0  0.39133055958E+02 -0.14063690112E+02  0.58609715595E+02  0.71862940452E+02  0.00000000000E+00 0.  1.
         14    1    6    6    0    0  0.45019895945E+01  0.33345715819E+01 -0.25167869527E+02  0.25783889049E+02  0.00000000000E+00 0. -1.
         -5    1    3    3    0  503  0.19103022160E+02 -0.79459474199E+02 -0.12762880150E+03  0.15162432017E+03  0.47000000000E+01 0.  1.
         13    1    4    4    0    0 -0.42335494858E+02  0.48843181103E+01 -0.41877675757E+02  0.59748559942E+02  0.00000000000E+00 0. -1.
        -14    1    4    4    0    0  0.15297440275E+02 -0.50353710826E+01  0.23707956715E+02  0.28660667342E+02  0.00000000000E+00 0.  1.
</event>
<event>
12    1  0.1627564E-001  0.2406058E+03  0.7818608E-02  0.1119710E+00
         21   -1    0    0  501  502  0.00000000000E+00  0.00000000000E+00  0.35520294656E+03  0.35520294656E+03  0.00000000000E+00 0. -1.
         21   -1    0    0  502  503 -0.00000000000E+00 -0.00000000000E+00 -0.21338114945E+03  0.21338114945E+03  0.00000000000E+00 0.  1.
         -6    2    1    2    0  503  0.36324514823E+02 -0.16667981042E+03  0.21063013582E+03  0.31833273828E+03  0.16694025448E+03 0.  0.
        -24    2    3    3    0    0 -0.37291618546E+02 -0.11468389056E+03  0.15629123678E+03  0.21298703726E+03  0.79959163196E+02 0.  0.
          6    2    1    2  501    0 -0.36324514823E+02  0.16667981042E+03 -0.68808338712E+02  0.25025135772E+03  0.16967476237E+03 0.  0.
         24    2    5    5    0    0  0.22460134326E+02  0.85831485376E+02 -0.88072587227E+02  0.14834312494E+03  0.79858628709E+02 0.  0.
          5    1    5    5  501    0 -0.58784649149E+02  0.80848325046E+02  0.19264248515E+02  0.10190823278E+03  0.47000000000E+01 0. -1.
        -13    1    6    6    0    0  0.51044323364E+02  0.38182117225E+02 -0.49369513536E+02  0.80627203166E+02  0.00000000000E+00 0.  1.
         14    1    6    6    0    0 -0.28584189039E+02  0.47649368151E+02 -0.38703073691E+02  0.67715921771E+02  0.00000000000E+00 0. -1.
         -5    1    3    3    0  503  0.73616133369E+02 -0.51995919865E+02  0.54338899042E+02  0.10534570102E+03  0.47000000000E+01 0.  1.
         13    1    4    4    0    0 -0.12291908043E+02 -0.69224172842E+02  0.29972233324E+02  0.76429129783E+02  0.00000000000E+00 0. -1.
        -14    1    4    4    0    0 -0.24999710503E+02 -0.45459717716E+02  0.12631900346E+03  0.13655790748E+03  0.00000000000E+00 0.  1.
</event>
<event>
12    1  0.1627564E-001  0.2113390E+03  0.7818608E-02  0.1140543E+00
         21   -1    0    0  503  502  0.00000000000E+00  0.00000000000E+00  0.11109464063E+04  0.11109464063E+04  0.00000000000E+00 0.  1.
         21   -1    0    0  501  503 -0.00000000000E+00 -0.00000000000E+00 -0.40571767070E+02  0.40571767070E+02  0.00000000000E+00 0.  1.
          6    2    1    2  501    0 -0.12256335518E+03  0.11380059259E+02  0.59212165172E+03  0.62865100690E+03  0.17158891646E+03 0.  0.
         24    2    3    3    0    0 -0.12151520923E+03 -0.57199132106E+00  0.27875525834E+03  0.31501979572E+03  0.82259980503E+02 0.  0.
         -6    2    1    2    0  502  0.12256335518E+03 -0.11380059259E+02  0.47825298746E+03  0.52286716643E+03  0.17179310793E+03 0.  0.
        -24    2    5    5    0    0  0.35059416667E+01 -0.38776760110E+02  0.17856259079E+03  0.19919809038E+03  0.79242360087E+02 0.  0.
          5    1    3    3  501    0 -0.10481459407E+01  0.11952050580E+02  0.31336639339E+03  0.31363121118E+03  0.47000000000E+01 0. -1.
        -11    1    4    4    0    0 -0.13692030498E+02  0.21245970198E+02  0.15365524895E+02  0.29579761731E+02  0.00000000000E+00 0.  1.
         12    1    4    4    0    0 -0.10782317874E+03 -0.21817961519E+02  0.26338973344E+03  0.28544003398E+03  0.00000000000E+00 0. -1.
         -5    1    5    5    0  502  0.11905741351E+03  0.27396700850E+02  0.29969039668E+03  0.32366907605E+03  0.47000000000E+01 0.  1.
         13    1    6    6    0    0 -0.31839606394E+01 -0.33206537748E+02  0.17072896479E+02  0.37473931589E+02  0.00000000000E+00 0. -1.
        -14    1    6    6    0    0  0.66899023060E+01 -0.55702223616E+01  0.16148969431E+03  0.16172415879E+03  0.00000000000E+00 0.  1.
</event>
<event>
12    1  0.1627564E-001  0.4770723E+03  0.7818608E-02  0.1019955E+00
         21   -1    0    0  503  502  0.00000000000E+00  0.00000000000E+00  0.78719470273E+03  0.78719470273E+03  0.00000000000E+00 0.  1.
         21   -1    0    0  501  503 -0.00000000000E+00 -0.00000000000E+00 -0.64463855941E+03  0.64463855941E+03  0.00000000000E+00 0. -1.
          6    2    1    2  501    0  0.40048446572E+02  0.44303213731E+03 -0.46045523735E+03  0.66303616704E+03  0.17238497742E+03 0.  0.
         24    2    3    3    0    0  0.63161796009E+02  0.16098953227E+03 -0.22512807640E+03  0.29495571298E+03  0.80057353569E+02 0.  0.
         -6    2    1    2    0  502 -0.40048446572E+02 -0.44303213731E+03  0.60301138066E+03  0.76879709510E+03  0.17188628642E+03 0.  0.
        -24    2    5    5    0    0  0.44124925982E+02 -0.26029748238E+03  0.34178997859E+03  0.43904594398E+03  0.78988372807E+02 0.  0.
          5    1    3    3  501    0 -0.23113349438E+02  0.28204260504E+03 -0.23532716094E+03  0.36808045406E+03  0.47000000000E+01 0. -1.
        -13    1    4    4    0    0  0.62674137325E+01  0.23394755507E+02  0.96541759964E+00  0.24238958131E+02  0.00000000000E+00 0.  1.
         14    1    4    4    0    0  0.56894382277E+02  0.13759477676E+03 -0.22609349400E+03  0.27071675485E+03  0.00000000000E+00 0. -1.
         -5    1    5    5    0  502 -0.84173372554E+02 -0.18273465494E+03  0.26122140207E+03  0.32975115111E+03  0.47000000000E+01 0.  1.
         13    1    6    6    0    0  0.23634520478E+02 -0.19570959670E+03  0.19457057525E+03  0.27698112851E+03  0.00000000000E+00 0. -1.
        -14    1    6    6    0    0  0.20490405504E+02 -0.64587885680E+02  0.14721940335E+03  0.16206481548E+03  0.00000000000E+00 0.  1.
</event>
<event>
12    1  0.1627564E-001  0.1792121E+03  0.7818608E-02  0.1169003E+00
         21   -1    0    0  501  502  0.00000000000E+00  0.00000000000E+00  0.10958908581E+04  0.10958908581E+04  0.00000000000E+00 0.  1.
         21   -1    0    0  502  503 -0.00000000000E+00 -0.00000000000E+00 -0.29138996347E+02  0.29138996347E+02  0.00000000000E+00 0.  1.
         -6    2    1    2    0  503  0.40387322103E+02  0.33926196484E+02  0.49420737102E+03  0.52509305376E+03  0.16940976047E+03 0.  0.
        -24    2    3    3    0    0 -0.43115601866E+02  0.97615112428E+01  0.23475937327E+03  0.25142898257E+03  0.78424025099E+02 0.  0.
          6    2    1    2  501    0 -0.40387322103E+02 -0.33926196484E+02  0.57254449074E+03  0.59993680070E+03  0.17127419057E+03 0.  0.
         24    2    5    5    0    0 -0.59037871653E+02 -0.45483083725E+02  0.56665978275E+03  0.57673929158E+03  0.77270433310E+02 0.  0.
          5    1    5    5  501    0  0.18650549550E+02  0.11556887241E+02  0.58847079897E+01  0.23197509119E+02  0.47000000000E+01 0. -1.
        -13    1    6    6    0    0 -0.82414603639E+01  0.17621159283E+01  0.33035154991E+03  0.33045903415E+03  0.00000000000E+00 0.  1.
         14    1    6    6    0    0 -0.50796411289E+02 -0.47245199653E+02  0.23630823285E+03  0.24628025743E+03  0.00000000000E+00 0. -1.
         -5    1    3    3    0  503  0.83502923969E+02  0.24164685241E+02  0.25944799775E+03  0.27366407119E+03  0.47000000000E+01 0.  1.
         13    1    4    4    0    0  0.78013038586E+01  0.32304697758E+02  0.10750809458E+03  0.11252752659E+03  0.00000000000E+00 0. -1.
        -14    1    4    4    0    0 -0.50916905725E+02 -0.22543186516E+02  0.12725127869E+03  0.13890145599E+03  0.00000000000E+00 0.  1.
</event>
<event>
12    1  0.1627564E-001  0.2199051E+03  0.7818608E-02  0.1133967E+00
         21   -1    0    0  501  502  0.00000000000E+00  0.00000000000E+00  0.28057608022E+03  0.28057608022E+03  0.00000000000E+00 0. -1.
         21   -1    0    0  502  503 -0.00000000000E+00 -0.00000000000E+00 -0.29877157869E+03  0.29877157869E+03  0.00000000000E+00 0. -1.
         -6    2    1    2    0  503  0.32597338171E+02 -0.13305055627E+03 -0.19756571534E+03  0.29556617527E+03  0.17193636936E+03 0.  0.
        -24    2    3    3    0    0  0.77319683696E+02 -0.65412693517E+02 -0.16165478378E+03  0.20675934179E+03  0.79749622825E+02 0.  0.
          6    2    1    2  501    0 -0.32597338171E+02  0.13305055627E+03  0.17937021686E+03  0.28378148364E+03  0.17202679669E+03 0.  0.
         24    2    5    5    0    0  0.37776874954E+02  0.11718021708E+03  0.11733758535E+03  0.18852113034E+03  0.81325347165E+02 0.  0.
          5    1    5    5  501    0 -0.70374213125E+02  0.15870339186E+02  0.62032631514E+02  0.95260353303E+02  0.47000000000E+01 0. -1.
        -11    1    6    6    0    0  0.59500698732E+02  0.52616736642E+02  0.62375324754E+02  0.10099274856E+03  0.00000000000E+00 0.  1.
         12    1    6    6    0    0 -0.21723823778E+02  0.64563480439E+02  0.54962260596E+02  0.87528381773E+02  0.00000000000E+00 0. -1.
         -5    1    3    3    0  503 -0.44722345525E+02 -0.67637862750E+02 -0.35910931563E+02  0.88806833478E+02  0.47000000000E+01 0.  1.
         11    1    4    4    0    0  0.42451968944E+02 -0.75824244653E+02 -0.13889378088E+03  0.16383823764E+03  0.00000000000E+00 0. -1.
        -12    1    4    4    0    0  0.34867714752E+02  0.10411551137E+02 -0.22761002894E+02  0.42921104155E+02  0.00000000000E+00 0.  1.
</event>
<event>
12    1  0.1627564E-001  0.1732363E+03  0.7818608E-02  0.1174860E+00
         21   -1    0    0  501  502  0.00000000000E+00  0.00000000000E+00  0.91208271553E+03  0.91208271553E+03  0.00000000000E+00 0.  1.
         21   -1    0    0  502  503 -0.00000000000E+00 -0.00000000000E+00 -0.37339349754E+02  0.37339349754E+02  0.00000000000E+00 0.  1.
         -6    2    1    2    0  503 -0.26558967822E+02  0.10969263203E+02  0.27059062245E+03  0.32129443669E+03  0.17083654933E+03 0.  0.
        -24    2    3    3    0    0  0.14417575843E+02 -0.41883985285E+02  0.21906505898E+03  0.23673962195E+03  0.78064164748E+02 0.  0.
          6    2    1    2  501    0  0.26558967822E+02 -0.10969263203E+02  0.60415274333E+03  0.62812762859E+03  0.16946408770E+03 0.  0.
         24    2    5    5    0    0 -0.47056435322E+02 -0.31234415266E+01  0.22160827904E+03  0.23845707331E+03  0.74347040814E+02 0.  0.
          5    1    5    5  501    0  0.73615403145E+02 -0.78458216766E+01  0.38254446429E+03  0.38967055528E+03  0.47000000000E+01 0. -1.
        -11    1    6    6    0    0 -0.18948772125E+02 -0.34680387995E+02  0.15174662587E+03  0.15680823875E+03  0.00000000000E+00 0.  1.
         12    1    6    6    0    0 -0.28107663197E+02  0.31556946469E+02  0.69861653177E+02  0.81648834562E+02  0.00000000000E+00 0. -1.
         -5    1    3    3    0  503 -0.40976543665E+02  0.52853248488E+02  0.51525563470E+02  0.84554814750E+02  0.47000000000E+01 0.  1.
         11    1    4    4    0    0  0.32855424296E+01 -0.52240173154E+02  0.72678530616E+02  0.89565614455E+02  0.00000000000E+00 0. -1.
        -12    1    4    4    0    0  0.11132033413E+02  0.10356187870E+02  0.14638652836E+03  0.14717400749E+03  0.00000000000E+00 0.  1.
</event>
<event>
12    1  0.1627564E-001  0.1835032E+03  0.7818608E-02  0.1166207E+00
         21   -1    0    0  501  502  0.00000000000E+00  0.00000000000E+00  0.29247282042E+03  0.29247282042E+03  0.00000000000E+00 0.  1.
         21   -1    0    0  502  503 -0.00000000000E+00 -0.00000000000E+00 -0.19444726597E+03  0.19444726597E+03  0.00000000000E+00 0. -1.
         -6    2    1    2    0  503  0.15333403939E+02  0.52693176196E+02 -0.11138455271E+03  0.20848517168E+03  0.16747496569E+03 0.  0.
        -24    2    3    3    0    0  0.55377118719E+01  0.37697129108E+02 -0.14480599982E+03  0.17027627038E+03  0.81077067496E+02 0.  0.
          6    2    1    2  501    0 -0.15333403939E+02 -0.52693176196E+02  0.20941010716E+03  0.27843491472E+03  0.17510489616E+03 0.  0.
         24    2    5    5    0    0  0.43601875914E+02 -0.36201357222E+02  0.57064045819E+02  0.11418888064E+03  0.81062527034E+02 0.  0.
          5    1    5    5  501    0 -0.58935279853E+02 -0.16491818973E+02  0.15234606134E+03  0.16424603408E+03  0.47000000000E+01 0. -1.
        -11    1    6    6    0    0 -0.15122499101E+02 -0.23879096447E+02  0.44759683294E+02  0.52937042558E+02  0.00000000000E+00 0.  1.
         12    1    6    6    0    0  0.58724375015E+02 -0.12322260776E+02  0.12304362525E+02  0.61251838084E+02  0.00000000000E+00 0. -1.
         -5    1    3    3    0  503  0.97956920670E+01  0.14996047088E+02  0.33421447111E+02  0.38208901297E+02  0.47000000000E+01 0.  1.
         11    1    4    4    0    0  0.28893825266E+02  0.23948264967E+01 -0.12878721888E+02  0.31724593140E+02  0.00000000000E+00 0. -1.
        -12    1    4    4    0    0 -0.23356113394E+02  0.35302302611E+02 -0.13192727793E+03  0.13855167724E+03  0.00000000000E+00 0.  1.
</event>
<event>
12    1  0.1627564E-001  0.4144830E+03  0.7818608E-02  0.1038958E+00
         21   -1    0    0  501  502  0.00000000000E+00  0.00000000000E+00  0.79672118703E+03  0.79672118703E+03  0.00000000000E+00 0. -1.
         21   -1    0    0  502  503 -0.00000000000E+00 -0.00000000000E+00 -0.36526254349E+03  0.36526254349E+03  0.00000000000E+00 0.  1.
         -6    2    1    2    0  503 -0.21925122414E+03  0.30571778632E+03 -0.15661324920E+03  0.44308450250E+03  0.17395891001E+03 0.  0.
        -24    2    3    3    0    0 -0.17893491403E+03  0.13372372960E+03 -0.70121157555E+02  0.24633508744E+03  0.76578451612E+02 0.  0.
          6    2    1    2  501    0  0.21925122414E+03 -0.30571778632E+03  0.58807189274E+03  0.71889922803E+03  0.17161901081E+03 0.  0.
         24    2    5    5    0    0  0.24039714249E+03 -0.29668564707E+03  0.55165482523E+03  0.67557461368E+03  0.79150825326E+02 0.  0.
          5    1    5    5  501    0 -0.21145918357E+02 -0.90321392520E+01  0.36417067510E+02  0.43324614351E+02  0.47000000000E+01 0. -1.
        -13    1    6    6    0    0  0.52916477614E+02 -0.11881259711E+03  0.15766279692E+03  0.20438724121E+03  0.00000000000E+00 0.  1.
         14    1    6    6    0    0  0.18748066488E+03 -0.17787304996E+03  0.39399202830E+03  0.47118737247E+03  0.00000000000E+00 0. -1.
         -5    1    3    3    0  503 -0.40316310110E+02  0.17199405672E+03 -0.86492091643E+02  0.19674941506E+03  0.47000000000E+01 0.  1.
         13    1    4    4    0    0 -0.43787189778E+02  0.16340349436E+02  0.13658932629E+02  0.48691800633E+02  0.00000000000E+00 0. -1.
        -14    1    4    4    0    0 -0.13514772425E+03  0.11738338016E+03 -0.83780090185E+02  0.19764328681E+03  0.00000000000E+00 0.  1.
</event>
<event>
12    1  0.1627564E-001  0.2308946E+03  0.7818608E-02  0.1126227E+00
         21   -1    0    0  503  502  0.00000000000E+00  0.00000000000E+00  0.39441992172E+03  0.39441992172E+03  0.00000000000E+00 0. -1.
         21   -1    0    0  501  503 -0.00000000000E+00 -0.00000000000E+00 -0.13984738414E+03  0.13984738414E+03  0.00000000000E+00 0.  1.
          6    2    1    2  501    0 -0.15943731454E+02 -0.15178408900E+03  0.74483060101E+02  0.24144565792E+03  0.17162653419E+03 0.  0.
         24    2    3    3    0    0  0.17766019873E+02 -0.17103558313E+03  0.69950739270E+02  0.20208070786E+03  0.79841746015E+02 0.  0.
         -6    2    1    2    0  502  0.15943731454E+02  0.15178408900E+03  0.18008947748E+03  0.29282164795E+03  0.17326189819E+03 0.  0.
        -24    2    5    5    0    0  0.51786655330E+02  0.35864509645E+02  0.11990449338E+03  0.15729900637E+03  0.79986055970E+02 0.  0.
          5    1    3    3  501    0 -0.33709751327E+02  0.19251494127E+02  0.45323208312E+01  0.39364950054E+02  0.47000000000E+01 0. -1.
        -11    1    4    4    0    0  0.28890411258E+02 -0.67735630902E+02 -0.52463813866E+01  0.73826120540E+02  0.00000000000E+00 0.  1.
         12    1    4    4    0    0 -0.11124391385E+02 -0.10329995223E+03  0.75197120656E+02  0.12825458732E+03  0.00000000000E+00 0. -1.
         -5    1    5    5    0  502 -0.35842923876E+02  0.11591957936E+03  0.60184984092E+02  0.13552264158E+03  0.47000000000E+01 0.  1.
         13    1    6    6    0    0  0.58672076882E+02  0.36108495381E+02  0.45468094762E+02  0.82544434613E+02  0.00000000000E+00 0. -1.
        -14    1    6    6    0    0 -0.68854215523E+01 -0.24398573630E+00  0.74436398622E+02  0.74754571758E+02  0.00000000000E+00 0.  1.
</event>
<event>
12    1  0.1627564E-001  0.1875569E+03  0.7818608E-02  0.1161052E+00
         21   -1    0    0  501  502  0.00000000000E+00  0.00000000000E+00  0.41236713861E+03  0.41236713861E+03  0.00000000000E+00 0. -1.
         21   -1    0    0  502  503 -0.00000000000E+00 -0.00000000000E+00 -0.86922893790E+02  0.86922893790E+02  0.00000000000E+00 0.  1.
         -6    2    1    2    0  503  0.65999164986E+02  0.23591424218E+02  0.12241732807E+03  0.22397226817E+03  0.17396876047E+03 0.  0.
        -24    2    3    3    0    0 -0.17793332220E+02  0.28467957550E+02  0.10256386117E+03  0.13759395310E+03  0.85356446934E+02 0.  0.
          6    2    1    2  501    0 -0.65999164986E+02 -0.23591424218E+02  0.20302691675E+03  0.27531776423E+03  0.17224255369E+03 0.  0.
         24    2    5    5    0    0 -0.25310460269E+02  0.38599112394E+02  0.50447531094E+02  0.10553616198E+03  0.80389161062E+02 0.  0.
          5    1    5    5  501    0 -0.40688704717E+02 -0.62190536611E+02  0.15257938565E+03  0.16978160225E+03  0.47000000000E+01 0. -1.
        -11    1    6    6    0    0 -0.50414695258E+02  0.72755963336E+01  0.37862101233E+02  0.63467428731E+02  0.00000000000E+00 0.  1.
         12    1    6    6    0    0  0.25104234989E+02  0.31323516060E+02  0.12585429862E+02  0.42068733253E+02  0.00000000000E+00 0. -1.
         -5    1    3    3    0  503  0.83792497206E+02 -0.48765333324E+01  0.19853466898E+02  0.86378315064E+02  0.47000000000E+01 0.  1.
         13    1    4    4    0    0 -0.41401144491E+02 -0.70022358008E+01  0.77544873381E+02  0.88183294671E+02  0.00000000000E+00 0. -1.
        -14    1    4    4    0    0  0.23607812271E+02  0.35470193351E+02  0.25018987794E+02  0.49410658433E+02  0.00000000000E+00 0.  1.
</event>
<event>
12    1  0.1627564E-001  0.2520744E+03  0.7818608E-02  0.1112119E+00
         21   -1    0    0  501  502  0.00000000000E+00  0.00000000000E+00  0.98960385597E+02  0.98960385597E+02  0.00000000000E+00 0. -1.
         21   -1    0    0  502  503 -0.00000000000E+00 -0.00000000000E+00 -0.73641018437E+03  0.73641018437E+03  0.00000000000E+00 0. -1.
         -6    2    1    2    0  503 -0.37764376476E+02 -0.18040504827E+03 -0.16731112282E+03  0.30191776506E+03  0.17084845761E+03 0.  0.
        -24    2    3    3    0    0 -0.57161361988E+02 -0.49137820293E+02 -0.11792428971E+03  0.16025451128E+03  0.78060384279E+02 0.  0.
          6    2    1    2  501    0  0.37764376476E+02  0.18040504827E+03 -0.47013867596E+03  0.53345280491E+03  0.17195752632E+03 0.  0.
         24    2    5    5    0    0  0.55913539918E+01  0.18047161198E+03 -0.45644426510E+03  0.49817200708E+03  0.85045373339E+02 0.  0.
          5    1    5    5  501    0  0.32173022484E+02 -0.66563709144E-01 -0.13694410860E+02  0.35280797826E+02  0.47000000000E+01 0. -1.
        -13    1    6    6    0    0  0.16044385223E+02  0.10858658494E+01 -0.16958601099E+02  0.23370826965E+02  0.00000000000E+00 0.  1.
         14    1    6    6    0    0 -0.10453031231E+02  0.17938574613E+03 -0.43948566400E+03  0.47480118012E+03  0.00000000000E+00 0. -1.
         -5    1    3    3    0  503  0.19396985512E+02 -0.13126722798E+03 -0.49386833107E+02  0.14166325378E+03  0.47000000000E+01 0.  1.
         11    1    4    4    0    0 -0.45799023748E+02 -0.99527611645E+00 -0.18885517946E+02  0.49550014520E+02  0.00000000000E+00 0. -1.
        -12    1    4    4    0    0 -0.11362338240E+02 -0.48142544177E+02 -0.99038771762E+02  0.11070449676E+03  0.00000000000E+00 0.  1.
</event>
<event>
12    1  0.1627564E-001  0.1723488E+03  0.7818608E-02  0.1175588E+00
         21   -1    0    0  501  502  0.00000000000E+00  0.00000000000E+00  0.27051135017E+03  0.27051135017E+03  0.00000000000E+00 0. -1.
         21   -1    0    0  502  503 -0.00000000000E+00 -0.00000000000E+00 -0.10246930547E+04  0.10246930547E+04  0.00000000000E+00 0. -1.
         -6    2    1    2    0  503 -0.59919227738E+01 -0.10511328670E+02 -0.98907376741E+03  0.10038654567E+04  0.17126747070E+03 0.  0.
        -24    2    3    3    0    0  0.34461952257E+02  0.87271919521E+01 -0.27580989321E+03  0.28918085425E+03  0.79313802319E+02 0.  0.
          6    2    1    2  501    0  0.59919227738E+01  0.10511328670E+02  0.23489206283E+03  0.29133894825E+03  0.17192355981E+03 0.  0.
         24    2    5    5    0    0 -0.50786259952E+02  0.28110741406E+02  0.78244119384E+02  0.12372579379E+03  0.76265797369E+02 0.  0.
          5    1    5    5  501    0  0.56778182725E+02 -0.17599412736E+02  0.15664794345E+03  0.16761315446E+03  0.47000000000E+01 0. -1.
        -11    1    6    6    0    0  0.15545895537E+02 -0.53557052984E+01  0.32645294066E+02  0.36552341539E+02  0.00000000000E+00 0.  1.
         12    1    6    6    0    0 -0.66332155489E+02  0.33466446704E+02  0.45598825318E+02  0.87173452250E+02  0.00000000000E+00 0. -1.
         -5    1    3    3    0  503 -0.40453875030E+02 -0.19238520622E+02 -0.71326387420E+03  0.71468460241E+03  0.47000000000E+01 0.  1.
         11    1    4    4    0    0 -0.24698328711E+02  0.11023842023E+02 -0.10385395563E+03  0.10731810953E+03  0.00000000000E+00 0. -1.
        -12    1    4    4    0    0  0.59160280968E+02 -0.22966500706E+01 -0.17195593758E+03  0.18186274472E+03  0.00000000000E+00 0.  1.
</event>
<event>
12    1  0.1627564E-001  0.1946436E+03  0.7818608E-02  0.1155594E+00
         21   -1    0    0  501  502  0.00000000000E+00  0.00000000000E+00  0.33242878967E+03  0.33242878967E+03  0.00000000000E+00 0. -1.
         21   -1    0    0  502  503 -0.00000000000E+00 -0.00000000000E+00 -0.27661244126E+03  0.27661244126E+03  0.00000000000E+00 0.  1.
         -6    2    1    2    0  503 -0.68962084386E+01 -0.89001292748E+02 -0.20810165556E+03  0.28111007774E+03  0.16657667591E+03 0.  0.
        -24    2    3    3    0    0  0.25865182053E+02 -0.33970787876E+02 -0.19640118024E+03  0.21583637479E+03  0.78669530396E+02 0.  0.
          6    2    1    2  501    0  0.68962084386E+01  0.89001292748E+02  0.26391800397E+03  0.32793115320E+03  0.17296629907E+03 0.  0.
         24    2    5    5    0    0  0.68720448326E+02  0.69738796847E+02  0.21197632817E+03  0.24478484798E+03  0.73482367216E+02 0.  0.
          5    1    5    5  501    0 -0.61824239887E+02  0.19262495901E+02  0.51941675799E+02  0.83146305214E+02  0.47000000000E+01 0. -1.
        -13    1    6    6    0    0  0.29916668768E+02 -0.10439020123E+02  0.39250586121E+02  0.50443916601E+02  0.00000000000E+00 0.  1.
         14    1    6    6    0    0  0.38803779559E+02  0.80177816970E+02  0.17272574205E+03  0.19434093138E+03  0.00000000000E+00 0. -1.
         -5    1    3    3    0  503 -0.32761390492E+02 -0.55030504872E+02 -0.11700475321E+02  0.65273702945E+02  0.47000000000E+01 0.  1.
         13    1    4    4    0    0  0.51971212942E+02 -0.26160292886E+02 -0.10038192216E+03  0.11602542047E+03  0.00000000000E+00 0. -1.
        -14    1    4    4    0    0 -0.26106030889E+02 -0.78104949897E+01 -0.96019258083E+02  0.99810954326E+02  0.00000000000E+00 0.  1.
</event>
<event>
12    1  0.1627564E-001  0.2608791E+03  0.7818608E-02  0.1106916E+00
         21   -1    0    0  503  502  0.00000000000E+00  0.00000000000E+00  0.51764838150E+03  0.51764838150E+03  0.00000000000E+00 0.  1.
         21   -1    0    0  501  503 -0.00000000000E+00 -0.00000000000E+00 -0.19243591901E+03  0.19243591901E+03  0.00000000000E+00 0.  1.
          6    2    1    2  501    0 -0.19155046771E+03 -0.26294233385E+02 -0.39282553601E+02  0.26184942518E+03  0.17215990840E+03 0.  0.
         24    2    3    3    0    0 -0.12304341690E+03 -0.82420310922E+02 -0.45260800938E+02  0.17296083181E+03  0.77033234021E+02 0.  0.
         -6    2    1    2    0  502  0.19155046771E+03  0.26294233385E+02  0.36449501609E+03  0.44823487532E+03  0.17514256569E+03 0.  0.
        -24    2    5    5    0    0  0.36493868598E+02 -0.28890154290E+02  0.16560439313E+03  0.19003449680E+03  0.80757980959E+02 0.  0.
          5    1    3    3  501    0 -0.68507050811E+02  0.56126077537E+02  0.59782473372E+01  0.88888593372E+02  0.47000000000E+01 0. -1.
        -13    1    4    4    0    0 -0.47173315365E+02 -0.51632704763E+02  0.14711211102E+02  0.71468018132E+02  0.00000000000E+00 0.  1.
         14    1    4    4    0    0 -0.75870101536E+02 -0.30787606159E+02 -0.59972012040E+02  0.10149281368E+03  0.00000000000E+00 0. -1.
         -5    1    5    5    0  502  0.15505659911E+03  0.55184387676E+02  0.19889062296E+03  0.25820037853E+03  0.47000000000E+01 0.  1.
         11    1    6    6    0    0 -0.18666575800E+02 -0.24551399900E+02  0.27741499531E+02  0.41482563631E+02  0.00000000000E+00 0. -1.
        -12    1    6    6    0    0  0.55160444398E+02 -0.43387543906E+01  0.13786289360E+03  0.14855193317E+03  0.00000000000E+00 0.  1.
</event>
<event>
12    1  0.1627564E-001  0.2448629E+03  0.7818608E-02  0.1116885E+00
         21   -1    0    0  503  502  0.00000000000E+00  0.00000000000E+00  0.85995014395E+03  0.85995014395E+03  0.00000000000E+00 0. -1.
         21   -1    0    0  501  503 -0.00000000000E+00 -0.00000000000E+00 -0.14600024085E+03  0.14600024085E+03  0.00000000000E+00 0.  1.
          6    2    1    2  501    0 -0.16686913753E+03 -0.43313816403E+02 -0.84015932752E+01  0.24322531842E+03  0.17136677916E+03 0.  0.
         24    2    3    3    0    0 -0.28634659739E+02  0.14208785617E+02 -0.27864582457E+02  0.92167321144E+02  0.81832431250E+02 0.  0.
         -6    2    1    2    0  502  0.16686913753E+03  0.43313816403E+02  0.72235149638E+03  0.76272506639E+03  0.17388630432E+03 0.  0.
        -24    2    5    5    0    0  0.18866281555E+03  0.59211400271E+02  0.67772493859E+03  0.71036747635E+03  0.78811237636E+02 0.  0.
          5    1    3    3  501    0 -0.13823447779E+03 -0.57522602019E+02  0.19462989182E+02  0.15105799727E+03  0.47000000000E+01 0. -1.
        -11    1    4    4    0    0 -0.29194467388E+02 -0.13247986143E+02  0.19422474594E+02  0.37484111064E+02  0.00000000000E+00 0.  1.
         12    1    4    4    0    0  0.55980764946E+00  0.27456771759E+02 -0.47287057051E+02  0.54683210080E+02  0.00000000000E+00 0. -1.
         -5    1    5    5    0  502 -0.21793678025E+02 -0.15897583868E+02  0.44626557791E+02  0.52357590041E+02  0.47000000000E+01 0.  1.
         11    1    6    6    0    0  0.13912408934E+03  0.36695238533E+02  0.58871042451E+03  0.60603796637E+03  0.00000000000E+00 0. -1.
        -12    1    6    6    0    0  0.49538726216E+02  0.22516161738E+02  0.89014514078E+02  0.10432950997E+03  0.00000000000E+00 0.  1.
</event>
<event>
12    1  0.1627564E-001  0.1840636E+03  0.7818608E-02  0.1164628E+00
         21   -1    0    0  501  502  0.00000000000E+00  0.00000000000E+00  0.39394369582E+02  0.39394369582E+02  0.00000000000E+00 0. -1.
         21   -1    0    0  502  503 -0.00000000000E+00 -0.00000000000E+00 -0.96030677157E+03  0.96030677157E+03  0.00000000000E+00 0.  1.
         -6    2    1    2    0  503 -0.46609484616E+02  0.42983096361E+02 -0.63600505004E+03  0.66210409454E+03  0.17279877806E+03 0.  0.
        -24    2    3    3    0    0 -0.34816500996E+02  0.84832679055E+02 -0.30938003610E+03  0.33256433705E+03  0.80462782465E+02 0.  0.
          6    2    1    2  501    0  0.46609484616E+02 -0.42983096361E+02 -0.28490735195E+03  0.33759704662E+03  0.16964544220E+03 0.  0.
         24    2    5    5    0    0  0.65125495770E+02  0.27914329609E+02 -0.14702762448E+03  0.18138502107E+03  0.79138255679E+02 0.  0.
          5    1    5    5  501    0 -0.18516011154E+02 -0.70897425970E+02 -0.13787972747E+03  0.15621202555E+03  0.47000000000E+01 0. -1.
        -13    1    6    6    0    0  0.66343027094E+02  0.40688428625E+02 -0.14928718979E+03  0.16835560728E+03  0.00000000000E+00 0.  1.
         14    1    6    6    0    0 -0.12175313241E+01 -0.12774099016E+02  0.22595653132E+01  0.13029413786E+02  0.00000000000E+00 0. -1.
         -5    1    3    3    0  503 -0.11792983620E+02 -0.41849582695E+02 -0.32662501394E+03  0.32953975749E+03  0.47000000000E+01 0.  1.
         11    1    4    4    0    0 -0.42950440166E+02  0.74259145651E+01 -0.95989482193E+02  0.10542231836E+03  0.00000000000E+00 0. -1.
        -12    1    4    4    0    0  0.81339391705E+01  0.77406764490E+02 -0.21339055390E+03  0.22714201868E+03  0.00000000000E+00 0.  1.
</event>
<event>
12    1  0.1627564E-001  0.1922239E+03  0.7818608E-02  0.1156794E+00
         21   -1    0    0  501  502  0.00000000000E+00  0.00000000000E+00  0.73114151428E+03  0.73114151428E+03  0.00000000000E+00 0.  1.
         21   -1    0    0  502  503 -0.00000000000E+00 -0.00000000000E+00 -0.66373098338E+02  0.66373098338E+02  0.00000000000E+00 0.  1.
         -6    2    1    2    0  503  0.59872684980E+02  0.60606954288E+02  0.13623727222E+03  0.23560696035E+03  0.17231396956E+03 0.  0.
        -24    2    3    3    0    0  0.66509909114E+02 -0.23397693353E+02  0.63296278104E+02  0.12405736513E+03  0.80079903580E+02 0.  0.
          6    2    1    2  501    0 -0.59872684980E+02 -0.60606954288E+02  0.52853114372E+03  0.56190765227E+03  0.17069592403E+03 0.  0.
         24    2    5    5    0    0  0.56196006266E+01 -0.81390311385E+02  0.40028697400E+03  0.41634033288E+03  0.80334603580E+02 0.  0.
          5    1    5    5  501    0 -0.65492285606E+02  0.20783357096E+02  0.12824416972E+03  0.14556731939E+03  0.47000000000E+01 0. -1.
        -13    1    6    6    0    0  0.15011197950E+02 -0.70515425973E+02  0.15849596762E+03  0.17412275301E+03  0.00000000000E+00 0.  1.
         14    1    6    6    0    0 -0.93915973236E+01 -0.10874885411E+02  0.24179100638E+03  0.24221757987E+03  0.00000000000E+00 0. -1.
         -5    1    3    3    0  503 -0.66372241346E+01  0.84004647642E+02  0.72940994114E+02  0.11154959521E+03  0.47000000000E+01 0.  1.
         11    1    4    4    0    0 -0.10192572017E+02  0.12111001942E+02  0.28603718215E+02  0.32691552244E+02  0.00000000000E+00 0. -1.
        -12    1    4    4    0    0  0.76702481132E+02 -0.35508695296E+02  0.34692559889E+02  0.91365812890E+02  0.00000000000E+00 0.  1.
</event>
<event>
12    1  0.1627564E-001  0.1915718E+03  0.7818608E-02  0.1157533E+00
         21   -1    0    0  503  502  0.00000000000E+00  0.00000000000E+00  0.22946393439E+03  0.22946393439E+03  0.00000000000E+00 0.  1.
         21   -1    0    0  501  503 -0.00000000000E+00 -0.00000000000E+00 -0.53289386164E+03  0.53289386164E+03  0.00000000000E+00 0.  1.
          6    2    1    2  501    0  0.25434046919E+02 -0.82223353573E+02 -0.47111022437E+03  0.50776709292E+03  0.16874538965E+03 0.  0.
         24    2    3    3    0    0 -0.20330601676E+02 -0.20688518197E+02 -0.37651608851E+03  0.38590208742E+03  0.79465137121E+02 0.  0.
         -6    2    1    2    0  502 -0.25434046919E+02  0.82223353573E+02  0.16768029712E+03  0.25459070311E+03  0.17114956457E+03 0.  0.
        -24    2    5    5    0    0 -0.33192566032E+02 -0.99442335087E+01  0.12697538471E+03  0.15342727780E+03  0.78845082463E+02 0.  0.
          5    1    3    3  501    0  0.45764648595E+02 -0.61534835376E+02 -0.94594135860E+02  0.12186500550E+03  0.47000000000E+01 0. -1.
        -13    1    4    4    0    0  0.25341733483E+02 -0.27640606302E+02 -0.19695860782E+03  0.20049663281E+03  0.00000000000E+00 0.  1.
         14    1    4    4    0    0 -0.45672335159E+02  0.69520881053E+01 -0.17955748069E+03  0.18540545461E+03  0.00000000000E+00 0. -1.
         -5    1    5    5    0  502  0.77585191130E+01  0.92167587082E+02  0.40704912405E+02  0.10116342531E+03  0.47000000000E+01 0.  1.
         11    1    6    6    0    0  0.25921917662E+02 -0.71395456470E+01  0.42236186813E+02  0.50068097665E+02  0.00000000000E+00 0. -1.
        -12    1    6    6    0    0 -0.59114483694E+02 -0.28046878617E+01  0.84739197901E+02  0.10335918013E+03  0.00000000000E+00 0.  1.
</event>
<event>
12    1  0.1627564E-001  0.2125701E+03  0.7818608E-02  0.1139794E+00
         21   -1    0    0  501  502  0.00000000000E+00  0.00000000000E+00  0.41196804748E+03  0.41196804748E+03  0.00000000000E+00 0.  1.
         21   -1    0    0  502  503 -0.00000000000E+00 -0.00000000000E+00 -0.15478367034E+03  0.15478367034E+03  0.00000000000E+00 0.  1.
         -6    2    1    2    0  503  0.97291122309E+02 -0.79935375456E+02 -0.25744047246E+02  0.21286677494E+03  0.16968877740E+03 0.  0.
        -24    2    3    3    0    0  0.29240532610E+02 -0.98415104048E+02 -0.48246984502E+02  0.13869902378E+03  0.79806680377E+02 0.  0.
          6    2    1    2  501    0 -0.97291122309E+02  0.79935375456E+02  0.28292842438E+03  0.35388494288E+03  0.17126246741E+03 0.  0.
         24    2    5    5    0    0 -0.84484013619E+02  0.11793515586E+03  0.18344873136E+03  0.24652431384E+03  0.77939404226E+02 0.  0.
          5    1    5    5  501    0 -0.12807108690E+02 -0.37999780404E+02  0.99479693024E+02  0.10736062904E+03  0.47000000000E+01 0. -1.
        -11    1    6    6    0    0 -0.67206436798E+02  0.38087049575E+02  0.12157980470E+03  0.14404505338E+03  0.00000000000E+00 0.  1.
         12    1    6    6    0    0 -0.17277576822E+02  0.79848106285E+02  0.61868926660E+02  0.10247926046E+03  0.00000000000E+00 0. -1.
         -5    1    3    3    0  503  0.68050589699E+02  0.18479728592E+02  0.22502937256E+02  0.74167751162E+02  0.47000000000E+01 0.  1.
         13    1    4    4    0    0  0.99931594425E+00 -0.14088589490E+02 -0.47721315021E+02  0.49767568692E+02  0.00000000000E+00 0. -1.
        -14    1    4    4    0    0  0.28241216666E+02 -0.84326514557E+02 -0.52566948038E+00  0.88931455091E+02  0.00000000000E+00 0.  1.
</event>
<event>
12    1  0.1627564E-001  0.2011734E+03  0.7818608E-02  0.1150465E+00
         21   -1    0    0  503  502  0.00000000000E+00  0.00000000000E+00  0.16411888506E+03  0.16411888506E+03  0.00000000000E+00 0. -1.
         21   -1    0    0  501  503 -0.00000000000E+00 -0.00000000000E+00 -0.29034558755E+03  0.29034558755E+03  0.00000000000E+00 0. -1.
          6    2    1    2  501    0 -0.52025063080E+02 -0.69869973481E+02 -0.16165208970E+03  0.25807386775E+03  0.18133478081E+03 0.  0.
         24    2    3    3    0    0 -0.10312220296E+03 -0.94171004971E+01 -0.10397207241E+03  0.16002009704E+03  0.63822951121E+02 0.  0.
         -6    2    1    2    0  502  0.52025063080E+02  0.69869973481E+02  0.35425387216E+02  0.19639060485E+03  0.17241198112E+03 0.  0.
        -24    2    5    5    0    0  0.58126422851E+02  0.10626370478E+03  0.54113738433E+02  0.15476039059E+03  0.79698342649E+02 0.  0.
          5    1    3    3  501    0  0.51097139884E+02 -0.60452872984E+02 -0.57680017288E+02  0.98053770711E+02  0.47000000000E+01 0. -1.
        -13    1    4    4    0    0 -0.71135472107E+02  0.15187012513E+02 -0.36455957520E+02  0.81362998837E+02  0.00000000000E+00 0.  1.
         14    1    4    4    0    0 -0.31986730857E+02 -0.24604113010E+02 -0.67516114894E+02  0.78657098207E+02  0.00000000000E+00 0. -1.
         -5    1    5    5    0  502 -0.61013597711E+01 -0.36393731296E+02 -0.18688351217E+02  0.41630214267E+02  0.47000000000E+01 0.  1.
         13    1    6    6    0    0  0.21003595884E+01  0.52159814742E+02 -0.10874377862E+02  0.53322695714E+02  0.00000000000E+00 0. -1.
        -14    1    6    6    0    0  0.56026063263E+02  0.54103890035E+02  0.64988116295E+02  0.10143769487E+03  0.00000000000E+00 0.  1.
</event>
<event>
12    1  0.1627564E-001  0.2438380E+03  0.7818608E-02  0.1117425E+00
         21   -1    0    0  501  502  0.00000000000E+00  0.00000000000E+00  0.19257692524E+03  0.19257692524E+03  0.00000000000E+00 0. -1.
         21   -1    0    0  502  503 -0.00000000000E+00 -0.00000000000E+00 -0.33401307102E+03  0.33401307102E+03  0.00000000000E+00 0.  1.
         -6    2    1    2    0  503 -0.14469913126E+03 -0.98187872979E+02  0.36126379705E+01  0.24287164578E+03  0.16850782824E+03 0.  0.
        -24    2    3    3    0    0 -0.12627780056E+03  0.17123640064E+01  0.83834697217E+01  0.14106666746E+03  0.62293715557E+02 0.  0.
          6    2    1    2  501    0  0.14469913126E+03  0.98187872979E+02 -0.14504878375E+03  0.28371835049E+03  0.16993603429E+03 0.  0.
         24    2    5    5    0    0  0.16192242183E+03  0.64683112575E+02 -0.15197707906E+03  0.24512687496E+03  0.81162654754E+02 0.  0.
          5    1    5    5  501    0 -0.17223290565E+02  0.33504760404E+02  0.69282953055E+01  0.38591475528E+02  0.47000000000E+01 0. -1.
        -13    1    6    6    0    0  0.23932447889E+02  0.12338877979E+02 -0.72854033855E+02  0.77670587874E+02  0.00000000000E+00 0.  1.
         14    1    6    6    0    0  0.13798997394E+03  0.52344234596E+02 -0.79123045202E+02  0.16745628709E+03  0.00000000000E+00 0. -1.
         -5    1    3    3    0  503 -0.18421330702E+02 -0.99900236986E+02 -0.47708317513E+01  0.10180497832E+03  0.47000000000E+01 0.  1.
         13    1    4    4    0    0 -0.46668563447E+02 -0.18922614427E+02 -0.19828742372E+02  0.54122076595E+02  0.00000000000E+00 0. -1.
        -14    1    4    4    0    0 -0.79609237115E+02  0.20634978434E+02  0.28212212094E+02  0.86944590863E+02  0.00000000000E+00 0.  1.
</event>
<event>
12    1  0.1627564E-001  0.2434485E+03  0.7818608E-02  0.1117893E+00
         21   -1    0    0  501  502  0.00000000000E+00  0.00000000000E+00  0.26662948991E+03  0.26662948991E+03  0.00000000000E+00 0.  1.
         21   -1    0    0  502  503 -0.00000000000E+00 -0.00000000000E+00 -0.65398738278E+03  0.65398738278E+03  0.00000000000E+00 0. -1.
         -6    2    1    2    0  503 -0.13252657973E+03 -0.10506731260E+03 -0.56887768812E+03  0.61878024464E+03  0.17511348494E+03 0.  0.
        -24    2    3    3    0    0 -0.55251514870E+02  0.20048475005E+02 -0.19583141122E+03  0.21776776271E+03  0.74954556963E+02 0.  0.
          6    2    1    2  501    0  0.13252657973E+03  0.10506731260E+03  0.18151979525E+03  0.30183662805E+03  0.17191125459E+03 0.  0.
         24    2    5    5    0    0  0.10505241224E+03  0.46332705714E+01  0.68861523122E+02  0.14835762963E+03  0.78807362532E+02 0.  0.
          5    1    5    5  501    0  0.27474167488E+02  0.10043404203E+03  0.11265827213E+03  0.15347899842E+03  0.47000000000E+01 0. -1.
        -13    1    6    6    0    0  0.73390587827E+01  0.67353523911E+01  0.47213525652E+02  0.48252914524E+02  0.00000000000E+00 0.  1.
         14    1    6    6    0    0  0.97713353459E+02 -0.21020818196E+01  0.21647997470E+02  0.10010471511E+03  0.00000000000E+00 0. -1.
         -5    1    3    3    0  503 -0.77275064860E+02 -0.12511578760E+03 -0.37304627690E+03  0.40101248193E+03  0.47000000000E+01 0.  1.
         11    1    4    4    0    0 -0.10962627741E+01  0.56124141303E+00 -0.13127328669E+03  0.13127906376E+03  0.00000000000E+00 0. -1.
        -12    1    4    4    0    0 -0.54155252096E+02  0.19487233592E+02 -0.64558124532E+02  0.86488698948E+02  0.00000000000E+00 0.  1.
</event>
<event>
12    1  0.1627564E-001  0.2579029E+03  0.7818608E-02  0.1108809E+00
         21   -1    0    0  501  502  0.00000000000E+00  0.00000000000E+00  0.20357752085E+03  0.20357752085E+03  0.00000000000E+00 0.  1.
         21   -1    0    0  502  503 -0.00000000000E+00 -0.00000000000E+00 -0.32414279063E+03  0.32414279063E+03  0.00000000000E+00 0.  1.
         -6    2    1    2    0  503 -0.17359798838E+03 -0.74599924928E+02 -0.47480191627E+02  0.25966189818E+03  0.17166398108E+03 0.  0.
        -24    2    3    3    0    0 -0.48613860093E+02 -0.88584919223E+02 -0.13197606256E+02  0.12922418106E+03  0.79461417377E+02 0.  0.
          6    2    1    2  501    0  0.17359798838E+03  0.74599924928E+02 -0.73085078156E+02  0.26805841331E+03  0.17553482255E+03 0.  0.
         24    2    5    5    0    0  0.19402457918E+03  0.81962246356E+02 -0.40763104939E+02  0.22883789136E+03  0.79635435855E+02 0.  0.
          5    1    5    5  501    0 -0.20426590808E+02 -0.73623214286E+01 -0.32321973217E+02  0.39220521943E+02  0.47000000000E+01 0. -1.
        -13    1    6    6    0    0  0.12349780452E+01  0.22793381883E+01  0.13128005400E+02  0.13381520060E+02  0.00000000000E+00 0.  1.
         14    1    6    6    0    0  0.19278960114E+03  0.79682908168E+02 -0.53891110339E+02  0.21545637130E+03  0.00000000000E+00 0. -1.
         -5    1    3    3    0  503 -0.12498412828E+03  0.13984994296E+02 -0.34282585371E+02  0.13043771712E+03  0.47000000000E+01 0.  1.
         13    1    4    4    0    0 -0.28399183705E+02 -0.89434658697E+02 -0.34376670895E+02  0.99934114862E+02  0.00000000000E+00 0. -1.
        -14    1    4    4    0    0 -0.20214676388E+02  0.84973947389E+00  0.21179064639E+02  0.29290066194E+02  0.00000000000E+00 0.  1.
</event>
<event>
12    1  0.1627564E-001  0.1996835E+03  0.7818608E-02  0.1150154E+00
         21   -1    0    0  501  502  0.00000000000E+00  0.00000000000E+00  0.42832330872E+03  0.42832330872E+03  0.00000000000E+00 0. -1.
         21   -1    0    0  502  503 -0.00000000000E+00 -0.00000000000E+00 -0.14308710541E+03  0.14308710541E+03  0.00000000000E+00 0. -1.
         -6    2    1    2    0  503 -0.50396979003E+02  0.86522466740E+02 -0.26649439199E+02  0.20145393014E+03  0.17276429207E+03 0.  0.
        -24    2    3    3    0    0 -0.95363638043E+02  0.39356647357E+02  0.80927202351E+01  0.12745580458E+03  0.74406457040E+02 0.  0.
          6    2    1    2  501    0  0.50396979003E+02 -0.86522466740E+02  0.31188564251E+03  0.36995648400E+03  0.17195683559E+03 0.  0.
         24    2    5    5    0    0  0.13906844800E+01 -0.91682631636E+02  0.11531665342E+03  0.16725053521E+03  0.79165472423E+02 0.  0.
          5    1    5    5  501    0  0.49006294523E+02  0.51601648962E+01  0.19656898909E+03  0.20270594880E+03  0.47000000000E+01 0. -1.
        -11    1    6    6    0    0 -0.19927172780E+02 -0.36555940508E+02  0.47851676742E+01  0.41908553198E+02  0.00000000000E+00 0.  1.
         12    1    6    6    0    0  0.21317857260E+02 -0.55126691127E+02  0.11053148574E+03  0.12534198201E+03  0.00000000000E+00 0. -1.
         -5    1    3    3    0  503  0.44966659040E+02  0.47165819383E+02 -0.34742159434E+02  0.73998125553E+02  0.47000000000E+01 0.  1.
         13    1    4    4    0    0 -0.41938220520E+02  0.47707222735E+02 -0.19901926143E+02  0.66564856386E+02  0.00000000000E+00 0. -1.
        -14    1    4    4    0    0 -0.53425417522E+02 -0.83505753779E+01  0.27994646378E+02  0.60890948197E+02  0.00000000000E+00 0.  1.
</event>
<event>
12    1  0.1627564E-001  0.3128903E+03  0.7818608E-02  0.1079152E+00
         21   -1    0    0  503  502  0.00000000000E+00  0.00000000000E+00  0.66335325736E+03  0.66335325736E+03  0.00000000000E+00 0. -1.
         21   -1    0    0  501  503 -0.00000000000E+00 -0.00000000000E+00 -0.26976823717E+03  0.26976823717E+03  0.00000000000E+00 0. -1.
          6    2    1    2  501    0  0.45567814604E+02 -0.25723851012E+03 -0.11839584615E+03  0.33310087952E+03  0.16938282893E+03 0.  0.
         24    2    3    3    0    0 -0.13981406933E+02 -0.20778757385E+03 -0.46289882111E+02  0.22721006342E+03  0.78169713762E+02 0.  0.
         -6    2    1    2    0  502 -0.45567814604E+02  0.25723851012E+03  0.51198086634E+03  0.60002061500E+03  0.17219829881E+03 0.  0.
        -24    2    5    5    0    0  0.31494206297E+02  0.17619787636E+03  0.27975148203E+03  0.34222473388E+03  0.82579053755E+02 0.  0.
          5    1    3    3  501    0  0.59549221537E+02 -0.49450936274E+02 -0.72105964039E+02  0.10589081610E+03  0.47000000000E+01 0. -1.
        -11    1    4    4    0    0 -0.53923042154E+01 -0.43590892810E+02  0.22055828195E+02  0.49149795911E+02  0.00000000000E+00 0.  1.
         12    1    4    4    0    0 -0.85891027175E+01 -0.16419668104E+03 -0.68345710306E+02  0.17806026751E+03  0.00000000000E+00 0. -1.
         -5    1    5    5    0  502 -0.77062020901E+02  0.81040633764E+02  0.23222938431E+03  0.25779588112E+03  0.47000000000E+01 0.  1.
         11    1    6    6    0    0 -0.28380015868E+01  0.14690771241E+03  0.17728519110E+03  0.23026065492E+03  0.00000000000E+00 0. -1.
        -12    1    6    6    0    0  0.34332207884E+02  0.29290163951E+02  0.10246629092E+03  0.11196407896E+03  0.00000000000E+00 0.  1.
</event>
<event>
12    1  0.1627564E-001  0.3597512E+03  0.7818608E-02  0.1058692E+00
         21   -1    0    0  501  502  0.00000000000E+00  0.00000000000E+00  0.12318360925E+03  0.12318360925E+03  0.00000000000E+00 0.  1.
         21   -1    0    0  502  503 -0.00000000000E+00 -0.00000000000E+00 -0.10561391851E+04  0.10561391851E+04  0.00000000000E+00 0. -1.
         -6    2    1    2    0  503 -0.29134452106E+03  0.12204009489E+03 -0.51011180358E+03  0.62414912099E+03  0.17196702696E+03 0.  0.
        -24    2    3    3    0    0 -0.16448010955E+03  0.12666488608E+02 -0.33374123966E+03  0.38086773970E+03  0.80392000398E+02 0.  0.
          6    2    1    2  501    0  0.29134452106E+03 -0.12204009489E+03 -0.42284377226E+03  0.55517367336E+03  0.17217879412E+03 0.  0.
         24    2    5    5    0    0  0.30612256197E+03 -0.13008731325E+03 -0.39793535740E+03  0.52474889157E+03  0.79844339289E+02 0.  0.
          5    1    5    5  501    0 -0.14778040914E+02  0.80472183551E+01 -0.24908414862E+02  0.30424781798E+02  0.47000000000E+01 0. -1.
        -11    1    6    6    0    0  0.10499640578E+03 -0.84337215715E+02 -0.13664547416E+03  0.19185670900E+03  0.00000000000E+00 0.  1.
         12    1    6    6    0    0  0.20112615619E+03 -0.45750097533E+02 -0.26128988324E+03  0.33289218256E+03  0.00000000000E+00 0. -1.
         -5    1    3    3    0  503 -0.12686441151E+03  0.10937360628E+03 -0.17637056393E+03  0.24328138128E+03  0.47000000000E+01 0.  1.
         11    1    4    4    0    0 -0.16613042039E+03  0.24912752501E+02 -0.28727551093E+03  0.33278699043E+03  0.00000000000E+00 0. -1.
        -12    1    4    4    0    0  0.16503108369E+01 -0.12246263893E+02 -0.46465728725E+02  0.48080749278E+02  0.00000000000E+00 0.  1.
</event>
<event>
12    1  0.1627564E-001  0.2258447E+03  0.7818608E-02  0.1130274E+00
         21   -1    0    0  501  502  0.00000000000E+00  0.00000000000E+00  0.48857033567E+03  0.48857033567E+03  0.00000000000E+00 0.  1.
         21   -1    0    0  502  503 -0.00000000000E+00 -0.00000000000E+00 -0.11106255557E+03  0.11106255557E+03  0.00000000000E+00 0.  1.
         -6    2    1    2    0  503  0.76290176900E+01 -0.14392361471E+03  0.26962555872E+03  0.34934423001E+03  0.16903029415E+03 0.  0.
        -24    2    3    3    0    0 -0.44820965642E+02 -0.85476916204E+02  0.22890831403E+03  0.26076092835E+03  0.79259216221E+02 0.  0.
          6    2    1    2  501    0 -0.76290176900E+01  0.14392361471E+03  0.10788222138E+03  0.25028866123E+03  0.17387820872E+03 0.  0.
         24    2    5    5    0    0 -0.62923584924E+02  0.94893794994E+02  0.34338771343E+02  0.14592323865E+03  0.84559035546E+02 0.  0.
          5    1    5    5  501    0  0.55294567234E+02  0.49029819715E+02  0.73543450039E+02  0.10436542258E+03  0.47000000000E+01 0. -1.
        -13    1    6    6    0    0 -0.33853457264E+02  0.81344493996E+02  0.58506939888E+02  0.10576410207E+03  0.00000000000E+00 0.  1.
         14    1    6    6    0    0 -0.29070127660E+02  0.13549300998E+02 -0.24168168545E+02  0.40159136576E+02  0.00000000000E+00 0. -1.
         -5    1    3    3    0  503  0.52449983332E+02 -0.58446698505E+02  0.40717244695E+02  0.88583301661E+02  0.47000000000E+01 0.  1.
         11    1    4    4    0    0 -0.37195692617E+02 -0.26335720321E+02  0.17341350485E+03  0.17930235185E+03  0.00000000000E+00 0. -1.
        -12    1    4    4    0    0 -0.76252730251E+01 -0.59141195883E+02  0.55494809176E+02  0.81458576495E+02  0.00000000000E+00 0.  1.
</event>
<event>
12    1  0.1627564E-001  0.2164197E+03  0.7818608E-02  0.1136674E+00
         21   -1    0    0  503  502  0.00000000000E+00  0.00000000000E+00  0.23483538697E+03  0.23483538697E+03  0.00000000000E+00 0. -1.
         21   -1    0    0  501  503 -0.00000000000E+00 -0.00000000000E+00 -0.22159864627E+03  0.22159864627E+03  0.00000000000E+00 0.  1.
          6    2    1    2  501    0 -0.53880885782E+02 -0.11927677120E+03  0.79497574814E+02  0.23009806600E+03  0.17174154294E+03 0.  0.
         24    2    3    3    0    0  0.20595297341E+02 -0.11284346936E+03  0.40736644430E+02  0.14576189968E+03  0.80182556383E+02 0.  0.
         -6    2    1    2    0  502  0.53880885782E+02  0.11927677120E+03 -0.66260834114E+02  0.22633596725E+03  0.17235827201E+03 0.  0.
        -24    2    5    5    0    0  0.84979594904E+02  0.54598430036E+02 -0.14287436469E+01  0.12950773025E+03  0.81041290550E+02 0.  0.
          5    1    3    3  501    0 -0.74476183124E+02 -0.64333018433E+01  0.38760930384E+02  0.84336166320E+02  0.47000000000E+01 0. -1.
        -13    1    4    4    0    0 -0.81992462547E+01 -0.16274996441E+02 -0.20827007775E+02  0.27674309407E+02  0.00000000000E+00 0.  1.
         14    1    4    4    0    0  0.28794543596E+02 -0.96568472920E+02  0.61563652205E+02  0.11808759027E+03  0.00000000000E+00 0. -1.
         -5    1    5    5    0  502 -0.31098709122E+02  0.64678341169E+02 -0.64832090467E+02  0.96828236996E+02  0.47000000000E+01 0.  1.
         11    1    6    6    0    0  0.25265591199E+02 -0.17154173996E+02  0.16105466413E+02  0.34525379542E+02  0.00000000000E+00 0. -1.
        -12    1    6    6    0    0  0.59714003704E+02  0.71752604032E+02 -0.17534210060E+02  0.94982350709E+02  0.00000000000E+00 0.  1.
</event>
<event>
12    1  0.1627564E-001  0.1990479E+03  0.7818608E-02  0.1151198E+00
         21   -1    0    0  503  502  0.00000000000E+00  0.00000000000E+00  0.24967248449E+03  0.24967248449E+03  0.00000000000E+00 0. -1.
         21   -1    0    0  501  503 -0.00000000000E+00 -0.00000000000E+00 -0.16423887115E+03  0.16423887115E+03  0.00000000000E+00 0. -1.
          6    2    1    2  501    0  0.92701860104E+02  0.30438228325E+02 -0.25672234187E+01  0.19906446313E+03  0.17349336942E+03 0.  0.
         24    2    3    3    0    0  0.10055179103E+02 -0.37292231036E+02  0.33475488167E+00  0.92067264641E+02  0.83573034139E+02 0.  0.
         -6    2    1    2    0  502 -0.92701860104E+02 -0.30438228325E+02  0.88000836757E+02  0.21484689252E+03  0.16998505624E+03 0.  0.
        -24    2    5    5    0    0 -0.75602229748E+02  0.23124588846E+02  0.17199285097E+01  0.11175539011E+03  0.78967495286E+02 0.  0.
          5    1    3    3  501    0  0.82646681000E+02  0.67730459360E+02 -0.29019783004E+01  0.10699719848E+03  0.47000000000E+01 0. -1.
        -13    1    4    4    0    0  0.82222697906E+01 -0.52108817753E+01 -0.39617487813E+02  0.40795886434E+02  0.00000000000E+00 0.  1.
         14    1    4    4    0    0  0.18329093128E+01 -0.32081349260E+02  0.39952242694E+02  0.51271378207E+02  0.00000000000E+00 0. -1.
         -5    1    5    5    0  502 -0.17099630355E+02 -0.53562817171E+02  0.86280908248E+02  0.10309150241E+03  0.47000000000E+01 0.  1.
         11    1    6    6    0    0  0.49259028148E+01 -0.17870260033E+02 -0.92730613883E+01  0.20726803413E+02  0.00000000000E+00 0. -1.
        -12    1    6    6    0    0 -0.80528132563E+02  0.40994848879E+02  0.10992989898E+02  0.91028586695E+02  0.00000000000E+00 0.  1.
</event>
<event>
12    1  0.1627564E-001  0.1792624E+03  0.7818608E-02  0.1168683E+00
         21   -1    0    0  501  502  0.00000000000E+00  0.00000000000E+00  0.78181622880E+02  0.78181622880E+02  0.00000000000E+00 0.  1.
         21   -1    0    0  502  503 -0.00000000000E+00 -0.00000000000E+00 -0.76444621931E+03  0.76444621931E+03  0.00000000000E+00 0.  1.
         -6    2    1    2    0  503 -0.50218050560E+02  0.10997292723E+01 -0.62987787516E+03  0.65470641556E+03  0.17138054425E+03 0.  0.
        -24    2    3    3    0    0 -0.31362755766E+02 -0.62262320918E+02 -0.46719645022E+03  0.47904307969E+03  0.79683938463E+02 0.  0.
          6    2    1    2  501    0  0.50218050560E+02 -0.10997292723E+01 -0.56386721269E+02  0.18792142663E+03  0.17208119666E+03 0.  0.
         24    2    5    5    0    0  0.73234645239E+02  0.51368956791E+02 -0.25610725351E+02  0.12271422939E+03  0.80004936447E+02 0.  0.
          5    1    5    5  501    0 -0.23016594679E+02 -0.52468686063E+02 -0.30775995918E+02  0.65207197245E+02  0.47000000000E+01 0. -1.
        -13    1    6    6    0    0  0.50366973279E+02 -0.87135990696E+01  0.52862017696E+01  0.51387768342E+02  0.00000000000E+00 0.  1.
         14    1    6    6    0    0  0.22867671960E+02  0.60082555861E+02 -0.30896927120E+02  0.71326461044E+02  0.00000000000E+00 0. -1.
         -5    1    3    3    0  503 -0.18855294794E+02  0.63362050190E+02 -0.16268142494E+03  0.17566333586E+03  0.47000000000E+01 0.  1.
         13    1    4    4    0    0 -0.11905033077E+02  0.10792787753E+02 -0.20770250423E+02  0.26260567067E+02  0.00000000000E+00 0. -1.
        -14    1    4    4    0    0 -0.19457722688E+02 -0.73055108671E+02 -0.44642619980E+03  0.45278251263E+03  0.00000000000E+00 0.  1.
</event>
<event>
12    1  0.1627564E-001  0.1975433E+03  0.7818608E-02  0.1152049E+00
         21   -1    0    0  503  502  0.00000000000E+00  0.00000000000E+00  0.39905525320E+03  0.39905525320E+03  0.00000000000E+00 0. -1.
         21   -1    0    0  501  503 -0.00000000000E+00 -0.00000000000E+00 -0.10835779028E+03  0.10835779028E+03  0.00000000000E+00 0. -1.
          6    2    1    2  501    0 -0.24167739048E+02  0.94692525790E+02  0.63897639601E+02  0.20664485572E+03  0.17049467440E+03 0.  0.
         24    2    3    3    0    0  0.39443697588E+02  0.14637050241E+02  0.44123984760E+02  0.10239332594E+03  0.82264321829E+02 0.  0.
         -6    2    1    2    0  502  0.24167739048E+02 -0.94692525790E+02  0.22679982332E+03  0.30076818776E+03  0.17167582491E+03 0.  0.
        -24    2    5    5    0    0  0.78526585620E+02 -0.83947238258E+02  0.15447007082E+03  0.20953207374E+03  0.82638512127E+02 0.  0.
          5    1    3    3  501    0 -0.63611436636E+02  0.80055475549E+02  0.19773654841E+02  0.10425152978E+03  0.47000000000E+01 0. -1.
        -11    1    4    4    0    0 -0.21097667061E+02  0.33929971545E+01  0.33754220635E+02  0.39949610709E+02  0.00000000000E+00 0.  1.
         12    1    4    4    0    0  0.60541364649E+02  0.11244053087E+02  0.10369764125E+02  0.62443715227E+02  0.00000000000E+00 0. -1.
         -5    1    5    5    0  502 -0.54358846572E+02 -0.10745287533E+02  0.72329752508E+02  0.91236114027E+02  0.47000000000E+01 0.  1.
         11    1    6    6    0    0  0.17315877390E+02 -0.68749597666E+02  0.11510231657E+03  0.13518465175E+03  0.00000000000E+00 0. -1.
        -12    1    6    6    0    0  0.61210708231E+02 -0.15197640592E+02  0.39367754243E+02  0.74347421985E+02  0.00000000000E+00 0.  1.
</event>
<event>
12    1  0.1627564E-001  0.1816106E+03  0.7818608E-02  0.1167885E+00
         21   -1    0    0  503  502  0.00000000000E+00  0.00000000000E+00  0.69662539406E+03  0.69662539406E+03  0.00000000000E+00 0.  1.
         21   -1    0    0  501  503 -0.00000000000E+00 -0.00000000000E+00 -0.46502937424E+02  0.46502937424E+02  0.00000000000E+00 0.  1.
          6    2    1    2  501    0 -0.53170073359E+01 -0.36738305854E+02  0.38225680237E+03  0.42320523227E+03  0.17777635381E+03 0.  0.
         24    2    3    3    0    0 -0.72632102813E+02 -0.23508830539E+02  0.20130093955E+03  0.22962461499E+03  0.79858049518E+02 0.  0.
         -6    2    1    2    0  502  0.53170073359E+01  0.36738305854E+02  0.26786565426E+03  0.31992309922E+03  0.17094094593E+03 0.  0.
        -24    2    5    5    0    0  0.26400798616E+02  0.48351658121E+02  0.27730377745E+03  0.29364450765E+03  0.79339944981E+02 0.  0.
          5    1    3    3  501    0  0.67315095477E+02 -0.13229475315E+02  0.18095586282E+03  0.19358061727E+03  0.47000000000E+01 0. -1.
        -11    1    4    4    0    0  0.50722084440E+01 -0.11709832418E+02 -0.79286319259E+00  0.12785777481E+02  0.00000000000E+00 0.  1.
         12    1    4    4    0    0 -0.77704311257E+02 -0.11798998120E+02  0.20209380275E+03  0.21683883751E+03  0.00000000000E+00 0. -1.
         -5    1    5    5    0  502 -0.21083791280E+02 -0.11613352267E+02 -0.94381231898E+01  0.26278591571E+02  0.47000000000E+01 0.  1.
         11    1    6    6    0    0  0.26487339425E+01 -0.18076116080E+02  0.11817843836E+03  0.11958221046E+03  0.00000000000E+00 0. -1.
        -12    1    6    6    0    0  0.23752064674E+02  0.66427774201E+02  0.15912533909E+03  0.17406229719E+03  0.00000000000E+00 0.  1.
</event>
<event>
12    1  0.1627564E-001  0.1987895E+03  0.7818608E-02  0.1151200E+00
         21   -1    0    0  503  502  0.00000000000E+00  0.00000000000E+00  0.21526200019E+03  0.21526200019E+03  0.00000000000E+00 0. -1.
         21   -1    0    0  501  503 -0.00000000000E+00 -0.00000000000E+00 -0.26384719495E+03  0.26384719495E+03  0.00000000000E+00 0.  1.
          6    2    1    2  501    0  0.23094882287E+01 -0.10028789678E+03 -0.15804313387E+03  0.25395847890E+03  0.17162249522E+03 0.  0.
         24    2    3    3    0    0 -0.74910226451E+01 -0.67617238965E+02 -0.18312884285E+03  0.21135795437E+03  0.80670969792E+02 0.  0.
         -6    2    1    2    0  502 -0.23094882287E+01  0.10028789678E+03  0.10945793911E+03  0.22515071623E+03  0.16925958941E+03 0.  0.
        -24    2    5    5    0    0  0.58906954029E+02  0.85110317364E+02  0.91015448995E+02  0.15927183372E+03  0.79811714080E+02 0.  0.
          5    1    3    3  501    0  0.98005108738E+01 -0.32670657814E+02  0.25085708979E+02  0.42600524532E+02  0.47000000000E+01 0. -1.
        -11    1    4    4    0    0  0.26280741832E+02 -0.56095153411E+02 -0.73795463426E+02  0.96348918259E+02  0.00000000000E+00 0.  1.
         12    1    4    4    0    0 -0.33771764477E+02 -0.11522085554E+02 -0.10933337942E+03  0.11500903611E+03  0.00000000000E+00 0. -1.
         -5    1    5    5    0  502 -0.61216442258E+02  0.15177579414E+02  0.18442490114E+02  0.65878882513E+02  0.47000000000E+01 0.  1.
         11    1    6    6    0    0 -0.11394707546E+02 -0.55191153005E+01  0.22074887919E+02  0.25447999340E+02  0.00000000000E+00 0. -1.
        -12    1    6    6    0    0  0.70301661576E+02  0.90629432665E+02  0.68940561076E+02  0.13382383438E+03  0.00000000000E+00 0.  1.
</event>
<event>
12    1  0.1627564E-001  0.1881320E+03  0.7818608E-02  0.1160233E+00
         21   -1    0    0  501  502  0.00000000000E+00  0.00000000000E+00  0.23712716080E+02  0.23712716080E+02  0.00000000000E+00 0. -1.
         21   -1    0    0  502  503 -0.00000000000E+00 -0.00000000000E+00 -0.22569688723E+04  0.22569688723E+04  0.00000000000E+00 0. -1.
         -6    2    1    2    0  503 -0.23751483544E+01  0.77405903720E+02 -0.17807432787E+04  0.17906187820E+04  0.17108969223E+03 0.  0.
        -24    2    3    3    0    0  0.62755807710E+02  0.42145852827E+02 -0.12036951048E+04  0.12088181309E+04  0.81515667835E+02 0.  0.
          6    2    1    2  501    0  0.23751483544E+01 -0.77405903720E+02 -0.45251287751E+03  0.49006280631E+03  0.17145359300E+03 0.  0.
         24    2    5    5    0    0 -0.59854426803E+02 -0.17772811212E+02 -0.22957321699E+03  0.25099627168E+03  0.79980255130E+02 0.  0.
          5    1    5    5  501    0  0.62229575157E+02 -0.59633092508E+02 -0.22293966052E+03  0.23906653463E+03  0.47000000000E+01 0. -1.
        -11    1    6    6    0    0  0.12096405603E+02  0.42712365019E+01 -0.10259826983E+03  0.10339715403E+03  0.00000000000E+00 0.  1.
         12    1    6    6    0    0 -0.71950832406E+02 -0.22044047714E+02 -0.12697494716E+03  0.14759911765E+03  0.00000000000E+00 0. -1.
         -5    1    3    3    0  503 -0.65130956065E+02  0.35260050893E+02 -0.57704817391E+03  0.58180065112E+03  0.47000000000E+01 0.  1.
         13    1    4    4    0    0  0.41282390702E+02  0.41112573719E+02 -0.34728644120E+03  0.35213967647E+03  0.00000000000E+00 0. -1.
        -14    1    4    4    0    0  0.21473417008E+02  0.10332791082E+01 -0.85640866356E+03  0.85667845446E+03  0.00000000000E+00 0.  1.
</event>
<event>
12    1  0.1627564E-001  0.1926138E+03  0.7818608E-02  0.1156386E+00
         21   -1    0    0  503  502  0.00000000000E+00  0.00000000000E+00  0.36650088669E+02  0.36650088669E+02  0.00000000000E+00 0. -1.
         21   -1    0    0  501  503 -0.00000000000E+00 -0.00000000000E+00 -0.10635425537E+04  0.10635425537E+04  0.00000000000E+00 0. -1.
          6    2    1    2  501    0  0.39603048267E+02 -0.76732849191E+02 -0.38709395438E+03  0.43236767129E+03  0.17217358126E+03 0.  0.
         24    2    3    3    0    0 -0.13639611513E+02  0.26142867666E+02 -0.11724052925E+03  0.13866517727E+03  0.67920550328E+02 0.  0.
         -6    2    1    2    0  502 -0.39603048267E+02  0.76732849191E+02 -0.63979851069E+03  0.66782497112E+03  0.17085586378E+03 0.  0.
        -24    2    5    5    0    0 -0.12308533591E+02 -0.94091680189E+01 -0.16578830374E+03  0.18525559377E+03  0.81202468705E+02 0.  0.
          5    1    3    3  501    0  0.53242659780E+02 -0.10287571686E+03 -0.26985342513E+03  0.29370249402E+03  0.47000000000E+01 0. -1.
        -13    1    4    4    0    0 -0.13346279256E+02  0.35711315373E+02 -0.12211142567E+03  0.12792428032E+03  0.00000000000E+00 0.  1.
         14    1    4    4    0    0 -0.29333225707E+00 -0.95684477066E+01  0.48708964236E+01  0.10740896950E+02  0.00000000000E+00 0. -1.
         -5    1    5    5    0  502 -0.27294514675E+02  0.86142017210E+02 -0.47401020696E+03  0.48256937736E+03  0.47000000000E+01 0.  1.
         13    1    6    6    0    0 -0.16291480262E+02 -0.92216419128E+01 -0.17459108351E+03  0.17559184905E+03  0.00000000000E+00 0. -1.
        -14    1    6    6    0    0  0.39829466709E+01 -0.18752610608E+00  0.88027797770E+01  0.96637447207E+01  0.00000000000E+00 0.  1.
</event>
<event>
12    1  0.1627564E-001  0.2020935E+03  0.7818608E-02  0.1148908E+00
         21   -1    0    0  501  502  0.00000000000E+00  0.00000000000E+00  0.93112954504E+02  0.93112954504E+02  0.00000000000E+00 0.  1.
         21   -1    0    0  502  503 -0.00000000000E+00 -0.00000000000E+00 -0.47905575067E+03  0.47905575067E+03  0.00000000000E+00 0.  1.
         -6    2    1    2    0  503  0.44360283450E+02 -0.88696337126E+02 -0.28719310621E+03  0.35117183403E+03  0.17608776730E+03 0.  0.
        -24    2    3    3    0    0  0.21959101359E+02 -0.13024019975E+03 -0.20477423480E+03  0.25607890135E+03  0.78735028514E+02 0.  0.
          6    2    1    2  501    0 -0.44360283450E+02  0.88696337126E+02 -0.98749689949E+02  0.22099687114E+03  0.17103578813E+03 0.  0.
         24    2    5    5    0    0 -0.42939945939E+02  0.10088481405E+03 -0.12865444204E+03  0.18833250943E+03  0.83039653113E+02 0.  0.
          5    1    5    5  501    0 -0.14203375111E+01 -0.12188476925E+02  0.29904752090E+02  0.32664361710E+02  0.47000000000E+01 0. -1.
        -13    1    6    6    0    0 -0.38104741043E+02  0.11000571138E+03 -0.86777190596E+02  0.14520161374E+03  0.00000000000E+00 0.  1.
         14    1    6    6    0    0 -0.48352048966E+01 -0.91208973276E+01 -0.41877251444E+02  0.43130895689E+02  0.00000000000E+00 0. -1.
         -5    1    3    3    0  503  0.22401182092E+02  0.41543862622E+02 -0.82418871409E+02  0.95092932676E+02  0.47000000000E+01 0.  1.
         13    1    4    4    0    0 -0.18769830751E+02 -0.67202946940E+02 -0.14207685311E+03  0.15828573787E+03  0.00000000000E+00 0. -1.
        -14    1    4    4    0    0  0.40728932110E+02 -0.63037252809E+02 -0.62697381698E+02  0.97793163484E+02  0.00000000000E+00 0.  1.
</event>
<event>
12    1  0.1627564E-001  0.1797073E+03  0.7818608E-02  0.1168181E+00
         21   -1    0    0  503  502  0.00000000000E+00  0.00000000000E+00  0.12531414168E+03  0.12531414168E+03  0.00000000000E+00 0. -1.
         21   -1    0    0  501  503 -0.00000000000E+00 -0.00000000000E+00 -0.84562222791E+03  0.84562222791E+03  0.00000000000E+00 0. -1.
          6    2    1    2  501    0  0.31301663365E+02 -0.41311449199E+02 -0.76525295740E+03  0.78607048683E+03  0.17207060028E+03 0.  0.
         24    2    3    3    0    0  0.85407304520E+02 -0.83617525079E+01 -0.46998407988E+03  0.48404581407E+03  0.77788098137E+02 0.  0.
         -6    2    1    2    0  502 -0.31301663365E+02  0.41311449199E+02  0.44944871175E+02  0.18486588277E+03  0.17166514848E+03 0.  0.
        -24    2    5    5    0    0 -0.88328759548E+01  0.90532323930E+02  0.33807672676E+01  0.11647578370E+03  0.72670882948E+02 0.  0.
          5    1    3    3  501    0 -0.54105641154E+02 -0.32949696691E+02 -0.29526887753E+03  0.30202467275E+03  0.47000000000E+01 0. -1.
        -13    1    4    4    0    0  0.72149581592E+01 -0.71324180212E+01 -0.30291885978E+01  0.10587870023E+02  0.00000000000E+00 0.  1.
         14    1    4    4    0    0  0.78192346360E+02 -0.12293344866E+01 -0.46695489128E+03  0.47345794405E+03  0.00000000000E+00 0. -1.
         -5    1    5    5    0  502 -0.22468787411E+02 -0.49220874731E+02  0.41564103907E+02  0.68390099068E+02  0.47000000000E+01 0.  1.
         13    1    6    6    0    0  0.18802103061E+02  0.86101357721E+02  0.61882835067E+01  0.88347369704E+02  0.00000000000E+00 0. -1.
        -14    1    6    6    0    0 -0.27634979015E+02  0.44309662090E+01 -0.28075162391E+01  0.28128414000E+02  0.00000000000E+00 0.  1.
</event>
<event>
12    1  0.1627564E-001  0.1767773E+03  0.7818608E-02  0.1171381E+00
         21   -1    0    0  503  502  0.00000000000E+00  0.00000000000E+00  0.65870708096E+03  0.65870708096E+03  0.00000000000E+00 0. -1.
         21   -1    0    0  501  503 -0.00000000000E+00 -0.00000000000E+00 -0.71199081863E+02  0.71199081863E+02  0.00000000000E+00 0. -1.
          6    2    1    2  501    0 -0.23956529192E+02  0.21567694246E+02  0.81872642634E+02  0.19481619474E+03  0.17381351902E+03 0.  0.
         24    2    3    3    0    0  0.29675021485E+02 -0.13605204566E+02  0.76628312983E+02  0.13029434547E+03  0.10019485825E+03 0.  0.
         -6    2    1    2    0  502  0.23956529192E+02 -0.21567694246E+02  0.50563535646E+03  0.53508996808E+03  0.17209032371E+03 0.  0.
        -24    2    5    5    0    0  0.35948630635E+02  0.37342921052E+02  0.17460904575E+03  0.19861592826E+03  0.79203347809E+02 0.  0.
          5    1    3    3  501    0 -0.53631550677E+02  0.35172898812E+02  0.52443296511E+01  0.64521849263E+02  0.47000000000E+01 0. -1.
        -13    1    4    4    0    0 -0.25847254076E+02  0.35194288672E+01  0.66343929536E+02  0.71288034824E+02  0.00000000000E+00 0.  1.
         14    1    4    4    0    0  0.55522275561E+02 -0.17124633434E+02  0.10284383448E+02  0.59006310650E+02  0.00000000000E+00 0. -1.
         -5    1    5    5    0  502 -0.11992101443E+02 -0.58910615297E+02  0.33102631071E+03  0.33647403982E+03  0.47000000000E+01 0.  1.
         11    1    6    6    0    0  0.33634520987E+02  0.29939606789E+02  0.18224849497E+03  0.18772899343E+03  0.00000000000E+00 0. -1.
        -12    1    6    6    0    0  0.23141096478E+01  0.74033142629E+01 -0.76394492205E+01  0.10886934827E+02  0.00000000000E+00 0.  1.
</event>
<event>
12    1  0.1627564E-001  0.2128884E+03  0.7818608E-02  0.1139318E+00
         21   -1    0    0  501  502  0.00000000000E+00  0.00000000000E+00  0.11124938553E+04  0.11124938553E+04  0.00000000000E+00 0. -1.
         21   -1    0    0  502  503 -0.00000000000E+00 -0.00000000000E+00 -0.73645527154E+02  0.73645527154E+02  0.00000000000E+00 0. -1.
         -6    2    1    2    0  503 -0.17980847748E+02  0.12468665780E+03  0.12293796996E+03  0.24583570765E+03  0.17161403550E+03 0.  0.
        -24    2    3    3    0    0 -0.78057660716E+02  0.77597330142E+02  0.76280009083E+02  0.15624952820E+03  0.80504231167E+02 0.  0.
          6    2    1    2  501    0  0.17980847748E+02 -0.12468665780E+03  0.91591035815E+03  0.94030367477E+03  0.17149094173E+03 0.  0.
         24    2    5    5    0    0  0.65451786933E+01 -0.75531681829E+02  0.84972505779E+03  0.85693959274E+03  0.81024178107E+02 0.  0.
          5    1    5    5  501    0  0.11435669055E+02 -0.49154975966E+02  0.66185300359E+02  0.83364082029E+02  0.47000000000E+01 0. -1.
        -13    1    6    6    0    0 -0.12896491504E+02  0.10642185057E+02  0.59909994135E+02  0.62199541744E+02  0.00000000000E+00 0.  1.
         14    1    6    6    0    0  0.19441670198E+02 -0.86173866886E+02  0.78981506366E+03  0.79474005100E+03  0.00000000000E+00 0. -1.
         -5    1    3    3    0  503  0.60076812968E+02  0.47089327654E+02  0.46657960874E+02  0.89586179449E+02  0.47000000000E+01 0.  1.
         13    1    4    4    0    0 -0.54294660561E+01  0.61783973162E+02  0.35756855173E+02  0.71591138650E+02  0.00000000000E+00 0. -1.
        -14    1    4    4    0    0 -0.72628194660E+02  0.15813356980E+02  0.40523153909E+02  0.84658389550E+02  0.00000000000E+00 0.  1.
</event>
<event>
12    1  0.1627564E-001  0.2230097E+03  0.7818608E-02  0.1131696E+00
         21   -1    0    0  501  502  0.00000000000E+00  0.00000000000E+00  0.17812091116E+03  0.17812091116E+03  0.00000000000E+00 0.  1.
         21   -1    0    0  502  503 -0.00000000000E+00 -0.00000000000E+00 -0.35742900992E+03  0.35742900992E+03  0.00000000000E+00 0. -1.
         -6    2    1    2    0  503 -0.13355450528E+03  0.46716458526E+02 -0.21515603560E+03  0.30987970831E+03  0.17237772649E+03 0.  0.
        -24    2    3    3    0    0 -0.15580613981E+03  0.18448402520E+02 -0.20978011046E+03  0.27320262008E+03  0.77563394166E+02 0.  0.
          6    2    1    2  501    0  0.13355450528E+03 -0.46716458526E+02  0.35847936841E+02  0.22567021277E+03  0.17211257066E+03 0.  0.
         24    2    5    5    0    0  0.28559324029E+02 -0.68392251606E+02  0.46817360950E+02  0.11779877839E+03  0.78686414551E+02 0.  0.
          5    1    5    5  501    0  0.10499518125E+03  0.21675793080E+02 -0.10969424109E+02  0.10787143438E+03  0.47000000000E+01 0. -1.
        -11    1    6    6    0    0  0.46711131828E+02 -0.50103171347E+02  0.57954423797E+02  0.89727213561E+02  0.00000000000E+00 0.  1.
         12    1    6    6    0    0 -0.18151807799E+02 -0.18289080259E+02 -0.11137062847E+02  0.28071564829E+02  0.00000000000E+00 0. -1.
         -5    1    3    3    0  503  0.22251634535E+02  0.28268056006E+02 -0.53759251392E+01  0.36677088229E+02  0.47000000000E+01 0.  1.
         13    1    4    4    0    0 -0.51082280301E+02  0.43379271228E+02 -0.72148870168E+02  0.98471417170E+02  0.00000000000E+00 0. -1.
        -14    1    4    4    0    0 -0.10472385951E+03 -0.24930868708E+02 -0.13763124029E+03  0.17473120291E+03  0.00000000000E+00 0.  1.
</event>
<event>
12    1  0.1627564E-001  0.1933141E+03  0.7818608E-02  0.1155566E+00
         21   -1    0    0  503  502  0.00000000000E+00  0.00000000000E+00  0.64226610173E+02  0.64226610173E+02  0.00000000000E+00 0.  1.
         21   -1    0    0  501  503 -0.00000000000E+00 -0.00000000000E+00 -0.58135506545E+03  0.58135506545E+03  0.00000000000E+00 0.  1.
          6    2    1    2  501    0  0.87386583233E+02  0.29662480873E+01 -0.26644375946E+03  0.32918476742E+03  0.17240974621E+03 0.  0.
         24    2    3    3    0    0 -0.23936110984E+02  0.48582900756E+01 -0.10895913812E+03  0.13626038319E+03  0.78091343030E+02 0.  0.
         -6    2    1    2    0  502 -0.87386583233E+02 -0.29662480873E+01 -0.25068469581E+03  0.31639690820E+03  0.17210163639E+03 0.  0.
        -24    2    5    5    0    0 -0.60146067802E+02  0.30231526701E+02 -0.25229656839E+03  0.27316698725E+03  0.80219385598E+02 0.  0.
          5    1    3    3  501    0  0.11132269422E+03 -0.18920419882E+01 -0.15748462134E+03  0.19292438423E+03  0.47000000000E+01 0. -1.
        -13    1    4    4    0    0  0.17419224231E+01  0.19543944859E+02  0.35391183336E+01  0.19938039847E+02  0.00000000000E+00 0.  1.
         14    1    4    4    0    0 -0.25678033407E+02 -0.14685654783E+02 -0.11249825646E+03  0.11632234335E+03  0.00000000000E+00 0. -1.
         -5    1    5    5    0  502 -0.27240515431E+02 -0.33197774788E+02  0.16118725778E+01  0.43229920946E+02  0.47000000000E+01 0.  1.
         11    1    6    6    0    0 -0.60683417507E+02  0.42140798320E+02 -0.12417044222E+03  0.14448744847E+03  0.00000000000E+00 0. -1.
        -12    1    6    6    0    0  0.53734970507E+00 -0.11909271620E+02 -0.12812612617E+03  0.12867953879E+03  0.00000000000E+00 0.  1.
</event>
<event>
12    1  0.1627564E-001  0.2407810E+03  0.7818608E-02  0.1119332E+00
         21   -1    0    0  503  502  0.00000000000E+00  0.00000000000E+00  0.62575896129E+03  0.62575896129E+03  0.00000000000E+00 0.  1.
         21   -1    0    0  501  503 -0.00000000000E+00 -0.00000000000E+00 -0.11632205040E+03  0.11632205040E+03  0.00000000000E+00 0.  1.
          6    2    1    2  501    0 -0.77257812746E+02 -0.14917695878E+03  0.87000931973E+02  0.25601690114E+03  0.17249045435E+03 0.  0.
         24    2    3    3    0    0 -0.11235097577E+03 -0.14191354315E+03  0.94123481047E+02  0.21917795431E+03  0.80109615429E+02 0.  0.
         -6    2    1    2    0  502  0.77257812746E+02  0.14917695878E+03  0.42243597892E+03  0.48606411056E+03  0.17199892042E+03 0.  0.
        -24    2    5    5    0    0  0.24959921055E+01  0.98414583315E+02  0.34366703372E+03  0.36609417551E+03  0.78906622591E+02 0.  0.
          5    1    3    3  501    0  0.35093163029E+02 -0.72634156322E+01 -0.71225490738E+01  0.36838946827E+02  0.47000000000E+01 0. -1.
        -13    1    4    4    0    0 -0.92577330422E+02 -0.11897887256E+03  0.38098544525E+02  0.15549287224E+03  0.00000000000E+00 0.  1.
         14    1    4    4    0    0 -0.19773645352E+02 -0.22934670592E+02  0.56024936522E+02  0.63685082068E+02  0.00000000000E+00 0. -1.
         -5    1    5    5    0  502  0.74761820640E+02  0.50762375465E+02  0.78768945198E+02  0.11996993505E+03  0.47000000000E+01 0.  1.
         13    1    6    6    0    0  0.37978092560E+02  0.68110107392E+02  0.24143072491E+03  0.25371266657E+03  0.00000000000E+00 0. -1.
        -14    1    6    6    0    0 -0.35482100455E+02  0.30304475923E+02  0.10223630881E+03  0.11238150894E+03  0.00000000000E+00 0.  1.
</event>
<event>
12    1  0.1627564E-001  0.2093616E+03  0.7818608E-02  0.1142576E+00
         21   -1    0    0  501  502  0.00000000000E+00  0.00000000000E+00  0.26245513778E+04  0.26245513778E+04  0.00000000000E+00 0. -1.
         21   -1    0    0  502  503 -0.00000000000E+00 -0.00000000000E+00 -0.17447103695E+02  0.17447103695E+02  0.00000000000E+00 0.  1.
         -6    2    1    2    0  503  0.12440083958E+02  0.11639655629E+03  0.10033277939E+04  0.10249385002E+04  0.17357808984E+03 0.  0.
        -24    2    3    3    0    0  0.31299076768E+02  0.13854623085E+02  0.66781686340E+03  0.67356948601E+03  0.80900597440E+02 0.  0.
          6    2    1    2  501    0 -0.12440083958E+02 -0.11639655629E+03  0.16037764802E+04  0.16170599813E+04  0.17053172870E+03 0.  0.
         24    2    5    5    0    0 -0.29500173465E+01 -0.15021479743E+03  0.13936248442E+04  0.14039413877E+04  0.79297072902E+02 0.  0.
          5    1    5    5  501    0 -0.94900666115E+01  0.33818241145E+02  0.21015163604E+03  0.21311859357E+03  0.47000000000E+01 0. -1.
        -11    1    6    6    0    0  0.15733323920E+02  0.20925301985E+01  0.10083531953E+03  0.10207682317E+03  0.00000000000E+00 0.  1.
         12    1    6    6    0    0 -0.18683341267E+02 -0.15230732763E+03  0.12927895246E+04  0.13018645645E+04  0.00000000000E+00 0. -1.
         -5    1    3    3    0  503 -0.18858992810E+02  0.10254193320E+03  0.33551093049E+03  0.35136901421E+03  0.47000000000E+01 0.  1.
         11    1    4    4    0    0  0.57308493589E+02  0.12464973111E+02  0.37041403716E+03  0.37502826283E+03  0.00000000000E+00 0. -1.
        -12    1    4    4    0    0 -0.26009416821E+02  0.13896499735E+01  0.29740282623E+03  0.29854122318E+03  0.00000000000E+00 0.  1.
</event>
<event>
12    1  0.1627564E-001  0.1894663E+03  0.7818608E-02  0.1159112E+00
         21   -1    0    0  501  502  0.00000000000E+00  0.00000000000E+00  0.78748685697E+03  0.78748685697E+03  0.00000000000E+00 0.  1.
         21   -1    0    0  502  503 -0.00000000000E+00 -0.00000000000E+00 -0.46327439273E+02  0.46327439273E+02  0.00000000000E+00 0.  1.
         -6    2    1    2    0  503 -0.78093397311E+02 -0.97547854527E+01  0.31250706860E+03  0.36545608941E+03  0.17234776127E+03 0.  0.
        -24    2    3    3    0    0 -0.10958262471E+03 -0.45081687621E+02  0.22747206070E+03  0.26802609388E+03  0.77805773605E+02 0.  0.
          6    2    1    2  501    0  0.78093397311E+02  0.97547854527E+01  0.42865234909E+03  0.46835820684E+03  0.17153086890E+03 0.  0.
         24    2    5    5    0    0 -0.20932088825E+01 -0.29238691664E+02  0.13060646513E+03  0.15722508096E+03  0.82476631447E+02 0.  0.
          5    1    5    5  501    0  0.80186606194E+02  0.38993477117E+02  0.29804588397E+03  0.31113312588E+03  0.47000000000E+01 0. -1.
        -13    1    6    6    0    0  0.22440615115E+02 -0.28673974686E+02  0.15570607535E+02  0.39600780928E+02  0.00000000000E+00 0.  1.
         14    1    6    6    0    0 -0.24533823998E+02 -0.56471697770E+00  0.11503585759E+03  0.11762430003E+03  0.00000000000E+00 0. -1.
         -5    1    3    3    0  503  0.31489227396E+02  0.35326902168E+02  0.85035007906E+02  0.97429995527E+02  0.47000000000E+01 0.  1.
         13    1    4    4    0    0 -0.25129212799E+01  0.16496442930E+02  0.41970302299E+02  0.45165846364E+02  0.00000000000E+00 0. -1.
        -14    1    4    4    0    0 -0.10706970343E+03 -0.61578130551E+02  0.18550175840E+03  0.22286024752E+03  0.00000000000E+00 0.  1.
</event>
<event>
12    1  0.1627564E-001  0.1698424E+03  0.7818608E-02  0.1178834E+00
         21   -1    0    0  503  502  0.00000000000E+00  0.00000000000E+00  0.24699960658E+03  0.24699960658E+03  0.00000000000E+00 0. -1.
         21   -1    0    0  501  503 -0.00000000000E+00 -0.00000000000E+00 -0.15989714453E+03  0.15989714453E+03  0.00000000000E+00 0. -1.
          6    2    1    2  501    0  0.14024991683E+00  0.19176926552E+02  0.15205733322E+03  0.22796464574E+03  0.16875625305E+03 0.  0.
         24    2    3    3    0    0  0.45343029959E+02  0.29129077189E+02  0.15240331187E+03  0.18143996061E+03  0.82396579618E+02 0.  0.
         -6    2    1    2    0  502 -0.14024991683E+00 -0.19176926552E+02 -0.64954871166E+02  0.17893210537E+03  0.16561940968E+03 0.  0.
        -24    2    5    5    0    0 -0.34137788057E+02 -0.56432573016E+02 -0.73671200110E+01  0.10223624580E+03  0.77768577371E+02 0.  0.
          5    1    3    3  501    0 -0.45202780042E+02 -0.99521506365E+01 -0.34597865197E+00  0.46524685136E+02  0.47000000000E+01 0. -1.
        -13    1    4    4    0    0 -0.27752411670E+01 -0.15823840520E+02  0.72185705971E+00  0.16081572372E+02  0.00000000000E+00 0.  1.
         14    1    4    4    0    0  0.48118271126E+02  0.44952917709E+02  0.15168145481E+03  0.16535838824E+03  0.00000000000E+00 0. -1.
         -5    1    5    5    0  502  0.33997538140E+02  0.37255646464E+02 -0.57587751155E+02  0.76695859576E+02  0.47000000000E+01 0.  1.
         11    1    6    6    0    0 -0.32342393693E+02 -0.20965125985E+02 -0.38887775724E+02  0.54752406688E+02  0.00000000000E+00 0. -1.
        -12    1    6    6    0    0 -0.17953943646E+01 -0.35467447031E+02  0.31520655713E+02  0.47483839107E+02  0.00000000000E+00 0.  1.
</event>
<event>
12    1  0.1627564E-001  0.4923730E+03  0.7818608E-02  0.1015929E+00
         21   -1    0    0  501  502  0.00000000000E+00  0.00000000000E+00  0.42084818039E+03  0.42084818039E+03  0.00000000000E+00 0.  1.
         21   -1    0    0  502  503 -0.00000000000E+00 -0.00000000000E+00 -0.10662394693E+04  0.10662394693E+04  0.00000000000E+00 0. -1.
         -6    2    1    2    0  503  0.90740904573E+02 -0.44976317813E+03 -0.82848009800E+03  0.96374814184E+03  0.17863476694E+03 0.  0.
        -24    2    3    3    0    0  0.62613819702E+02 -0.28957189639E+03 -0.66830490872E+03  0.73542696256E+03  0.80305620247E+02 0.  0.
          6    2    1    2  501    0 -0.90740904573E+02  0.44976317813E+03  0.18308880909E+03  0.52333950786E+03  0.17274808336E+03 0.  0.
         24    2    5    5    0    0 -0.23004567743E+02  0.92283530227E+02  0.66612459909E+02  0.14128095225E+03  0.80483709942E+02 0.  0.
          5    1    5    5  501    0 -0.67736336830E+02  0.35747964791E+03  0.11647634918E+03  0.38205855561E+03  0.47000000000E+01 0. -1.
        -13    1    6    6    0    0 -0.30442685087E+02  0.84065403548E+02  0.82669082201E+02  0.12176997290E+03  0.00000000000E+00 0.  1.
         14    1    6    6    0    0  0.74381173437E+01  0.82181266785E+01 -0.16056622292E+02  0.19510979349E+02  0.00000000000E+00 0. -1.
         -5    1    3    3    0  503  0.28127084871E+02 -0.16019128174E+03 -0.16017518928E+03  0.22832117928E+03  0.47000000000E+01 0.  1.
         13    1    4    4    0    0 -0.16451632317E+02 -0.85308838468E+02 -0.16344571179E+03  0.18510201195E+03  0.00000000000E+00 0. -1.
        -14    1    4    4    0    0  0.79065452019E+02 -0.20426305792E+03 -0.50485919693E+03  0.55032495061E+03  0.00000000000E+00 0.  1.
</event>
<event>
12    1  0.1627564E-001  0.1733870E+03  0.7818608E-02  0.1174900E+00
         21   -1    0    0  503  502  0.00000000000E+00  0.00000000000E+00  0.14067506220E+04  0.14067506220E+04  0.00000000000E+00 0. -1.
         21   -1    0    0  501  503 -0.00000000000E+00 -0.00000000000E+00 -0.21828080380E+02  0.21828080380E+02  0.00000000000E+00 0. -1.
          6    2    1    2  501    0 -0.90054075813E+01 -0.14106760712E+02  0.81776034550E+03  0.83550533680E+03  0.17046139472E+03 0.  0.
         24    2    3    3    0    0  0.32927733529E+02  0.17135458140E+02  0.23823200208E+03  0.25360357930E+03  0.78628423969E+02 0.  0.
         -6    2    1    2    0  502  0.90054075813E+01  0.14106760712E+02  0.56716219615E+03  0.59307336561E+03  0.17257740926E+03 0.  0.
        -24    2    5    5    0    0  0.41288219518E+02  0.89558574872E+01  0.13201237397E+03  0.15667197985E+03  0.73033676709E+02 0.  0.
          5    1    3    3  501    0 -0.41933141110E+02 -0.31242218852E+02  0.57952834341E+03  0.58190175750E+03  0.47000000000E+01 0. -1.
        -13    1    4    4    0    0 -0.17097868193E+02 -0.83142850525E+01  0.17475181615E+02  0.25823369361E+02  0.00000000000E+00 0.  1.
         14    1    4    4    0    0  0.50025601722E+02  0.25449743192E+02  0.22075682047E+03  0.22778020994E+03  0.00000000000E+00 0. -1.
         -5    1    5    5    0  502 -0.32282811937E+02  0.51509032246E+01  0.43514982218E+03  0.43640138576E+03  0.47000000000E+01 0.  1.
         13    1    6    6    0    0  0.48006937612E+02  0.89873534885E+01  0.13878730152E+03  0.14713039674E+03  0.00000000000E+00 0. -1.
        -14    1    6    6    0    0 -0.67187180936E+01 -0.31496001250E-01 -0.67749275523E+01  0.95415831054E+01  0.00000000000E+00 0.  1.
</event>
<event>
12    1  0.1627564E-001  0.3080638E+03  0.7818608E-02  0.1081395E+00
         21   -1    0    0  501  502  0.00000000000E+00  0.00000000000E+00  0.64403098960E+03  0.64403098960E+03  0.00000000000E+00 0.  1.
         21   -1    0    0  502  503 -0.00000000000E+00 -0.00000000000E+00 -0.16729545224E+03  0.16729545224E+03  0.00000000000E+00 0. -1.
         -6    2    1    2    0  503 -0.42609507147E+01 -0.25500320144E+03  0.97037511217E+02  0.32298539895E+03  0.17279612527E+03 0.  0.
        -24    2    3    3    0    0 -0.64157391714E+01 -0.15629566662E+03 -0.12805332223E+02  0.17521747009E+03  0.77895366875E+02 0.  0.
          6    2    1    2  501    0  0.42609507147E+01  0.25500320144E+03  0.37969802614E+03  0.48834104288E+03  0.17106020772E+03 0.  0.
         24    2    5    5    0    0  0.35318937435E+02  0.24581409789E+03  0.27769367322E+03  0.38121487345E+03  0.80864117684E+02 0.  0.
          5    1    5    5  501    0 -0.31057986720E+02  0.91891035495E+01  0.10200435292E+03  0.10712616944E+03  0.47000000000E+01 0. -1.
        -11    1    6    6    0    0 -0.15126350428E+02  0.12658123234E+03  0.10366252573E+03  0.16430926358E+03  0.00000000000E+00 0.  1.
         12    1    6    6    0    0  0.50445287863E+02  0.11923286555E+03  0.17403114749E+03  0.21690560986E+03  0.00000000000E+00 0. -1.
         -5    1    3    3    0  503  0.21547884567E+01 -0.98707534823E+02  0.10984284344E+03  0.14776792886E+03  0.47000000000E+01 0.  1.
         11    1    4    4    0    0 -0.22662924220E+02 -0.15536746542E+03 -0.18223189727E+02  0.15806562590E+03  0.00000000000E+00 0. -1.
        -12    1    4    4    0    0  0.16247185048E+02 -0.92820119298E+00  0.54178575037E+01  0.17151844197E+02  0.00000000000E+00 0.  1.
</event>
<event>
12    1  0.1627564E-001  0.2121470E+03  0.7818608E-02  0.1139913E+00
         21   -1    0    0  503  502  0.00000000000E+00  0.00000000000E+00  0.15379276182E+03  0.15379276182E+03  0.00000000000E+00 0.  1.
         21   -1    0    0  501  503 -0.00000000000E+00 -0.00000000000E+00 -0.38427427672E+03  0.38427427672E+03  0.00000000000E+00 0. -1.
          6    2    1    2  501    0 -0.37325731121E+01 -0.12409169097E+03 -0.24675844089E+03  0.32529656939E+03  0.17180061129E+03 0.  0.
         24    2    3    3    0    0  0.22266254471E+02 -0.85272741229E+02 -0.60644797286E+02  0.13335067017E+03  0.79607683744E+02 0.  0.
         -6    2    1    2    0  502  0.37325731121E+01  0.12409169097E+03  0.16276925984E+02  0.21277046915E+03  0.17202806269E+03 0.  0.
        -24    2    5    5    0    0  0.27407083656E+02 -0.25119941701E+01 -0.10563337589E+02  0.81121446027E+02  0.75575436190E+02 0.  0.
          5    1    3    3  501    0 -0.25998827583E+02 -0.38818949740E+02 -0.18611364360E+03  0.19194589923E+03  0.47000000000E+01 0. -1.
        -11    1    4    4    0    0 -0.13525149118E+02 -0.72477399640E+02 -0.17358025628E+02  0.75744334249E+02  0.00000000000E+00 0.  1.
         12    1    4    4    0    0  0.35791403589E+02 -0.12795341589E+02 -0.43286771658E+02  0.57606335917E+02  0.00000000000E+00 0. -1.
         -5    1    5    5    0  502 -0.23674510544E+02  0.12660368514E+03  0.26840263573E+02  0.13164902312E+03  0.47000000000E+01 0.  1.
         13    1    6    6    0    0  0.10467670240E+01 -0.31371926098E+02  0.14617314524E+02  0.34625992436E+02  0.00000000000E+00 0. -1.
        -14    1    6    6    0    0  0.26360316632E+02  0.28859931928E+02 -0.25180652114E+02  0.46495453591E+02  0.00000000000E+00 0.  1.
</event>
<event>
12    1  0.1627564E-001  0.2081794E+03  0.7818608E-02  0.1143929E+00
         21   -1    0    0  503  502  0.00000000000E+00  0.00000000000E+00  0.19309726097E+03  0.19309726097E+03  0.00000000000E+00 0.  1.
         21   -1    0    0  501  503 -0.00000000000E+00 -0.00000000000E+00 -0.28114350612E+03  0.28114350612E+03  0.00000000000E+00 0. -1.
          6    2    1    2  501    0 -0.86154973219E+02 -0.64525903719E+02 -0.15532831475E+03  0.25974129781E+03  0.17819198849E+03 0.  0.
         24    2    3    3    0    0 -0.95104294434E+02  0.17415787587E+02 -0.83497459801E+02  0.15030504766E+03  0.79193718697E+02 0.  0.
         -6    2    1    2    0  502  0.86154973219E+02  0.64525903719E+02  0.67282069590E+02  0.21449946928E+03  0.17290712470E+03 0.  0.
        -24    2    5    5    0    0  0.15919552106E+02 -0.15886935405E+02  0.68277776454E+02  0.10762421252E+03  0.80095502422E+02 0.  0.
          5    1    3    3  501    0  0.89493212154E+01 -0.81941691307E+02 -0.71830854948E+02  0.10943625015E+03  0.47000000000E+01 0. -1.
        -13    1    4    4    0    0 -0.70936320713E+01 -0.22740750337E+01  0.15005051481E+02  0.16752390969E+02  0.00000000000E+00 0.  1.
         14    1    4    4    0    0 -0.88010662363E+02  0.19689862621E+02 -0.98502511283E+02  0.13355265669E+03  0.00000000000E+00 0. -1.
         -5    1    5    5    0  502  0.70235421113E+02  0.80412839125E+02 -0.99570686347E+00  0.10687525676E+03  0.47000000000E+01 0.  1.
         11    1    6    6    0    0 -0.36249274639E+01  0.26001818301E+02  0.13531606325E+01  0.26288128457E+02  0.00000000000E+00 0. -1.
        -12    1    6    6    0    0  0.19544479570E+02 -0.41888753706E+02  0.66924615821E+02  0.81336084068E+02  0.00000000000E+00 0.  1.
</event>
<event>
12    1  0.1627564E-001  0.2068407E+03  0.7818608E-02  0.1144277E+00
         21   -1    0    0  501  502  0.00000000000E+00  0.00000000000E+00  0.62166832195E+02  0.62166832195E+02  0.00000000000E+00 0.  1.
         21   -1    0    0  502  503 -0.00000000000E+00 -0.00000000000E+00 -0.90080776774E+03  0.90080776774E+03  0.00000000000E+00 0. -1.
         -6    2    1    2    0  503  0.52679998112E+02  0.99655690935E+02 -0.65560520129E+03  0.68746001170E+03  0.17342620562E+03 0.  0.
        -24    2    3    3    0    0  0.27103770385E+01  0.29388648369E+02 -0.51999412164E+03  0.52669037768E+03  0.78344295254E+02 0.  0.
          6    2    1    2  501    0 -0.52679998112E+02 -0.99655690935E+02 -0.18303573426E+03  0.27551458824E+03  0.17233621029E+03 0.  0.
         24    2    5    5    0    0 -0.45589576109E+02  0.10416388798E+01 -0.24400413527E+02  0.87425563305E+02  0.70486555296E+02 0.  0.
          5    1    5    5  501    0 -0.70904220023E+01 -0.10069732981E+03 -0.15863532073E+03  0.18808902493E+03  0.47000000000E+01 0. -1.
        -11    1    6    6    0    0 -0.39782254245E+02  0.32856641213E+02 -0.14209779593E+02  0.53517328602E+02  0.00000000000E+00 0.  1.
         12    1    6    6    0    0 -0.58073218647E+01 -0.31815002333E+02 -0.10190633934E+02  0.33908234703E+02  0.00000000000E+00 0. -1.
         -5    1    3    3    0  503  0.49969621073E+02  0.70267042565E+02 -0.13561107964E+03  0.16076963402E+03  0.47000000000E+01 0.  1.
         13    1    4    4    0    0 -0.96491142922E+00  0.53259805541E+02 -0.24966459748E+03  0.25528405586E+03  0.00000000000E+00 0. -1.
        -14    1    4    4    0    0  0.36752884677E+01 -0.23871157171E+02 -0.27032952416E+03  0.27140632182E+03  0.00000000000E+00 0.  1.
</event>
<event>
12    1  0.1627564E-001  0.2381438E+03  0.7818608E-02  0.1121257E+00
         21   -1    0    0  501  502  0.00000000000E+00  0.00000000000E+00  0.29068789499E+03  0.29068789499E+03  0.00000000000E+00 0. -1.
         21   -1    0    0  502  503 -0.00000000000E+00 -0.00000000000E+00 -0.20342383796E+03  0.20342383796E+03  0.00000000000E+00 0. -1.
         -6    2    1    2    0  503 -0.18337165437E+02 -0.16076402059E+03  0.96630013023E+02  0.25578382294E+03  0.17293548712E+03 0.  0.
        -24    2    3    3    0    0  0.14728677049E+02 -0.13959002518E+03  0.11322665067E+02  0.16175658414E+03  0.79590707431E+02 0.  0.
          6    2    1    2  501    0  0.18337165437E+02  0.16076402059E+03 -0.93659559974E+01  0.23832791002E+03  0.17473165028E+03 0.  0.
         24    2    5    5    0    0  0.61976102046E+02  0.16422717034E+03 -0.29319143800E+02  0.18998983084E+03  0.66520094177E+02 0.  0.
          5    1    5    5  501    0 -0.43638936609E+02 -0.34631497479E+01  0.19953187803E+02  0.48338079172E+02  0.47000000000E+01 0. -1.
        -13    1    6    6    0    0  0.51383714982E+02  0.46065829878E+02 -0.13269705396E+02  0.70273977609E+02  0.00000000000E+00 0.  1.
         14    1    6    6    0    0  0.10592387065E+02  0.11816134046E+03 -0.16049438404E+02  0.11971585324E+03  0.00000000000E+00 0. -1.
         -5    1    3    3    0  503 -0.33065842486E+02 -0.21173995406E+02  0.85307347956E+02  0.94027238799E+02  0.47000000000E+01 0.  1.
         13    1    4    4    0    0  0.13995650376E+02 -0.14879001031E+03  0.17768415251E+02  0.15049937534E+03  0.00000000000E+00 0. -1.
        -14    1    4    4    0    0  0.73302667247E+00  0.91999851274E+01 -0.64457501841E+01  0.11257208796E+02  0.00000000000E+00 0.  1.
</event>
<event>
12    1  0.1627564E-001  0.2797345E+03  0.7818608E-02  0.1095852E+00
         21   -1    0    0  501  502  0.00000000000E+00  0.00000000000E+00  0.36165834875E+03  0.36165834875E+03  0.00000000000E+00 0.  1.
         21   -1    0    0  502  503 -0.00000000000E+00 -0.00000000000E+00 -0.45549231723E+03  0.45549231723E+03  0.00000000000E+00 0. -1.
         -6    2    1    2    0  503  0.17680285299E+03 -0.13210784967E+03 -0.34300867346E+03  0.44253165988E+03  0.17166125702E+03 0.  0.
        -24    2    3    3    0    0  0.12968661806E+03 -0.15671638139E+02 -0.20156894897E+03  0.25331058121E+03  0.80448680666E+02 0.  0.
          6    2    1    2  501    0 -0.17680285299E+03  0.13210784967E+03  0.24917470498E+03  0.37461900610E+03  0.17187097882E+03 0.  0.
         24    2    5    5    0    0 -0.14254365903E+03  0.16483555906E+03  0.20111780716E+03  0.30697027544E+03  0.79327935716E+02 0.  0.
          5    1    5    5  501    0 -0.34259193962E+02 -0.32727709389E+02  0.48056897817E+02  0.67648730665E+02  0.47000000000E+01 0. -1.
        -13    1    6    6    0    0 -0.72772637257E+02  0.43229765708E+02  0.11370799623E+03  0.14175393393E+03  0.00000000000E+00 0.  1.
         14    1    6    6    0    0 -0.69771021771E+02  0.12160579335E+03  0.87409810929E+02  0.16521634151E+03  0.00000000000E+00 0. -1.
         -5    1    3    3    0  503  0.47116234934E+02 -0.11643621153E+03 -0.14143972448E+03  0.18922107867E+03  0.47000000000E+01 0.  1.
         11    1    4    4    0    0  0.75386864310E+02 -0.25172512167E+02 -0.17482009933E+03  0.19203880287E+03  0.00000000000E+00 0. -1.
        -12    1    4    4    0    0  0.54299753746E+02  0.95008740277E+01 -0.26748849646E+02  0.61271778344E+02  0.00000000000E+00 0.  1.
</event>
<event>
12    1  0.1627564E-001  0.2092694E+03  0.7818608E-02  0.1142168E+00
         21   -1    0    0  501  502  0.00000000000E+00  0.00000000000E+00  0.25047203055E+03  0.25047203055E+03  0.00000000000E+00 0. -1.
         21   -1    0    0  502  503 -0.00000000000E+00 -0.00000000000E+00 -0.19561615319E+03  0.19561615319E+03  0.00000000000E+00 0. -1.
         -6    2    1    2    0  503 -0.34106965976E+02 -0.11430182272E+03 -0.45412834356E+02  0.21414016298E+03  0.17194618946E+03 0.  0.
        -24    2    3    3    0    0  0.36409882617E+02 -0.71586135412E+02  0.12704457831E+02  0.11316013758E+03  0.78699168700E+02 0.  0.
          6    2    1    2  501    0  0.34106965976E+02  0.11430182272E+03  0.10026871171E+03  0.23194802076E+03  0.17180767730E+03 0.  0.
         24    2    5    5    0    0  0.24495729136E+02  0.51674418040E+02 -0.18798549200E+02  0.96989989090E+02  0.76048578592E+02 0.  0.
          5    1    5    5  501    0  0.96112368394E+01  0.62627404680E+02  0.11906726091E+03  0.13495803167E+03  0.47000000000E+01 0. -1.
        -11    1    6    6    0    0  0.14226910092E+02 -0.16318157854E+02  0.81525893499E+01  0.23133351673E+02  0.00000000000E+00 0.  1.
         12    1    6    6    0    0  0.10268819045E+02  0.67992575895E+02 -0.26951138550E+02  0.73856637417E+02  0.00000000000E+00 0. -1.
         -5    1    3    3    0  503 -0.70516848592E+02 -0.42715687309E+02 -0.58117292187E+02  0.10098002539E+03  0.47000000000E+01 0.  1.
         13    1    4    4    0    0  0.35330516761E+02 -0.56278078525E+02 -0.26131164014E+02  0.71402417815E+02  0.00000000000E+00 0. -1.
        -14    1    4    4    0    0  0.10793658559E+01 -0.15308056887E+02  0.38835621845E+02  0.41757719770E+02  0.00000000000E+00 0.  1.
</event>
<event>
12    1  0.1627564E-001  0.1742035E+03  0.7818608E-02  0.1173575E+00
         21   -1    0    0  501  502  0.00000000000E+00  0.00000000000E+00  0.50666112536E+03  0.50666112536E+03  0.00000000000E+00 0.  1.
         21   -1    0    0  502  503 -0.00000000000E+00 -0.00000000000E+00 -0.86755552206E+02  0.86755552206E+02  0.00000000000E+00 0.  1.
         -6    2    1    2    0  503 -0.19470915181E+02 -0.22668345531E+02  0.44621304290E+02  0.17967141659E+03  0.17145782781E+03 0.  0.
        -24    2    3    3    0    0 -0.49706492225E+02 -0.59576128751E+02 -0.45708273482E+01  0.11098131253E+03  0.79220633556E+02 0.  0.
          6    2    1    2  501    0  0.19470915181E+02  0.22668345531E+02  0.37528426886E+03  0.41374526097E+03  0.17162135093E+03 0.  0.
         24    2    5    5    0    0  0.67864732676E+02  0.54807084863E+02  0.23457286845E+03  0.26144080160E+03  0.75613647173E+02 0.  0.
          5    1    5    5  501    0 -0.48393817495E+02 -0.32138739331E+02  0.14071140041E+03  0.15230445937E+03  0.47000000000E+01 0. -1.
        -11    1    6    6    0    0  0.59477845891E+02  0.88830414599E+01  0.17916346619E+03  0.18898695774E+03  0.00000000000E+00 0.  1.
         12    1    6    6    0    0  0.83868867850E+01  0.45924043403E+02  0.55409402255E+02  0.72453843864E+02  0.00000000000E+00 0. -1.
         -5    1    3    3    0  503  0.30235577043E+02  0.36907783219E+02  0.49192131638E+02  0.68690104065E+02  0.47000000000E+01 0.  1.
         13    1    4    4    0    0  0.64569905050E+01  0.14960867165E+02  0.52946682316E+01  0.17133411347E+02  0.00000000000E+00 0. -1.
        -14    1    4    4    0    0 -0.56163482729E+02 -0.74536995916E+02 -0.98654955799E+01  0.93847901178E+02  0.00000000000E+00 0.  1.
</event>
<event>
12    1  0.1627564E-001  0.2218322E+03  0.7818608E-02  0.1132600E+00
         21   -1    0    0  501  502  0.00000000000E+00  0.00000000000E+00  0.17459159942E+03  0.17459159942E+03  0.00000000000E+00 0.  1.
         21   -1    0    0  502  503 -0.00000000000E+00 -0.00000000000E+00 -0.60018945395E+03  0.60018945395E+03  0.00000000000E+00 0.  1.
         -6    2    1    2    0  503  0.42990461870E+02 -0.13237691005E+03 -0.49506530045E+03  0.54232620889E+03  0.17220986911E+03 0.  0.
        -24    2    3    3    0    0  0.10794228749E+02 -0.15838507312E+03 -0.43093828035E+03  0.46585800191E+03  0.78189063846E+02 0.  0.
          6    2    1    2  501    0 -0.42990461870E+02  0.13237691005E+03  0.69467445920E+02  0.23245484448E+03  0.17273593301E+03 0.  0.
         24    2    5    5    0    0  0.33027238762E+00  0.15388210762E+03  0.58519795871E+02  0.18264419722E+03  0.79085549525E+02 0.  0.
          5    1    5    5  501    0 -0.43320734257E+02 -0.21505197566E+02  0.10947650049E+02  0.49810647261E+02  0.47000000000E+01 0. -1.
        -13    1    6    6    0    0 -0.38393126244E+02  0.95532542893E+02  0.33247163873E+02  0.10819368189E+03  0.00000000000E+00 0.  1.
         14    1    6    6    0    0  0.38723398631E+02  0.58349564728E+02  0.25272631998E+02  0.74450515334E+02  0.00000000000E+00 0. -1.
         -5    1    3    3    0  503  0.32196233120E+02  0.26008163069E+02 -0.64127020094E+02  0.76468206985E+02  0.47000000000E+01 0.  1.
         11    1    4    4    0    0 -0.23650517081E+02 -0.39161068499E+02 -0.18252808258E+03  0.18817395456E+03  0.00000000000E+00 0. -1.
        -12    1    4    4    0    0  0.34444745831E+02 -0.11922400462E+03 -0.24841019777E+03  0.27768404735E+03  0.00000000000E+00 0.  1.
</event>
<event>
12    1  0.1627564E-001  0.2003831E+03  0.7818608E-02  0.1150024E+00
         21   -1    0    0  503  502  0.00000000000E+00  0.00000000000E+00  0.11538368972E+03  0.11538368972E+03  0.00000000000E+00 0. -1.
         21   -1    0    0  501  503 -0.00000000000E+00 -0.00000000000E+00 -0.43654056074E+03  0.43654056074E+03  0.00000000000E+00 0. -1.
          6    2    1    2  501    0 -0.60250441452E+02  0.79918414613E+02 -0.28738389088E+03  0.34871502777E+03  0.17028094775E+03 0.  0.
         24    2    3    3    0    0  0.51594960380E+01  0.25058284116E+02 -0.52942827743E+02  0.99169849644E+02  0.79857235533E+02 0.  0.
         -6    2    1    2    0  502  0.60250441452E+02 -0.79918414613E+02 -0.33772980141E+02  0.20320922270E+03  0.17359811437E+03 0.  0.
        -24    2    5    5    0    0  0.10072225824E+03 -0.85510829449E+02 -0.42381719111E+02  0.16119204235E+03  0.82034073058E+02 0.  0.
          5    1    3    3  501    0 -0.65409937490E+02  0.54860130498E+02 -0.23444106314E+03  0.24954517813E+03  0.47000000000E+01 0. -1.
        -13    1    4    4    0    0 -0.26825819150E+02 -0.81621350233E+01  0.11798228281E+01  0.28064871336E+02  0.00000000000E+00 0.  1.
         14    1    4    4    0    0  0.31985315188E+02  0.33220419139E+02 -0.54122650571E+02  0.71104978308E+02  0.00000000000E+00 0. -1.
         -5    1    5    5    0  502 -0.40471816790E+02  0.55924148351E+01  0.86087389704E+01  0.42017180350E+02  0.47000000000E+01 0.  1.
         11    1    6    6    0    0 -0.66324743184E+01 -0.30495613967E+02 -0.23557816182E+02  0.39101699324E+02  0.00000000000E+00 0. -1.
        -12    1    6    6    0    0  0.10735473256E+03 -0.55015215482E+02 -0.18823902930E+02  0.12209034302E+03  0.00000000000E+00 0.  1.
</event>
<event>
12    1  0.1627564E-001  0.1761734E+03  0.7818608E-02  0.1171697E+00
         21   -1    0    0  501  502  0.00000000000E+00  0.00000000000E+00  0.10697890988E+04  0.10697890988E+04  0.00000000000E+00 0. -1.
         21   -1    0    0  502  503 -0.00000000000E+00 -0.00000000000E+00 -0.50406701136E+02  0.50406701136E+02  0.00000000000E+00 0. -1.
         -6    2    1    2    0  503 -0.41603256873E+02 -0.10902240520E+02  0.14355257136E+03  0.22682300788E+03  0.17026933466E+03 0.  0.
        -24    2    3    3    0    0 -0.31048261291E+02  0.50058579091E+02  0.44732834090E+02  0.11013941891E+03  0.81607654557E+02 0.  0.
          6    2    1    2  501    0  0.41603256873E+02  0.10902240520E+02  0.87582982632E+03  0.89337279208E+03  0.17084311845E+03 0.  0.
         24    2    5    5    0    0 -0.22239414348E+02  0.37091338042E+02  0.27670183465E+03  0.29026567398E+03  0.76288251282E+02 0.  0.
          5    1    5    5  501    0  0.63842671221E+02 -0.26189097522E+02  0.59912799167E+03  0.60310711810E+03  0.47000000000E+01 0. -1.
        -13    1    6    6    0    0 -0.69113748629E+01  0.58678182161E+02  0.21809100857E+03  0.22595261491E+03  0.00000000000E+00 0.  1.
         14    1    6    6    0    0 -0.15328039485E+02 -0.21586844119E+02  0.58610826082E+02  0.64313059074E+02  0.00000000000E+00 0. -1.
         -5    1    3    3    0  503 -0.10554995582E+02 -0.60960819611E+02  0.98819737271E+02  0.11668358897E+03  0.47000000000E+01 0.  1.
         11    1    4    4    0    0 -0.49866242126E+02  0.49818063177E+01  0.32676479481E+02  0.59826522623E+02  0.00000000000E+00 0. -1.
        -12    1    4    4    0    0  0.18817980834E+02  0.45076772774E+02  0.12056354609E+02  0.50312896287E+02  0.00000000000E+00 0.  1.
</event>
<event>
12    1  0.1627564E-001  0.1872700E+03  0.7818608E-02  0.1161599E+00
         21   -1    0    0  501  502  0.00000000000E+00  0.00000000000E+00  0.34313046963E+03  0.34313046963E+03  0.00000000000E+00 0. -1.
         21   -1    0    0  502  503 -0.00000000000E+00 -0.00000000000E+00 -0.10075832002E+03  0.10075832002E+03  0.00000000000E+00 0. -1.
         -6    2    1    2    0  503  0.68907286659E+02 -0.31001612707E+02  0.11392305930E+03  0.21680021007E+03  0.16826928865E+03 0.  0.
        -24    2    3    3    0    0  0.11063966920E+03 -0.13271396003E+02  0.10171651995E+03  0.16960866486E+03  0.77482787839E+02 0.  0.
          6    2    1    2  501    0 -0.68907286659E+02  0.31001612707E+02  0.12844909031E+03  0.22708857958E+03  0.17134975936E+03 0.  0.
         24    2    5    5    0    0 -0.62601148232E+02 -0.40588941088E+02  0.10421966185E+03  0.15110088335E+03  0.80021079328E+02 0.  0.
          5    1    5    5  501    0 -0.63061384267E+01  0.71590553794E+02  0.24229428460E+02  0.75987696227E+02  0.47000000000E+01 0. -1.
        -13    1    6    6    0    0  0.68592945825E+01 -0.22807830379E+02 -0.92640087157E+00  0.23834958933E+02  0.00000000000E+00 0.  1.
         14    1    6    6    0    0 -0.69460442815E+02 -0.17781110709E+02  0.10514606272E+03  0.12726592442E+03  0.00000000000E+00 0. -1.
         -5    1    3    3    0  503 -0.41732382540E+02 -0.17730216704E+02  0.12206539345E+02  0.47191545213E+02  0.47000000000E+01 0.  1.
         13    1    4    4    0    0  0.42350047311E+02  0.29738200135E+02  0.22191510589E+02  0.56305862898E+02  0.00000000000E+00 0. -1.
        -14    1    4    4    0    0  0.68289621888E+02 -0.43009596138E+02  0.79525009365E+02  0.11330280196E+03  0.00000000000E+00 0.  1.
</event>
<event>
12    1  0.1627564E-001  0.2159376E+03  0.7818608E-02  0.1137615E+00
         21   -1    0    0  503  502  0.00000000000E+00  0.00000000000E+00  0.12845955986E+03  0.12845955986E+03  0.00000000000E+00 0. -1.
         21   -1    0    0  501  503 -0.00000000000E+00 -0.00000000000E+00 -0.40490432156E+03  0.40490432156E+03  0.00000000000E+00 0.  1.
          6    2    1    2  501    0 -0.97143235913E+02 -0.82658663813E+02 -0.23074748161E+03  0.31602763868E+03  0.17424065297E+03 0.  0.
         24    2    3    3    0    0 -0.78559210326E+02 -0.27386687839E+02 -0.50195061070E+02  0.12623400364E+03  0.80584733802E+02 0.  0.
         -6    2    1    2    0  502  0.97143235913E+02  0.82658663813E+02 -0.45697280087E+02  0.21733624274E+03  0.16993392249E+03 0.  0.
        -24    2    5    5    0    0  0.87951877024E+02  0.12134332719E+03 -0.22975190144E+02  0.17129965262E+03  0.79724374564E+02 0.  0.
          5    1    3    3  501    0 -0.18584025587E+02 -0.55271975974E+02 -0.18055242054E+03  0.18979363503E+03  0.47000000000E+01 0. -1.
        -11    1    4    4    0    0  0.98090883097E+01 -0.10012871547E+02  0.10600835100E+02  0.17574228714E+02  0.00000000000E+00 0.  1.
         12    1    4    4    0    0 -0.88368298636E+02 -0.17373816292E+02 -0.60795896170E+02  0.10865977493E+03  0.00000000000E+00 0. -1.
         -5    1    5    5    0  502  0.91913588888E+01 -0.38684663375E+02 -0.22722089943E+02  0.46036590122E+02  0.47000000000E+01 0.  1.
         11    1    6    6    0    0  0.47892353260E+02  0.57212274788E+02  0.28453486032E+02  0.79853132403E+02  0.00000000000E+00 0. -1.
        -12    1    6    6    0    0  0.40059523764E+02  0.64131052400E+02 -0.51428676176E+02  0.91446520214E+02  0.00000000000E+00 0.  1.
</event>
<event>
12    1  0.1627564E-001  0.2224224E+03  0.7818608E-02  0.1132160E+00
         21   -1    0    0  503  502  0.00000000000E+00  0.00000000000E+00  0.20248039863E+04  0.20248039863E+04  0.00000000000E+00 0.  1.
         21   -1    0    0  501  503 -0.00000000000E+00 -0.00000000000E+00 -0.35505119903E+02  0.35505119903E+02  0.00000000000E+00 0.  1.
          6    2    1    2  501    0  0.44406187342E+00 -0.14137937613E+03  0.41887420408E+03  0.47426504964E+03  0.17170734777E+03 0.  0.
         24    2    3    3    0    0  0.59049563825E+02 -0.11767956502E+03  0.33865783742E+03  0.37202493332E+03  0.79862939783E+02 0.  0.
         -6    2    1    2    0  502 -0.44406187342E+00  0.14137937613E+03  0.15704246623E+04  0.15860440565E+04  0.17121274533E+03 0.  0.
        -24    2    5    5    0    0 -0.75727134717E+01  0.37598159951E+02  0.11299024161E+04  0.11333816018E+04  0.80021358782E+02 0.  0.
          5    1    3    3  501    0 -0.58605501952E+02 -0.23699811112E+02  0.80216366658E+02  0.10224011632E+03  0.47000000000E+01 0. -1.
        -13    1    4    4    0    0  0.50685280878E+02 -0.79722240635E+02  0.13549350238E+03  0.16517603500E+03  0.00000000000E+00 0.  1.
         14    1    4    4    0    0  0.83642829474E+01 -0.37957324381E+02  0.20316433504E+03  0.20684889832E+03  0.00000000000E+00 0. -1.
         -5    1    5    5    0  502  0.71286515983E+01  0.10378121618E+03  0.44052224622E+03  0.45266245473E+03  0.47000000000E+01 0.  1.
         11    1    6    6    0    0  0.32289017067E+02  0.13327903514E+02  0.27552414488E+03  0.27772966721E+03  0.00000000000E+00 0. -1.
        -12    1    6    6    0    0 -0.39861730539E+02  0.24270256437E+02  0.85437827118E+03  0.85565193459E+03  0.00000000000E+00 0.  1.
</event>
<event>
12    1  0.1627564E-001  0.1957900E+03  0.7818608E-02  0.1153714E+00
         21   -1    0    0  501  502  0.00000000000E+00  0.00000000000E+00  0.44822513032E+03  0.44822513032E+03  0.00000000000E+00 0.  1.
         21   -1    0    0  502  503 -0.00000000000E+00 -0.00000000000E+00 -0.12676937077E+03  0.12676937077E+03  0.00000000000E+00 0.  1.
         -6    2    1    2    0  503 -0.76479330436E+02 -0.52403692328E+02 -0.42681366370E+01  0.19583648674E+03  0.17244847809E+03 0.  0.
        -24    2    3    3    0    0  0.22082626067E+02 -0.41913312483E+02  0.16704243138E+02  0.94414408021E+02  0.79941732317E+02 0.  0.
          6    2    1    2  501    0  0.76479330436E+02  0.52403692328E+02  0.32572389618E+03  0.37915801435E+03  0.17049782506E+03 0.  0.
         24    2    5    5    0    0  0.21759454859E+02  0.51375562039E+02  0.30517768052E+03  0.32051026237E+03  0.80501486594E+02 0.  0.
          5    1    5    5  501    0  0.54719875577E+02  0.10281302893E+01  0.20546215664E+02  0.58647751987E+02  0.47000000000E+01 0. -1.
        -13    1    6    6    0    0  0.47520142567E+02  0.41564680038E+02  0.14753180202E+03  0.16047248731E+03  0.00000000000E+00 0.  1.
         14    1    6    6    0    0 -0.25760687708E+02  0.98108820013E+01  0.15764587850E+03  0.16003777506E+03  0.00000000000E+00 0. -1.
         -5    1    3    3    0  503 -0.98561956503E+02 -0.10490379845E+02 -0.20972379775E+02  0.10142207872E+03  0.47000000000E+01 0.  1.
         13    1    4    4    0    0 -0.12774301314E+02 -0.30732473699E+02 -0.22965128211E+02  0.40435934853E+02  0.00000000000E+00 0. -1.
        -14    1    4    4    0    0  0.34856927380E+02 -0.11180838784E+02  0.39669371349E+02  0.53978473168E+02  0.00000000000E+00 0.  1.
</event>
<event>
12    1  0.1627564E-001  0.2515525E+03  0.7818608E-02  0.1112863E+00
         21   -1    0    0  501  502  0.00000000000E+00  0.00000000000E+00  0.12223860344E+03  0.12223860344E+03  0.00000000000E+00 0. -1.
         21   -1    0    0  502  503 -0.00000000000E+00 -0.00000000000E+00 -0.10555470424E+04  0.10555470424E+04  0.00000000000E+00 0.  1.
         -6    2    1    2    0  503 -0.16073255770E+03  0.79721065906E+02 -0.88820634586E+03  0.92222183658E+03  0.17144153399E+03 0.  0.
        -24    2    3    3    0    0 -0.17880184630E+03  0.31870574385E+02 -0.66254793681E+03  0.69079155268E+03  0.72369654767E+02 0.  0.
          6    2    1    2  501    0  0.16073255770E+03 -0.79721065906E+02 -0.45102093140E+02  0.25556380930E+03  0.17631862739E+03 0.  0.
         24    2    5    5    0    0  0.83388783439E+02 -0.53636842078E+02  0.43841977182E+02  0.13475162533E+03  0.80033002788E+02 0.  0.
          5    1    5    5  501    0  0.77343774265E+02 -0.26084223828E+02 -0.88944070321E+02  0.12081218397E+03  0.47000000000E+01 0. -1.
        -13    1    6    6    0    0  0.26491738152E+02 -0.55231561168E+02 -0.25674969888E+01  0.61310109934E+02  0.00000000000E+00 0.  1.
         14    1    6    6    0    0  0.56897045287E+02  0.15947190897E+01  0.46409474171E+02  0.73441515399E+02  0.00000000000E+00 0. -1.
         -5    1    3    3    0  503  0.18069288599E+02  0.47850491520E+02 -0.22565840905E+03  0.23143028390E+03  0.47000000000E+01 0.  1.
         13    1    4    4    0    0 -0.43881196283E+02 -0.20746324370E+02 -0.12545475383E+03  0.13451715363E+03  0.00000000000E+00 0. -1.
        -14    1    4    4    0    0 -0.13492065002E+03  0.52616898755E+02 -0.53709318297E+03  0.55627439904E+03  0.00000000000E+00 0.  1.
</event>
<event>
12    1  0.1627564E-001  0.2342444E+03  0.7818608E-02  0.1123935E+00
         21   -1    0    0  501  502  0.00000000000E+00  0.00000000000E+00  0.69078111406E+02  0.69078111406E+02  0.00000000000E+00 0.  1.
         21   -1    0    0  502  503 -0.00000000000E+00 -0.00000000000E+00 -0.92456454475E+03  0.92456454475E+03  0.00000000000E+00 0.  1.
         -6    2    1    2    0  503  0.14779143156E+03  0.54925422846E+02 -0.23671499841E+03  0.33201700294E+03  0.17129562298E+03 0.  0.
        -24    2    3    3    0    0  0.94691631331E+01 -0.13163231883E+01 -0.64061272055E+02  0.10370234471E+03  0.80987233335E+02 0.  0.
          6    2    1    2  501    0 -0.14779143156E+03 -0.54925422846E+02 -0.61877143493E+03  0.66162565321E+03  0.17323771815E+03 0.  0.
         24    2    5    5    0    0 -0.15231702565E+03 -0.85976013416E+02 -0.58245413408E+03  0.61340059212E+03  0.80094425044E+02 0.  0.
          5    1    5    5  501    0  0.45255940893E+01  0.31050590569E+02 -0.36317300854E+02  0.48225061098E+02  0.47000000000E+01 0. -1.
        -11    1    6    6    0    0 -0.10611369757E+03 -0.14598820738E+02 -0.33964122966E+03  0.35613116581E+03  0.00000000000E+00 0.  1.
         12    1    6    6    0    0 -0.46203328080E+02 -0.71377192678E+02 -0.24281290442E+03  0.25726942630E+03  0.00000000000E+00 0. -1.
         -5    1    3    3    0  503  0.13832226842E+03  0.56241746035E+02 -0.17265372636E+03  0.22831465823E+03  0.47000000000E+01 0.  1.
         13    1    4    4    0    0  0.69461827841E+01  0.23198689816E+02 -0.73443071303E+02  0.77332485974E+02  0.00000000000E+00 0. -1.
        -14    1    4    4    0    0  0.25229803490E+01 -0.24515013004E+02  0.93817992489E+01  0.26369858732E+02  0.00000000000E+00 0.  1.
</event>
<event>
12    1  0.1627564E-001  0.3597705E+03  0.7818608E-02  0.1058804E+00
         21   -1    0    0  501  502  0.00000000000E+00  0.00000000000E+00  0.71906925816E+03  0.71906925816E+03  0.00000000000E+00 0. -1.
         21   -1    0    0  502  503 -0.00000000000E+00 -0.00000000000E+00 -0.24423191151E+03  0.24423191151E+03  0.00000000000E+00 0. -1.
         -6    2    1    2    0  503  0.30288329116E+03  0.90778935719E+02 -0.10509960666E+02  0.35992396184E+03  0.17162661739E+03 0.  0.
        -24    2    3    3    0    0  0.28388877793E+03  0.35361923661E+02 -0.30377053642E+02  0.29788664935E+03  0.77268276743E+02 0.  0.
          6    2    1    2  501    0 -0.30288329116E+03 -0.90778935719E+02  0.48534730731E+03  0.60337720783E+03  0.16888736773E+03 0.  0.
         24    2    5    5    0    0 -0.30662733357E+03 -0.68401493000E+02  0.39973811314E+03  0.51468790789E+03  0.80087436606E+02 0.  0.
          5    1    5    5  501    0  0.37440424023E+01 -0.22377442719E+02  0.85609194174E+02  0.88689299936E+02  0.47000000000E+01 0. -1.
        -11    1    6    6    0    0 -0.14384809395E+03 -0.29733175399E+02  0.12433095518E+03  0.19244355605E+03  0.00000000000E+00 0.  1.
         12    1    6    6    0    0 -0.16277923962E+03 -0.38668317601E+02  0.27540715796E+03  0.32224435184E+03  0.00000000000E+00 0. -1.
         -5    1    3    3    0  503  0.18994513235E+02  0.55417012058E+02  0.19867092977E+02  0.62037312496E+02  0.47000000000E+01 0.  1.
         11    1    4    4    0    0  0.12419609173E+03 -0.22040532175E+02 -0.43971930407E+01  0.12621327016E+03  0.00000000000E+00 0. -1.
        -12    1    4    4    0    0  0.15969268620E+03  0.57402455837E+02 -0.25979860602E+02  0.17167337918E+03  0.00000000000E+00 0.  1.
</event>
<event>
12    1  0.1627564E-001  0.1925946E+03  0.7818608E-02  0.1156357E+00
         21   -1    0    0  501  502  0.00000000000E+00  0.00000000000E+00  0.10519377603E+04  0.10519377603E+04  0.00000000000E+00 0.  1.
         21   -1    0    0  502  503 -0.00000000000E+00 -0.00000000000E+00 -0.63187590442E+02  0.63187590442E+02  0.00000000000E+00 0.  1.
         -6    2    1    2    0  503 -0.68743474560E+01  0.86545286959E+02  0.12322659275E+03  0.22864265091E+03  0.17191662313E+03 0.  0.
        -24    2    3    3    0    0 -0.41354014210E+02  0.12752522041E+02  0.77363987563E+02  0.13504944534E+03  0.10188417348E+03 0.  0.
          6    2    1    2  501    0  0.68743474560E+01 -0.86545286959E+02  0.86552357712E+03  0.88648269984E+03  0.17083082632E+03 0.  0.
         24    2    5    5    0    0 -0.18456203705E+01 -0.12654306632E+03  0.64663066852E+03  0.66374506129E+03  0.80060795458E+02 0.  0.
          5    1    5    5  501    0  0.87199678265E+01  0.39997779357E+02  0.21889290859E+03  0.22273763855E+03  0.47000000000E+01 0. -1.
        -11    1    6    6    0    0  0.28020369580E+02 -0.22355364801E+02  0.25061948987E+03  0.25316996692E+03  0.00000000000E+00 0.  1.
         12    1    6    6    0    0 -0.29865989950E+02 -0.10418770151E+03  0.39601117865E+03  0.41057509437E+03  0.00000000000E+00 0. -1.
         -5    1    3    3    0  503  0.34479666754E+02  0.73792764918E+02  0.45862605185E+02  0.93593205565E+02  0.47000000000E+01 0.  1.
         11    1    4    4    0    0  0.22071969724E+02  0.28396055653E+02  0.55551063336E+02  0.66177250336E+02  0.00000000000E+00 0. -1.
        -12    1    4    4    0    0 -0.63425983934E+02 -0.15643533612E+02  0.21812924227E+02  0.68872195008E+02  0.00000000000E+00 0.  1.
</event>
<event>
12    1  0.1627564E-001  0.3805660E+03  0.7818608E-02  0.1051139E+00
         21   -1    0    0  501  502  0.00000000000E+00  0.00000000000E+00  0.44788903316E+03  0.44788903316E+03  0.00000000000E+00 0. -1.
         21   -1    0    0  502  503 -0.00000000000E+00 -0.00000000000E+00 -0.83282975898E+03  0.83282975898E+03  0.00000000000E+00 0.  1.
         -6    2    1    2    0  503  0.22257553614E+03  0.25292872966E+03 -0.69473328719E+03  0.79000306281E+03  0.16714570692E+03 0.  0.
        -24    2    3    3    0    0  0.20458188768E+03  0.25923219034E+03 -0.69089070407E+03  0.76999405368E+03  0.80658542351E+02 0.  0.
          6    2    1    2  501    0 -0.22257553614E+03 -0.25292872966E+03  0.30979256137E+03  0.49071572932E+03  0.17696803200E+03 0.  0.
         24    2    5    5    0    0 -0.24931219365E+02 -0.53881594982E+02  0.95896158141E+02  0.13793137722E+03  0.79398990536E+02 0.  0.
          5    1    5    5  501    0 -0.19764431677E+03 -0.19904713467E+03  0.21389640323E+03  0.35278435211E+03  0.47000000000E+01 0. -1.
        -11    1    6    6    0    0 -0.40978052419E+02 -0.62035580661E+02  0.52688974823E+02  0.91124871007E+02  0.00000000000E+00 0.  1.
         12    1    6    6    0    0  0.16046833054E+02  0.81539856787E+01  0.43207183318E+02  0.46806506212E+02  0.00000000000E+00 0. -1.
         -5    1    3    3    0  503  0.17993648457E+02 -0.63034606859E+01 -0.38425831259E+01  0.20009009133E+02  0.47000000000E+01 0.  1.
         11    1    4    4    0    0  0.74344087758E+02  0.41383228114E+02 -0.14832370856E+03  0.17099572356E+03  0.00000000000E+00 0. -1.
        -12    1    4    4    0    0  0.13023779992E+03  0.21784896223E+03 -0.54256699551E+03  0.59899833012E+03  0.00000000000E+00 0.  1.
</event>
<event>
12    1  0.1627564E-001  0.2229761E+03  0.7818608E-02  0.1131795E+00
         21   -1    0    0  503  502  0.00000000000E+00  0.00000000000E+00  0.71040608003E+03  0.71040608003E+03  0.00000000000E+00 0.  1.
         21   -1    0    0  501  503 -0.00000000000E+00 -0.00000000000E+00 -0.91165754700E+02  0.91165754700E+02  0.00000000000E+00 0. -1.
          6    2    1    2  501    0  0.92553994027E+02  0.11174175758E+03  0.11524590733E+03  0.25045596748E+03  0.16850552007E+03 0.  0.
         24    2    3    3    0    0  0.84134140316E+02  0.13493241940E+03  0.13108408851E+03  0.22076356585E+03  0.79171979740E+02 0.  0.
         -6    2    1    2    0  502 -0.92553994027E+02 -0.11174175758E+03  0.50399441801E+03  0.55111586725E+03  0.16930996294E+03 0.  0.
        -24    2    5    5    0    0  0.29894784231E+01 -0.97109354313E+02  0.30685116263E+03  0.33150208013E+03  0.79352564194E+02 0.  0.
          5    1    3    3  501    0  0.84198537111E+01 -0.23190661812E+02 -0.15838181181E+02  0.29692401636E+02  0.47000000000E+01 0. -1.
        -11    1    4    4    0    0  0.44496568643E+02  0.50518205527E+02  0.10358054458E+03  0.12353526997E+03  0.00000000000E+00 0.  1.
         12    1    4    4    0    0  0.39637571673E+02  0.84414213869E+02  0.27503543926E+02  0.97228295880E+02  0.00000000000E+00 0. -1.
         -5    1    5    5    0  502 -0.95543472450E+02 -0.14632403271E+02  0.19714325538E+03  0.21961378712E+03  0.47000000000E+01 0.  1.
         11    1    6    6    0    0 -0.13591662328E+02 -0.10226265766E+03  0.22072409613E+03  0.24364217831E+03  0.00000000000E+00 0. -1.
        -12    1    6    6    0    0  0.16581140751E+02  0.51533033504E+01  0.86127066494E+02  0.87859901815E+02  0.00000000000E+00 0.  1.
</event>
<event>
12    1  0.1627564E-001  0.2154794E+03  0.7818608E-02  0.1137383E+00
         21   -1    0    0  501  502  0.00000000000E+00  0.00000000000E+00  0.11671881609E+03  0.11671881609E+03  0.00000000000E+00 0.  1.
         21   -1    0    0  502  503 -0.00000000000E+00 -0.00000000000E+00 -0.43426687235E+03  0.43426687235E+03  0.00000000000E+00 0. -1.
         -6    2    1    2    0  503 -0.52000267593E+02 -0.12066313613E+03 -0.23933598142E+03  0.32175112210E+03  0.17023058574E+03 0.  0.
        -24    2    3    3    0    0 -0.56056031874E+02 -0.84933816347E+02 -0.25205762516E+03  0.28331983620E+03  0.79881482920E+02 0.  0.
          6    2    1    2  501    0  0.52000267593E+02  0.12066313613E+03 -0.78212074843E+02  0.22923456633E+03  0.17078564781E+03 0.  0.
         24    2    5    5    0    0  0.24501607337E+02  0.78820470156E+02  0.22862762576E+02  0.11633993506E+03  0.78735502149E+02 0.  0.
          5    1    5    5  501    0  0.27498660255E+02  0.41842665979E+02 -0.10107483742E+03  0.11289463128E+03  0.47000000000E+01 0. -1.
        -11    1    6    6    0    0  0.32935463722E+02  0.81866019912E+02 -0.36840011310E+01  0.88319657218E+02  0.00000000000E+00 0.  1.
         12    1    6    6    0    0 -0.84338563853E+01 -0.30455497557E+01  0.26546763707E+02  0.28020277838E+02  0.00000000000E+00 0. -1.
         -5    1    3    3    0  503  0.40557642813E+01 -0.35729319788E+02  0.12721643744E+02  0.38431285900E+02  0.47000000000E+01 0.  1.
         11    1    4    4    0    0 -0.68146188368E+02 -0.33466104505E+02 -0.13516553816E+03  0.15502775831E+03  0.00000000000E+00 0. -1.
        -12    1    4    4    0    0  0.12090156494E+02 -0.51467711841E+02 -0.11689208700E+03  0.12829207789E+03  0.00000000000E+00 0.  1.
</event>
<event>
12    1  0.1627564E-001  0.1908994E+03  0.7818608E-02  0.1157893E+00
         21   -1    0    0  503  502  0.00000000000E+00  0.00000000000E+00  0.79147968171E+03  0.79147968171E+03  0.00000000000E+00 0. -1.
         21   -1    0    0  501  503 -0.00000000000E+00 -0.00000000000E+00 -0.51976753224E+02  0.51976753224E+02  0.00000000000E+00 0. -1.
          6    2    1    2  501    0  0.83218683559E+02 -0.73829245853E+01  0.22329931229E+03  0.29308496747E+03  0.17045925736E+03 0.  0.
         24    2    3    3    0    0  0.88729989263E+01  0.29843291516E+02  0.17639645048E+03  0.19750756201E+03  0.83211640715E+02 0.  0.
         -6    2    1    2    0  502 -0.83218683559E+02  0.73829245853E+01  0.51620361620E+03  0.55037146746E+03  0.17164708547E+03 0.  0.
        -24    2    5    5    0    0 -0.11472764072E+03 -0.15989970825E+02  0.31078814169E+03  0.34119041242E+03  0.80021983240E+02 0.  0.
          5    1    3    3  501    0  0.74345684633E+02 -0.37226216102E+02  0.46902861803E+02  0.95577405458E+02  0.47000000000E+01 0. -1.
        -13    1    4    4    0    0 -0.21820380064E+02 -0.86478390536E+01  0.12948268865E+02  0.26806189081E+02  0.00000000000E+00 0.  1.
         14    1    4    4    0    0  0.30693378990E+02  0.38491130570E+02  0.16344818162E+03  0.17070137293E+03  0.00000000000E+00 0. -1.
         -5    1    5    5    0  502  0.31508957157E+02  0.23372895410E+02  0.20541547451E+03  0.20918105504E+03  0.47000000000E+01 0.  1.
         11    1    6    6    0    0 -0.55306329719E+02 -0.34479877017E+02  0.85753187093E+02  0.10770915060E+03  0.00000000000E+00 0. -1.
        -12    1    6    6    0    0 -0.59421310996E+02  0.18489906192E+02  0.22503495460E+03  0.23348126182E+03  0.00000000000E+00 0.  1.
</event>
<event>
12    1  0.1627564E-001  0.1885572E+03  0.7818608E-02  0.1159801E+00
         21   -1    0    0  503  502  0.00000000000E+00  0.00000000000E+00  0.16080839772E+03  0.16080839772E+03  0.00000000000E+00 0.  1.
         21   -1    0    0  501  503 -0.00000000000E+00 -0.00000000000E+00 -0.23686803109E+03  0.23686803109E+03  0.00000000000E+00 0.  1.
          6    2    1    2  501    0 -0.69898577358E+02  0.32925508395E+02 -0.89623671267E+02  0.20877313431E+03  0.17199976435E+03 0.  0.
         24    2    3    3    0    0 -0.79064811044E+01  0.29335105426E+02  0.11664850123E+00  0.99542525118E+02  0.94792614935E+02 0.  0.
         -6    2    1    2    0  502  0.69898577358E+02 -0.32925508395E+02  0.13564037896E+02  0.18890329451E+03  0.17184461392E+03 0.  0.
        -24    2    5    5    0    0  0.64978630414E+02 -0.17902108100E+02  0.72088338857E+02  0.12809957557E+03  0.81670464527E+02 0.  0.
          5    1    3    3  501    0 -0.61992096253E+02  0.35904029690E+01 -0.89740319769E+02  0.10923060919E+03  0.47000000000E+01 0. -1.
        -13    1    4    4    0    0 -0.23665274862E+02  0.28997906251E+02 -0.40995817642E+02  0.55511988483E+02  0.00000000000E+00 0.  1.
         14    1    4    4    0    0  0.15758793757E+02  0.33719917440E+00  0.41112466144E+02  0.44030536635E+02  0.00000000000E+00 0. -1.
         -5    1    5    5    0  502  0.49199469439E+01 -0.15023400295E+02 -0.58524300961E+02  0.60803718943E+02  0.47000000000E+01 0.  1.
         13    1    6    6    0    0  0.40804879408E+02  0.22275758231E+02  0.57220812331E+01  0.46840044854E+02  0.00000000000E+00 0. -1.
        -14    1    6    6    0    0  0.24173751005E+02 -0.40177866331E+02  0.66366257624E+02  0.81259530712E+02  0.00000000000E+00 0.  1.
</event>
<event>
12    1  0.1627564E-001  0.1936229E+03  0.7818608E-02  0.1155441E+00
         21   -1    0    0  503  502  0.00000000000E+00  0.00000000000E+00  0.28767102998E+02  0.28767102998E+02  0.00000000000E+00 0.  1.
         21   -1    0    0  501  503 -0.00000000000E+00 -0.00000000000E+00 -0.13414717579E+04  0.13414717579E+04  0.00000000000E+00 0.  1.
          6    2    1    2  501    0  0.83504856696E+02 -0.33715647199E+02 -0.77967491287E+03  0.80313169837E+03  0.17034596918E+03 0.  0.
         24    2    3    3    0    0 -0.15835219736E+02  0.13319005036E+02 -0.34156670236E+03  0.35142205334E+03  0.80009357803E+02 0.  0.
         -6    2    1    2    0  502 -0.83504856696E+02  0.33715647199E+02 -0.53302974202E+03  0.56710716251E+03  0.17140601488E+03 0.  0.
        -24    2    5    5    0    0  0.21725135743E+02 -0.32787718708E+01 -0.23143900025E+03  0.24551580089E+03  0.78938366973E+02 0.  0.
          5    1    3    3  501    0  0.99340076432E+02 -0.47034652235E+02 -0.43810821051E+03  0.45170964503E+03  0.47000000000E+01 0. -1.
        -13    1    4    4    0    0  0.17887856562E+02  0.36036257893E+02 -0.13395721589E+03  0.13986823437E+03  0.00000000000E+00 0.  1.
         14    1    4    4    0    0 -0.33723076298E+02 -0.22717252856E+02 -0.20760948647E+03  0.21155381898E+03  0.00000000000E+00 0. -1.
         -5    1    5    5    0  502 -0.10522999244E+03  0.36994419069E+02 -0.30159074176E+03  0.32159136162E+03  0.47000000000E+01 0.  1.
         13    1    6    6    0    0  0.30383271600E+02  0.13982804091E+02 -0.22109137748E+03  0.22360693012E+03  0.00000000000E+00 0. -1.
        -14    1    6    6    0    0 -0.86581358565E+01 -0.17261575962E+02 -0.10347622774E+02  0.21908870767E+02  0.00000000000E+00 0.  1.
</event>
<event>
12    1  0.1627564E-001  0.2091011E+03  0.7818608E-02  0.1142449E+00
         21   -1    0    0  503  502  0.00000000000E+00  0.00000000000E+00  0.17999753958E+03  0.17999753958E+03  0.00000000000E+00 0.  1.
         21   -1    0    0  501  503 -0.00000000000E+00 -0.00000000000E+00 -0.25796905281E+03  0.25796905281E+03  0.00000000000E+00 0.  1.
          6    2    1    2  501    0 -0.11362475923E+03 -0.33559139786E+02 -0.93517538697E+02  0.22828838951E+03  0.17126954478E+03 0.  0.
         24    2    3    3    0    0 -0.10047219943E+03 -0.81820684050E+02 -0.92605444668E+02  0.17803813180E+03  0.79577137400E+02 0.  0.
         -6    2    1    2    0  502  0.11362475923E+03  0.33559139786E+02  0.15546025465E+02  0.20967820287E+03  0.17229761484E+03 0.  0.
        -24    2    5    5    0    0 -0.57833267283E+01  0.24704347779E+02  0.15749196040E+02  0.89849868946E+02  0.84742020902E+02 0.  0.
          5    1    3    3  501    0 -0.13152559794E+02  0.48261544264E+02 -0.91209402842E+00  0.50250257705E+02  0.47000000000E+01 0. -1.
        -13    1    4    4    0    0 -0.76041303189E+02 -0.40004284465E+02 -0.96792590537E+02  0.12942730836E+03  0.00000000000E+00 0.  1.
         14    1    4    4    0    0 -0.24430896245E+02 -0.41816399585E+02  0.41871458684E+01  0.48610823446E+02  0.00000000000E+00 0. -1.
         -5    1    5    5    0  502  0.11940808596E+03  0.88547920077E+01 -0.20317057497E+00  0.11982833393E+03  0.47000000000E+01 0.  1.
         13    1    6    6    0    0  0.19905547899E+02 -0.87130279287E+01 -0.23675661408E+02  0.32135410935E+02  0.00000000000E+00 0. -1.
        -14    1    6    6    0    0 -0.25688874627E+02  0.33417375707E+02  0.39424857448E+02  0.57714458011E+02  0.00000000000E+00 0.  1.
</event>
<event>
12    1  0.1627564E-001  0.1876014E+03  0.7818608E-02  0.1162181E+00
         21   -1    0    0  503  502  0.00000000000E+00  0.00000000000E+00  0.11452344006E+04  0.11452344006E+04  0.00000000000E+00 0.  1.
         21   -1    0    0  501  503 -0.00000000000E+00 -0.00000000000E+00 -0.99815552906E+02  0.99815552906E+02  0.00000000000E+00 0.  1.
          6    2    1    2  501    0  0.36174679735E+02 -0.40524307831E+02  0.36148017326E+01  0.18763625525E+03  0.17956466945E+03 0.  0.
         24    2    3    3    0    0 -0.27935806784E+02  0.24820230858E+02  0.30742107614E+02  0.92043138646E+02  0.78296928617E+02 0.  0.
         -6    2    1    2    0  502 -0.36174679735E+02  0.40524307831E+02  0.10418040460E+04  0.10574136982E+04  0.17267666922E+03 0.  0.
        -24    2    5    5    0    0  0.25317627823E+02  0.67566013961E+02  0.76973318900E+03  0.77713312638E+03  0.78997249037E+02 0.  0.
          5    1    3    3  501    0  0.64110486519E+02 -0.65344538689E+02 -0.27127305881E+02  0.95593116607E+02  0.47000000000E+01 0. -1.
        -13    1    4    4    0    0  0.25444523846E+02  0.12578317391E+02  0.23402492113E+02  0.36787423112E+02  0.00000000000E+00 0.  1.
         14    1    4    4    0    0 -0.53380330630E+02  0.12241913467E+02  0.73396155011E+01  0.55255715534E+02  0.00000000000E+00 0. -1.
         -5    1    5    5    0  502 -0.61492307559E+02 -0.27041706130E+02  0.27207085696E+03  0.28028057186E+03  0.47000000000E+01 0.  1.
         13    1    6    6    0    0 -0.24352269488E+02  0.25813464451E+02  0.15632036639E+03  0.16029792552E+03  0.00000000000E+00 0. -1.
        -14    1    6    6    0    0  0.49669897311E+02  0.41752549510E+02  0.61341282261E+03  0.61683520087E+03  0.00000000000E+00 0.  1.
</event>
<event>
12    1  0.1627564E-001  0.1858125E+03  0.7818608E-02  0.1162468E+00
         21   -1    0    0  501  502  0.00000000000E+00  0.00000000000E+00  0.66129459093E+02  0.66129459093E+02  0.00000000000E+00 0.  1.
         21   -1    0    0  502  503 -0.00000000000E+00 -0.00000000000E+00 -0.18396700797E+04  0.18396700797E+04  0.00000000000E+00 0. -1.
         -6    2    1    2    0  503 -0.16444839429E+02  0.65842186137E+02 -0.16943495836E+04  0.17045077868E+04  0.17297588739E+03 0.  0.
        -24    2    3    3    0    0 -0.72510545421E+02  0.52753476360E+02 -0.12858903592E+04  0.12919842048E+04  0.87569749964E+02 0.  0.
          6    2    1    2  501    0  0.16444839429E+02 -0.65842186137E+02 -0.79191036961E+02  0.20129175194E+03  0.17216713637E+03 0.  0.
         24    2    5    5    0    0 -0.13579969943E+02 -0.61302492095E+02  0.13821570038E+02  0.10333496014E+03  0.80899116606E+02 0.  0.
          5    1    5    5  501    0  0.30024809372E+02 -0.45396940421E+01 -0.93012606999E+02  0.97956791805E+02  0.47000000000E+01 0. -1.
        -13    1    6    6    0    0  0.29291584549E+02 -0.49858400596E+02  0.45568415837E+01  0.58005360447E+02  0.00000000000E+00 0.  1.
         14    1    6    6    0    0 -0.42871554492E+02 -0.11444091499E+02  0.92647284542E+01  0.45329599691E+02  0.00000000000E+00 0. -1.
         -5    1    3    3    0  503  0.56065705992E+02  0.13088709777E+02 -0.40845922440E+03  0.41252358201E+03  0.47000000000E+01 0.  1.
         13    1    4    4    0    0 -0.29428550200E+02  0.60302914069E+02 -0.45262519351E+03  0.45757190343E+03  0.00000000000E+00 0. -1.
        -14    1    4    4    0    0 -0.43081995221E+02 -0.75494377089E+01 -0.83326516571E+03  0.83441230139E+03  0.00000000000E+00 0.  1.
</event>
<event>
12    1  0.1627564E-001  0.1766916E+03  0.7818608E-02  0.1171173E+00
         21   -1    0    0  503  502  0.00000000000E+00  0.00000000000E+00  0.18589209804E+02  0.18589209804E+02  0.00000000000E+00 0. -1.
         21   -1    0    0  501  503 -0.00000000000E+00 -0.00000000000E+00 -0.18557656711E+04  0.18557656711E+04  0.00000000000E+00 0. -1.
          6    2    1    2  501    0  0.10090949063E-01  0.41953218407E+02 -0.62693961144E+03  0.65136256124E+03  0.17163868200E+03 0.  0.
         24    2    3    3    0    0  0.14721215555E+02  0.92297676069E+02 -0.40380067965E+03  0.42209404076E+03  0.79829913962E+02 0.  0.
         -6    2    1    2    0  502 -0.10090949063E-01 -0.41953218407E+02 -0.12102368499E+04  0.12229923197E+04  0.17110496359E+03 0.  0.
        -24    2    5    5    0    0  0.64660955098E+02 -0.30181642497E+02 -0.85484616885E+03  0.86154309731E+03  0.80016032508E+02 0.  0.
          5    1    3    3  501    0 -0.14711124606E+02 -0.50344457662E+02 -0.22313893179E+03  0.22926852048E+03  0.47000000000E+01 0. -1.
        -11    1    4    4    0    0 -0.18646491538E+02  0.55045585290E+02 -0.31375536007E+03  0.31909267319E+03  0.00000000000E+00 0.  1.
         12    1    4    4    0    0  0.33367707093E+02  0.37252090779E+02 -0.90045319574E+02  0.10300136757E+03  0.00000000000E+00 0. -1.
         -5    1    5    5    0  502 -0.64671046047E+02 -0.11771575910E+02 -0.35539068100E+03  0.36144922235E+03  0.47000000000E+01 0.  1.
         11    1    6    6    0    0 -0.77626518606E+00 -0.28494526810E+02 -0.49302442466E+03  0.49384777407E+03  0.00000000000E+00 0. -1.
        -12    1    6    6    0    0  0.65437220284E+02 -0.16871156873E+01 -0.36182174419E+03  0.36769532323E+03  0.00000000000E+00 0.  1.
</event>
<event>
12    1  0.1627564E-001  0.2026196E+03  0.7818608E-02  0.1147590E+00
         21   -1    0    0  501  502  0.00000000000E+00  0.00000000000E+00  0.90135684618E+02  0.90135684618E+02  0.00000000000E+00 0. -1.
         21   -1    0    0  502  503 -0.00000000000E+00 -0.00000000000E+00 -0.45677588077E+03  0.45677588077E+03  0.00000000000E+00 0.  1.
         -6    2    1    2    0  503  0.12248476223E+02 -0.10532537140E+03 -0.16643443944E+03  0.26221199082E+03  0.17265933647E+03 0.  0.
        -24    2    3    3    0    0  0.67467120487E+02 -0.27678378172E+02 -0.77010466894E+02  0.13145691024E+03  0.77668541087E+02 0.  0.
          6    2    1    2  501    0 -0.12248476223E+02  0.10532537140E+03 -0.20020575672E+03  0.28469957457E+03  0.17241822324E+03 0.  0.
         24    2    5    5    0    0  0.27864743166E+02  0.25159230280E+02 -0.62172500279E+02  0.12004554202E+03  0.95582851951E+02 0.  0.
          5    1    5    5  501    0 -0.40113219389E+02  0.80166141121E+02 -0.13803325644E+03  0.16465403255E+03  0.47000000000E+01 0. -1.
        -13    1    6    6    0    0  0.50585394507E+02  0.45537969339E+02 -0.57638848747E+02  0.89189829431E+02  0.00000000000E+00 0.  1.
         14    1    6    6    0    0 -0.22720651340E+02 -0.20378739059E+02 -0.45336515315E+01  0.30855712586E+02  0.00000000000E+00 0. -1.
         -5    1    3    3    0  503 -0.55218644265E+02 -0.77646993229E+02 -0.89423972542E+02  0.13075508058E+03  0.47000000000E+01 0.  1.
         13    1    4    4    0    0  0.67253428964E+02  0.49835657890E+00 -0.23974956092E+02  0.71400774410E+02  0.00000000000E+00 0. -1.
        -14    1    4    4    0    0  0.21369152302E+00 -0.28176734751E+02 -0.53035510801E+02  0.60056135834E+02  0.00000000000E+00 0.  1.
</event>
<event>
12    1  0.1627564E-001  0.1807168E+03  0.7818608E-02  0.1167161E+00
         21   -1    0    0  503  502  0.00000000000E+00  0.00000000000E+00  0.23251838986E+03  0.23251838986E+03  0.00000000000E+00 0.  1.
         21   -1    0    0  501  503 -0.00000000000E+00 -0.00000000000E+00 -0.34588434820E+03  0.34588434820E+03  0.00000000000E+00 0.  1.
          6    2    1    2  501    0 -0.71331673224E+01  0.52753953942E+02 -0.27963455978E+03  0.33283442956E+03  0.17248016914E+03 0.  0.
         24    2    3    3    0    0  0.18832739233E+02  0.97674150674E+02 -0.21239386835E+03  0.24777296378E+03  0.79908538272E+02 0.  0.
         -6    2    1    2    0  502  0.71331673224E+01 -0.52753953942E+02  0.16626860144E+03  0.24556830851E+03  0.17269824720E+03 0.  0.
        -24    2    5    5    0    0  0.25054152441E+02  0.32502333087E+01  0.22182242390E+02  0.89874379401E+02  0.83349130915E+02 0.  0.
          5    1    3    3  501    0 -0.25965906556E+02 -0.44920196731E+02 -0.67240691426E+02  0.85061465783E+02  0.47000000000E+01 0. -1.
        -13    1    4    4    0    0 -0.87033601241E+01  0.63642325503E+02 -0.18570889041E+03  0.19650416293E+03  0.00000000000E+00 0.  1.
         14    1    4    4    0    0  0.27536099358E+02  0.34031825171E+02 -0.26684977943E+02  0.51268800845E+02  0.00000000000E+00 0. -1.
         -5    1    5    5    0  502 -0.17920985118E+02 -0.56004187251E+02  0.14408635905E+03  0.15569392911E+03  0.47000000000E+01 0.  1.
         13    1    6    6    0    0 -0.22405307902E+02 -0.22581771448E+02  0.15633212277E+02  0.35444767597E+02  0.00000000000E+00 0. -1.
        -14    1    6    6    0    0  0.47459460343E+02  0.25832004756E+02  0.65490301136E+01  0.54429611804E+02  0.00000000000E+00 0.  1.
</event>
<event>
12    1  0.1627564E-001  0.1789980E+03  0.7818608E-02  0.1169169E+00
         21   -1    0    0  503  502  0.00000000000E+00  0.00000000000E+00  0.84308294706E+02  0.84308294706E+02  0.00000000000E+00 0.  1.
         21   -1    0    0  501  503 -0.00000000000E+00 -0.00000000000E+00 -0.39333374395E+03  0.39333374395E+03  0.00000000000E+00 0.  1.
          6    2    1    2  501    0  0.16306252011E+02  0.45024491346E+02 -0.10465479723E+03  0.20596639589E+03  0.17081109735E+03 0.  0.
         24    2    3    3    0    0 -0.15480027790E+02 -0.94766400401E+01 -0.10648560738E+02  0.92652657071E+02  0.90231286424E+02 0.  0.
         -6    2    1    2    0  502 -0.16306252011E+02 -0.45024491346E+02 -0.20437065201E+03  0.27167564276E+03  0.17247374522E+03 0.  0.
        -24    2    5    5    0    0 -0.59867695692E+01  0.35813453181E+02 -0.15976607690E+03  0.17865455314E+03  0.71230647840E+02 0.  0.
          5    1    3    3  501    0  0.31786279801E+02  0.54501131386E+02 -0.94006236490E+02  0.11331373882E+03  0.47000000000E+01 0. -1.
        -13    1    4    4    0    0 -0.43317141866E+02  0.10919142073E+02 -0.29301761484E+02  0.53424672850E+02  0.00000000000E+00 0.  1.
         14    1    4    4    0    0  0.27837114076E+02 -0.20395782113E+02  0.18653200745E+02  0.39227984222E+02  0.00000000000E+00 0. -1.
         -5    1    5    5    0  502 -0.10319482442E+02 -0.80837944526E+02 -0.44604575111E+02  0.93021089619E+02  0.47000000000E+01 0.  1.
         11    1    6    6    0    0 -0.27189642803E+02  0.23701985861E+02 -0.30901738587E+02  0.47497139463E+02  0.00000000000E+00 0. -1.
        -12    1    6    6    0    0  0.21202873234E+02  0.12111467320E+02 -0.12886433831E+03  0.13115741368E+03  0.00000000000E+00 0.  1.
</event>
<event>
12    1  0.1627564E-001  0.2465806E+03  0.7818608E-02  0.1116216E+00
         21   -1    0    0  503  502  0.00000000000E+00  0.00000000000E+00  0.89059657630E+02  0.89059657630E+02  0.00000000000E+00 0.  1.
         21   -1    0    0  501  503 -0.00000000000E+00 -0.00000000000E+00 -0.10414800579E+04  0.10414800579E+04  0.00000000000E+00 0. -1.
          6    2    1    2  501    0  0.80616601026E+02 -0.15105767302E+03 -0.81083476289E+03  0.84620106349E+03  0.17113085696E+03 0.  0.
         24    2    3    3    0    0  0.65263329917E+02 -0.29950433948E+02 -0.26860399862E+03  0.29037826978E+03  0.83756198334E+02 0.  0.
         -6    2    1    2    0  502 -0.80616601026E+02  0.15105767302E+03 -0.14158563735E+03  0.28433865201E+03  0.17743877644E+03 0.  0.
        -24    2    5    5    0    0  0.22911549934E+02  0.64917297021E+02 -0.30846940828E+02  0.10991562794E+03  0.79941959781E+02 0.  0.
          5    1    3    3  501    0  0.15353271109E+02 -0.12110723907E+03 -0.54223076427E+03  0.55582279372E+03  0.47000000000E+01 0. -1.
        -13    1    4    4    0    0  0.13489559747E+02 -0.42148899275E+02 -0.56843393148E+02  0.72039359220E+02  0.00000000000E+00 0.  1.
         14    1    4    4    0    0  0.51773770170E+02  0.12198465327E+02 -0.21176060547E+03  0.21833891056E+03  0.00000000000E+00 0. -1.
         -5    1    5    5    0  502 -0.10352815096E+03  0.86140375999E+02 -0.11073869652E+03  0.17442302407E+03  0.47000000000E+01 0.  1.
         11    1    6    6    0    0  0.80557235545E+01  0.41498675611E+02  0.23887883818E+02  0.48555800403E+02  0.00000000000E+00 0. -1.
        -12    1    6    6    0    0  0.14855826380E+02  0.23418621410E+02 -0.54734824646E+02  0.61359827536E+02  0.00000000000E+00 0.  1.
</event>
<event>
12    1  0.1627564E-001  0.1992191E+03  0.7818608E-02  0.1150474E+00
         21   -1    0    0  503  502  0.00000000000E+00  0.00000000000E+00  0.11893489613E+03  0.11893489613E+03  0.00000000000E+00 0. -1.
         21   -1    0    0  501  503 -0.00000000000E+00 -0.00000000000E+00 -0.40137292873E+03  0.40137292873E+03  0.00000000000E+00 0.  1.
          6    2    1    2  501    0 -0.76411012976E+02 -0.64291953398E+02 -0.24860846023E+03  0.31858191364E+03  0.17238378991E+03 0.  0.
         24    2    3    3    0    0 -0.10230896934E+03 -0.84899239295E+00 -0.16765839201E+03  0.21241828056E+03  0.80897116807E+02 0.  0.
         -6    2    1    2    0  502  0.76411012976E+02  0.64291953398E+02 -0.33829572367E+02  0.20172591122E+03  0.17197908336E+03 0.  0.
        -24    2    5    5    0    0  0.82444938764E+02  0.10515259670E+03 -0.36070820822E+01  0.15033048972E+03  0.68789596437E+02 0.  0.
          5    1    3    3  501    0  0.25897956360E+02 -0.63442961005E+02 -0.80950068218E+02  0.10616363308E+03  0.47000000000E+01 0. -1.
        -11    1    4    4    0    0 -0.66684142245E+02 -0.49427358681E+01 -0.16309451387E+03  0.17626975328E+03  0.00000000000E+00 0.  1.
         12    1    4    4    0    0 -0.35624827091E+02  0.40937434751E+01 -0.45638781413E+01  0.36148527281E+02  0.00000000000E+00 0. -1.
         -5    1    5    5    0  502 -0.60339257879E+01 -0.40860643306E+02 -0.30222490285E+02  0.51395421496E+02  0.47000000000E+01 0.  1.
         11    1    6    6    0    0  0.15498831285E+02  0.22949655803E+02  0.28322993775E+02  0.39611771597E+02  0.00000000000E+00 0. -1.
        -12    1    6    6    0    0  0.66946107479E+02  0.82202940900E+02 -0.31930075857E+02  0.11071871813E+03  0.00000000000E+00 0.  1.
</event>
<event>
12    1  0.1627564E-001  0.2087583E+03  0.7818608E-02  0.1142959E+00
         21   -1    0    0  501  502  0.00000000000E+00  0.00000000000E+00  0.17308323246E+04  0.17308323246E+04  0.00000000000E+00 0. -1.
         21   -1    0    0  502  503 -0.00000000000E+00 -0.00000000000E+00 -0.25150762911E+02  0.25150762911E+02  0.00000000000E+00 0.  1.
         -6    2    1    2    0  503 -0.97935600926E+02 -0.57836855240E+02  0.77562099845E+03  0.80322347659E+03  0.17505295302E+03 0.  0.
        -24    2    3    3    0    0 -0.74958003088E+02 -0.73624150705E+02  0.30848068435E+03  0.33522842132E+03  0.78603715245E+02 0.  0.
          6    2    1    2  501    0  0.97935600926E+02  0.57836855240E+02  0.93006056323E+03  0.95275961091E+03  0.17263180806E+03 0.  0.
         24    2    5    5    0    0  0.10237415182E+03 -0.88474665584E+01  0.48895458105E+03  0.50659475682E+03  0.83683455273E+02 0.  0.
          5    1    5    5  501    0 -0.44385508911E+01  0.66684321798E+02  0.44110598219E+03  0.44616485409E+03  0.47000000000E+01 0. -1.
        -13    1    6    6    0    0  0.16180292631E+01 -0.26983948960E+02  0.15364423514E+03  0.15600417467E+03  0.00000000000E+00 0.  1.
         14    1    6    6    0    0  0.10075612255E+03  0.18136482402E+02  0.33531034590E+03  0.35059058216E+03  0.00000000000E+00 0. -1.
         -5    1    3    3    0  503 -0.22977597838E+02  0.15787295465E+02  0.46714031410E+03  0.46799505528E+03  0.47000000000E+01 0.  1.
         13    1    4    4    0    0 -0.17124624597E+02 -0.29458748784E+02  0.21018050048E+03  0.21292466609E+03  0.00000000000E+00 0. -1.
        -14    1    4    4    0    0 -0.57833378492E+02 -0.44165401921E+02  0.98300183865E+02  0.12230375523E+03  0.00000000000E+00 0.  1.
</event>
<event>
12    1  0.1627564E-001  0.2445481E+03  0.7818608E-02  0.1117173E+00
         21   -1    0    0  503  502  0.00000000000E+00  0.00000000000E+00  0.20024631500E+03  0.20024631500E+03  0.00000000000E+00 0. -1.
         21   -1    0    0  501  503 -0.00000000000E+00 -0.00000000000E+00 -0.34640226984E+03  0.34640226984E+03  0.00000000000E+00 0.  1.
          6    2    1    2  501    0 -0.15327126582E+03  0.81579213980E+02 -0.17718175622E+03  0.30014021725E+03  0.16894829445E+03 0.  0.
         24    2    3    3    0    0 -0.15050284500E+03  0.69909527475E+02 -0.20181285359E+03  0.27234405395E+03  0.76840142264E+02 0.  0.
         -6    2    1    2    0  502  0.15327126582E+03 -0.81579213980E+02  0.31025801373E+02  0.24650836758E+03  0.17221070192E+03 0.  0.
        -24    2    5    5    0    0  0.72219985252E+02 -0.11365446414E+03  0.37809219560E+02  0.15895132036E+03  0.75517691115E+02 0.  0.
          5    1    3    3  501    0 -0.27684208253E+01  0.11669686505E+02  0.24631097370E+02  0.27796163308E+02  0.47000000000E+01 0. -1.
        -11    1    4    4    0    0 -0.93593567003E+02  0.55831801518E+02 -0.17873666272E+03  0.20934120579E+03  0.00000000000E+00 0.  1.
         12    1    4    4    0    0 -0.56909277996E+02  0.14077725958E+02 -0.23076190871E+02  0.63002848152E+02  0.00000000000E+00 0. -1.
         -5    1    5    5    0  502  0.81051280571E+02  0.32075250164E+02 -0.67834181868E+01  0.87557047219E+02  0.47000000000E+01 0.  1.
         11    1    6    6    0    0 -0.14461098136E+02 -0.14859561536E+02  0.14914027401E+02  0.25541302662E+02  0.00000000000E+00 0. -1.
        -12    1    6    6    0    0  0.86681083389E+02 -0.98794902608E+02  0.22895192159E+02  0.13341001770E+03  0.00000000000E+00 0.  1.
</event>
<event>
12    1  0.1627564E-001  0.2650213E+03  0.7818608E-02  0.1104242E+00
         21   -1    0    0  501  502  0.00000000000E+00  0.00000000000E+00  0.15536438727E+03  0.15536438727E+03  0.00000000000E+00 0.  1.
         21   -1    0    0  502  503 -0.00000000000E+00 -0.00000000000E+00 -0.45858010328E+03  0.45858010328E+03  0.00000000000E+00 0.  1.
         -6    2    1    2    0  503  0.75404181972E+02 -0.18811082174E+03 -0.19082206272E+03  0.32657214337E+03  0.17077714511E+03 0.  0.
        -24    2    3    3    0    0 -0.32772787905E+01 -0.13802214928E+03 -0.70521648963E+02  0.17427661840E+03  0.79612703143E+02 0.  0.
          6    2    1    2  501    0 -0.75404181972E+02  0.18811082174E+03 -0.11239365330E+03  0.28737234718E+03  0.16993840269E+03 0.  0.
         24    2    5    5    0    0 -0.10551109315E+03  0.18489485844E+03 -0.75805769120E+02  0.23964885413E+03  0.79789467966E+02 0.  0.
          5    1    5    5  501    0  0.30106911179E+02  0.32159633056E+01 -0.36587884176E+02  0.47723493053E+02  0.47000000000E+01 0. -1.
        -13    1    6    6    0    0 -0.66424787749E+00  0.72257840921E+02 -0.12892812068E+02  0.73402053124E+02  0.00000000000E+00 0.  1.
         14    1    6    6    0    0 -0.10484684527E+03  0.11263701752E+03 -0.62912957052E+02  0.16624680100E+03  0.00000000000E+00 0. -1.
         -5    1    3    3    0  503  0.78681460763E+02 -0.50088672466E+02 -0.12030041375E+03  0.15229552497E+03  0.47000000000E+01 0.  1.
         13    1    4    4    0    0 -0.22125558354E+02 -0.17208927407E+02  0.77670811830E+01  0.29086338118E+02  0.00000000000E+00 0. -1.
        -14    1    4    4    0    0  0.18848279564E+02 -0.12081322187E+03 -0.78288730146E+02  0.14519028028E+03  0.00000000000E+00 0.  1.
</event>
<event>
12    1  0.1627564E-001  0.1935021E+03  0.7818608E-02  0.1155550E+00
         21   -1    0    0  501  502  0.00000000000E+00  0.00000000000E+00  0.56603894684E+03  0.56603894684E+03  0.00000000000E+00 0.  1.
         21   -1    0    0  502  503 -0.00000000000E+00 -0.00000000000E+00 -0.24626146134E+03  0.24626146134E+03  0.00000000000E+00 0. -1.
         -6    2    1    2    0  503  0.40260623115E+01  0.87627639868E+02 -0.18787274951E+03  0.26902162337E+03  0.17141076801E+03 0.  0.
        -24    2    3    3    0    0 -0.64064158127E+02  0.66973718246E+02 -0.13257374211E+03  0.17878342295E+03  0.76144730156E+02 0.  0.
          6    2    1    2  501    0 -0.40260623115E+01 -0.87627639868E+02  0.50765023501E+03  0.54327878480E+03  0.17247685198E+03 0.  0.
         24    2    5    5    0    0 -0.45370272034E+02 -0.68233041859E+01  0.35208353226E+03  0.36310727388E+03  0.76020126256E+02 0.  0.
          5    1    5    5  501    0  0.41344209722E+02 -0.80804335682E+02  0.15556670275E+03  0.18017151092E+03  0.47000000000E+01 0. -1.
        -13    1    6    6    0    0  0.96461127965E+01  0.63862606005E+01  0.20787039561E+03  0.20819205842E+03  0.00000000000E+00 0.  1.
         14    1    6    6    0    0 -0.55016384830E+02 -0.13209564786E+02  0.14421313665E+03  0.15491521547E+03  0.00000000000E+00 0. -1.
         -5    1    3    3    0  503  0.68090220438E+02  0.20653921622E+02 -0.55299007393E+02  0.90238200428E+02  0.47000000000E+01 0.  1.
         11    1    4    4    0    0 -0.31357828204E+02 -0.52618710242E+01 -0.72933789629E+02  0.79563423418E+02  0.00000000000E+00 0. -1.
        -12    1    4    4    0    0 -0.32706329923E+02  0.72235589270E+02 -0.59639952484E+02  0.99219999529E+02  0.00000000000E+00 0.  1.
</event>
<event>
12    1  0.1627564E-001  0.1833395E+03  0.7818608E-02  0.1165270E+00
         21   -1    0    0  503  502  0.00000000000E+00  0.00000000000E+00  0.55512091840E+03  0.55512091840E+03  0.00000000000E+00 0.  1.
         21   -1    0    0  501  503 -0.00000000000E+00 -0.00000000000E+00 -0.92306262710E+02  0.92306262710E+02  0.00000000000E+00 0.  1.
          6    2    1    2  501    0 -0.74554538509E+01 -0.47872043405E+02  0.37696012431E+02  0.18445932407E+03  0.17394521135E+03 0.  0.
         24    2    3    3    0    0 -0.26266945559E+01  0.11748532589E+02  0.77833629138E+02  0.11227173322E+03  0.80012128531E+02 0.  0.
         -6    2    1    2    0  502  0.74554538509E+01  0.47872043405E+02  0.42511864326E+03  0.46296785704E+03  0.17682211252E+03 0.  0.
        -24    2    5    5    0    0 -0.59314759469E+02  0.47674725668E+02  0.31587821938E+03  0.33485126744E+03  0.80964199934E+02 0.  0.
          5    1    3    3  501    0 -0.48287592950E+01 -0.59620575995E+02 -0.40137616707E+02  0.72187590853E+02  0.47000000000E+01 0. -1.
        -11    1    4    4    0    0 -0.16686157670E+02 -0.23822559791E+02  0.66176419921E+02  0.72285965211E+02  0.00000000000E+00 0.  1.
         12    1    4    4    0    0  0.14059463114E+02  0.35571092381E+02  0.11657209217E+02  0.39985768005E+02  0.00000000000E+00 0. -1.
         -5    1    5    5    0  502  0.66770213320E+02  0.19731773770E+00  0.10924042388E+03  0.12811658960E+03  0.47000000000E+01 0.  1.
         13    1    6    6    0    0 -0.31349310045E+02 -0.54917763841E+01  0.33715304009E+02  0.46364432193E+02  0.00000000000E+00 0. -1.
        -14    1    6    6    0    0 -0.27965449425E+02  0.53166502052E+02  0.28216291537E+03  0.28848683525E+03  0.00000000000E+00 0.  1.
</event>
<event>
12    1  0.1627564E-001  0.1977630E+03  0.7818608E-02  0.1151785E+00
         21   -1    0    0  503  502  0.00000000000E+00  0.00000000000E+00  0.64694507601E+02  0.64694507601E+02  0.00000000000E+00 0. -1.
         21   -1    0    0  501  503 -0.00000000000E+00 -0.00000000000E+00 -0.96012199810E+03  0.96012199810E+03  0.00000000000E+00 0. -1.
          6    2    1    2  501    0 -0.21369890278E+02 -0.94455656263E+02 -0.75997060927E+03  0.78511088357E+03  0.17165438921E+03 0.  0.
         24    2    3    3    0    0  0.52348432193E+02 -0.59324337199E+02 -0.50023271529E+03  0.51279771052E+03  0.80430013864E+02 0.  0.
         -6    2    1    2    0  502  0.21369890278E+02  0.94455656263E+02 -0.13545688123E+03  0.23970562213E+03  0.17242875456E+03 0.  0.
        -24    2    5    5    0    0  0.19771050767E+02  0.13405654413E+03 -0.85718367843E+02  0.17593418400E+03  0.72409578383E+02 0.  0.
          5    1    3    3  501    0 -0.73718322471E+02 -0.35131319065E+02 -0.25973789398E+03  0.27231317305E+03  0.47000000000E+01 0. -1.
        -13    1    4    4    0    0  0.24605154802E+02 -0.23182380419E+02 -0.50547880566E+02  0.60810563511E+02  0.00000000000E+00 0.  1.
         14    1    4    4    0    0  0.27743277391E+02 -0.36141956779E+02 -0.44968483473E+03  0.45198714701E+03  0.00000000000E+00 0. -1.
         -5    1    5    5    0  502  0.15988395110E+01 -0.39600887866E+02 -0.49738513382E+02  0.63771438129E+02  0.47000000000E+01 0.  1.
         11    1    6    6    0    0 -0.18766730977E+02  0.32541534579E+02  0.45958628514E-01  0.37565193684E+02  0.00000000000E+00 0. -1.
        -12    1    6    6    0    0  0.38537781744E+02  0.10151500955E+03 -0.85764326471E+02  0.13836899032E+03  0.00000000000E+00 0.  1.
</event>
<event>
12    1  0.1627564E-001  0.2020489E+03  0.7818608E-02  0.1148037E+00
         21   -1    0    0  501  502  0.00000000000E+00  0.00000000000E+00  0.59725562659E+02  0.59725562659E+02  0.00000000000E+00 0. -1.
         21   -1    0    0  502  503 -0.00000000000E+00 -0.00000000000E+00 -0.13339572655E+04  0.13339572655E+04  0.00000000000E+00 0. -1.
         -6    2    1    2    0  503 -0.44345904983E+02  0.97084114498E+02 -0.11238616516E+04  0.11418794903E+04  0.17155720309E+03 0.  0.
        -24    2    3    3    0    0  0.19559303837E+02  0.49850665240E+02 -0.34017907733E+03  0.35416422346E+03  0.82721444249E+02 0.  0.
          6    2    1    2  501    0  0.44345904983E+02 -0.97084114498E+02 -0.15037005128E+03  0.25180333786E+03  0.17146977594E+03 0.  0.
         24    2    5    5    0    0  0.27786685113E+02 -0.13628276638E+02 -0.14211004689E+03  0.16619140932E+03  0.80414484477E+02 0.  0.
          5    1    5    5  501    0  0.16559219870E+02 -0.83455837859E+02 -0.82600043939E+01  0.85611928538E+02  0.47000000000E+01 0. -1.
        -13    1    6    6    0    0 -0.26352837743E+02 -0.80630105295E+01 -0.25679695914E+02  0.37668700245E+02  0.00000000000E+00 0.  1.
         14    1    6    6    0    0  0.54139522855E+02 -0.55652661089E+01 -0.11643035097E+03  0.12852270908E+03  0.00000000000E+00 0. -1.
         -5    1    3    3    0  503 -0.63905208820E+02  0.47233449258E+02 -0.78368257427E+03  0.78771526687E+03  0.47000000000E+01 0.  1.
         11    1    4    4    0    0 -0.13393451656E+02 -0.58776729160E+01 -0.19078613942E+03  0.19134597613E+03  0.00000000000E+00 0. -1.
        -12    1    4    4    0    0  0.32952755493E+02  0.55728338156E+02 -0.14939293790E+03  0.16281824733E+03  0.00000000000E+00 0.  1.
</event>
<event>
12    1  0.1627564E-001  0.2360086E+03  0.7818608E-02  0.1122585E+00
         21   -1    0    0  503  502  0.00000000000E+00  0.00000000000E+00  0.32232475908E+03  0.32232475908E+03  0.00000000000E+00 0.  1.
         21   -1    0    0  501  503 -0.00000000000E+00 -0.00000000000E+00 -0.73931630237E+03  0.73931630237E+03  0.00000000000E+00 0. -1.
          6    2    1    2  501    0 -0.56759939366E+02  0.15069604572E+03 -0.67327737045E+03  0.71324113944E+03  0.17169600029E+03 0.  0.
         24    2    3    3    0    0 -0.36932103133E+02  0.48589054949E+02 -0.15869382847E+03  0.18822943259E+03  0.80757114829E+02 0.  0.
         -6    2    1    2    0  502  0.56759939366E+02 -0.15069604572E+03  0.25628582716E+03  0.34839992202E+03  0.17253721785E+03 0.  0.
        -24    2    5    5    0    0  0.78704798427E+02 -0.68972962033E+02  0.82394323499E+02  0.15495591386E+03  0.79188357143E+02 0.  0.
          5    1    3    3  501    0 -0.19827836233E+02  0.10210699078E+03 -0.51458354198E+03  0.52501170685E+03  0.47000000000E+01 0. -1.
        -13    1    4    4    0    0 -0.47329566934E+02 -0.38647153437E+01 -0.67885129722E+02  0.82845728727E+02  0.00000000000E+00 0.  1.
         14    1    4    4    0    0  0.10397463801E+02  0.52453770293E+02 -0.90808698751E+02  0.10538370386E+03  0.00000000000E+00 0. -1.
         -5    1    5    5    0  502 -0.21944859061E+02 -0.81723083692E+02  0.17389150366E+03  0.19344400816E+03  0.47000000000E+01 0.  1.
         13    1    6    6    0    0 -0.13085197586E+02  0.40693123859E+01  0.11518498508E+02  0.17901326963E+02  0.00000000000E+00 0. -1.
        -14    1    6    6    0    0  0.91789996013E+02 -0.73042274419E+02  0.70875824991E+02  0.13705458689E+03  0.00000000000E+00 0.  1.
</event>
<event>
12    1  0.1627564E-001  0.2137341E+03  0.7818608E-02  0.1138911E+00
         21   -1    0    0  503  502  0.00000000000E+00  0.00000000000E+00  0.28995885445E+03  0.28995885445E+03  0.00000000000E+00 0.  1.
         21   -1    0    0  501  503 -0.00000000000E+00 -0.00000000000E+00 -0.25251980514E+03  0.25251980514E+03  0.00000000000E+00 0.  1.
          6    2    1    2  501    0  0.11582666099E+03 -0.47103931038E+02 -0.14847355210E+03  0.26024343667E+03  0.17334259413E+03 0.  0.
         24    2    3    3    0    0  0.47232696451E+01 -0.27673493802E+02 -0.99294526885E+01  0.81531201661E+02  0.75898690887E+02 0.  0.
         -6    2    1    2    0  502 -0.11582666099E+03  0.47103931038E+02  0.18591260141E+03  0.28223522292E+03  0.17163516533E+03 0.  0.
        -24    2    5    5    0    0 -0.10487386646E+03  0.50808304290E+02  0.21108658724E+03  0.25413707971E+03  0.80300039368E+02 0.  0.
          5    1    3    3  501    0  0.11110339134E+03 -0.19430437236E+02 -0.13854409941E+03  0.17871223501E+03  0.47000000000E+01 0. -1.
        -11    1    4    4    0    0  0.39007661300E+02 -0.23817609921E+02 -0.27409062800E+00  0.45705046856E+02  0.00000000000E+00 0.  1.
         12    1    4    4    0    0 -0.34284391655E+02 -0.38558838809E+01 -0.96553620605E+01  0.35826154806E+02  0.00000000000E+00 0. -1.
         -5    1    5    5    0  502 -0.10952794525E+02 -0.37043732529E+01 -0.25173985826E+02  0.28098143203E+02  0.47000000000E+01 0.  1.
         11    1    6    6    0    0 -0.61883858880E+02 -0.10983436984E+02  0.12405661858E+03  0.13906938014E+03  0.00000000000E+00 0. -1.
        -12    1    6    6    0    0 -0.42990007584E+02  0.61791741275E+02  0.87029968655E+02  0.11506769958E+03  0.00000000000E+00 0.  1.
</event>
<event>
12    1  0.1627564E-001  0.1880267E+03  0.7818608E-02  0.1160483E+00
         21   -1    0    0  501  502  0.00000000000E+00  0.00000000000E+00  0.16017830709E+04  0.16017830709E+04  0.00000000000E+00 0.  1.
         21   -1    0    0  502  503 -0.00000000000E+00 -0.00000000000E+00 -0.22523908004E+02  0.22523908004E+02  0.00000000000E+00 0.  1.
         -6    2    1    2    0  503 -0.43432338957E+02  0.60588842125E+02  0.91671880133E+03  0.93560255733E+03  0.17152669971E+03 0.  0.
        -24    2    3    3    0    0 -0.25227277739E+01  0.75565874171E+02  0.84010914233E+03  0.84734703270E+03  0.80604325568E+02 0.  0.
          6    2    1    2  501    0  0.43432338957E+02 -0.60588842125E+02  0.66254036153E+03  0.68870442154E+03  0.17261713047E+03 0.  0.
         24    2    5    5    0    0  0.76410029000E+02 -0.58426328697E+02  0.30911249248E+03  0.33370364248E+03  0.80965792682E+02 0.  0.
          5    1    5    5  501    0 -0.32977690043E+02 -0.21625134277E+01  0.35342786905E+03  0.35500077905E+03  0.47000000000E+01 0. -1.
        -13    1    6    6    0    0  0.90599813138E+02 -0.47092664216E+02  0.28947658700E+03  0.30695722761E+03  0.00000000000E+00 0.  1.
         14    1    6    6    0    0 -0.14189784139E+02 -0.11333664481E+02  0.19635905480E+02  0.26746414872E+02  0.00000000000E+00 0. -1.
         -5    1    3    3    0  503 -0.40909611183E+02 -0.14977032047E+02  0.76609658994E+02  0.88255524628E+02  0.47000000000E+01 0.  1.
         13    1    4    4    0    0 -0.34354371766E+01  0.92920973393E+02  0.69083995285E+03  0.69706954458E+03  0.00000000000E+00 0. -1.
        -14    1    4    4    0    0  0.91270940272E+00 -0.17355099221E+02  0.14926918949E+03  0.15027748813E+03  0.00000000000E+00 0.  1.
</event>
<event>
12    1  0.1627564E-001  0.2238552E+03  0.7818608E-02  0.1131089E+00
         21   -1    0    0  501  502  0.00000000000E+00  0.00000000000E+00  0.35551243906E+03  0.35551243906E+03  0.00000000000E+00 0. -1.
         21   -1    0    0  502  503 -0.00000000000E+00 -0.00000000000E+00 -0.14105037872E+03  0.14105037872E+03  0.00000000000E+00 0.  1.
         -6    2    1    2    0  503  0.83710227787E+02  0.11667909152E+03  0.11795523257E+03  0.25303083335E+03  0.17172580791E+03 0.  0.
        -24    2    3    3    0    0  0.76132589259E+02  0.15101796005E+03  0.10904922169E+03  0.21645234887E+03  0.79732623016E+02 0.  0.
          6    2    1    2  501    0 -0.83710227787E+02 -0.11667909152E+03  0.96506827780E+02  0.24353198443E+03  0.17138508394E+03 0.  0.
         24    2    5    5    0    0 -0.11902530763E+03 -0.11378428585E+03  0.98436102967E+02  0.20773607870E+03  0.79691432820E+02 0.  0.
          5    1    5    5  501    0  0.35315079840E+02 -0.28948056708E+01 -0.19292751866E+01  0.35795905725E+02  0.47000000000E+01 0. -1.
        -13    1    6    6    0    0 -0.42801497884E+01 -0.51925251050E+02  0.34978072763E+02  0.62753621035E+02  0.00000000000E+00 0.  1.
         14    1    6    6    0    0 -0.11474515784E+03 -0.61859034802E+02  0.63458030204E+02  0.14498245767E+03  0.00000000000E+00 0. -1.
         -5    1    3    3    0  503  0.75776385280E+01 -0.34338868529E+02  0.89060108725E+01  0.36578484485E+02  0.47000000000E+01 0.  1.
         13    1    4    4    0    0  0.24221393289E+02  0.12774648997E+03  0.78457674617E+02  0.15185996279E+03  0.00000000000E+00 0. -1.
        -14    1    4    4    0    0  0.51911195970E+02  0.23271470085E+02  0.30591547077E+02  0.64592386080E+02  0.00000000000E+00 0.  1.
</event>
<event>
12    1  0.1627564E-001  0.2338612E+03  0.7818608E-02  0.1124910E+00
         21   -1    0    0  501  502  0.00000000000E+00  0.00000000000E+00  0.31103778583E+02  0.31103778583E+02  0.00000000000E+00 0. -1.
         21   -1    0    0  502  503 -0.00000000000E+00 -0.00000000000E+00 -0.18242620120E+04  0.18242620120E+04  0.00000000000E+00 0. -1.
         -6    2    1    2    0  503 -0.16161385330E+02  0.15635855147E+03 -0.66188055146E+03  0.70016873176E+03  0.16565386061E+03 0.  0.
        -24    2    3    3    0    0  0.44197240291E+02  0.55677394699E+02 -0.27685707718E+03  0.29762056723E+03  0.82914368626E+02 0.  0.
          6    2    1    2  501    0  0.16161385330E+02 -0.15635855147E+03 -0.11312776820E+04  0.11551970588E+04  0.17315271883E+03 0.  0.
         24    2    5    5    0    0  0.30480989854E+02 -0.24694343454E+02 -0.25836036746E+03  0.27227733275E+03  0.76458911287E+02 0.  0.
          5    1    5    5  501    0 -0.14319604524E+02 -0.13166420801E+03 -0.87291731451E+03  0.88291972609E+03  0.47000000000E+01 0. -1.
        -13    1    6    6    0    0  0.23344404878E+02  0.12593338282E+02 -0.20545384256E+03  0.20715896029E+03  0.00000000000E+00 0.  1.
         14    1    6    6    0    0  0.71365849763E+01 -0.37287681736E+02 -0.52906524904E+02  0.65118372460E+02  0.00000000000E+00 0. -1.
         -5    1    3    3    0  503 -0.60358625621E+02  0.10068115677E+03 -0.38502347429E+03  0.40254816453E+03  0.47000000000E+01 0.  1.
         13    1    4    4    0    0  0.45946197063E+02  0.65352209429E+02 -0.14627044479E+03  0.16666435528E+03  0.00000000000E+00 0. -1.
        -14    1    4    4    0    0 -0.17489567718E+01 -0.96748147296E+01 -0.13058663239E+03  0.13095621195E+03  0.00000000000E+00 0.  1.
</event>
<event>
12    1  0.1627564E-001  0.2561385E+03  0.7818608E-02  0.1109603E+00
         21   -1    0    0  501  502  0.00000000000E+00  0.00000000000E+00  0.94705977511E+03  0.94705977511E+03  0.00000000000E+00 0.  1.
         21   -1    0    0  502  503 -0.00000000000E+00 -0.00000000000E+00 -0.83499323533E+02  0.83499323533E+02  0.00000000000E+00 0. -1.
         -6    2    1    2    0  503  0.30401092571E+02  0.18651038764E+03  0.21702571833E+03  0.33513540341E+03  0.17177085048E+03 0.  0.
        -24    2    3    3    0    0  0.82938987607E+02  0.10585544572E+03  0.15714287469E+03  0.22167397810E+03  0.79757246989E+02 0.  0.
          6    2    1    2  501    0 -0.30401092571E+02 -0.18651038764E+03  0.64653473325E+03  0.69542369523E+03  0.17290634306E+03 0.  0.
         24    2    5    5    0    0 -0.14885889912E+02 -0.13543301618E+03  0.25233238206E+03  0.29759558779E+03  0.79547540797E+02 0.  0.
          5    1    5    5  501    0 -0.15515202659E+02 -0.51077371460E+02  0.39420235119E+03  0.39782810744E+03  0.47000000000E+01 0. -1.
        -11    1    6    6    0    0  0.19647762018E+02 -0.15611402249E+02  0.14313678758E+02  0.28889995363E+02  0.00000000000E+00 0.  1.
         12    1    6    6    0    0 -0.34533651930E+02 -0.11982161393E+03  0.23801870330E+03  0.26870559243E+03  0.00000000000E+00 0. -1.
         -5    1    3    3    0  503 -0.52537895036E+02  0.80654941924E+02  0.59882843646E+02  0.11346142532E+03  0.47000000000E+01 0.  1.
         11    1    4    4    0    0  0.36664842139E+02  0.73342173741E+02  0.39225124545E+02  0.90895519657E+02  0.00000000000E+00 0. -1.
        -12    1    4    4    0    0  0.46274145468E+02  0.32513271974E+02  0.11791775014E+03  0.13077845844E+03  0.00000000000E+00 0.  1.
</event>
<event>
12    1  0.1627564E-001  0.2590559E+03  0.7818608E-02  0.1107761E+00
         21   -1    0    0  503  502  0.00000000000E+00  0.00000000000E+00  0.14413174596E+03  0.14413174596E+03  0.00000000000E+00 0. -1.
         21   -1    0    0  501  503 -0.00000000000E+00 -0.00000000000E+00 -0.49586371362E+03  0.49586371362E+03  0.00000000000E+00 0. -1.
          6    2    1    2  501    0 -0.60137593343E+02  0.18363287186E+03 -0.25577231820E+03  0.36404590151E+03  0.17254674116E+03 0.  0.
         24    2    3    3    0    0 -0.52755867114E+02  0.46843754971E+02 -0.17622707757E+03  0.20556786616E+03  0.78896424722E+02 0.  0.
         -6    2    1    2    0  502  0.60137593343E+02 -0.18363287186E+03 -0.95959649456E+02  0.27594955808E+03  0.17205331301E+03 0.  0.
        -24    2    5    5    0    0  0.63227741951E+02 -0.20915548515E+03 -0.83700456028E+02  0.24708209142E+03  0.79372723529E+02 0.  0.
          5    1    3    3  501    0 -0.73817262287E+01  0.13678911689E+03 -0.79545240632E+02  0.15847803535E+03  0.47000000000E+01 0. -1.
        -13    1    4    4    0    0 -0.71214060995E+01 -0.21462059601E+02 -0.26945500404E+02  0.35176617507E+02  0.00000000000E+00 0.  1.
         14    1    4    4    0    0 -0.45634461014E+02  0.68305814573E+02 -0.14928157716E+03  0.17039124865E+03  0.00000000000E+00 0. -1.
         -5    1    5    5    0  502 -0.30901486087E+01  0.25522613292E+02 -0.12259193428E+02  0.28867466657E+02  0.47000000000E+01 0.  1.
         11    1    6    6    0    0  0.47642215998E+02 -0.90826591344E+02 -0.75678894850E+02  0.12746193771E+03  0.00000000000E+00 0. -1.
        -12    1    6    6    0    0  0.15585525954E+02 -0.11832889381E+03 -0.80215611780E+01  0.11962015371E+03  0.00000000000E+00 0.  1.
</event>
<event>
12    1  0.1627564E-001  0.2098201E+03  0.7818608E-02  0.1141740E+00
         21   -1    0    0  501  502  0.00000000000E+00  0.00000000000E+00  0.33079885142E+03  0.33079885142E+03  0.00000000000E+00 0. -1.
         21   -1    0    0  502  503 -0.00000000000E+00 -0.00000000000E+00 -0.14585385484E+03  0.14585385484E+03  0.00000000000E+00 0. -1.
         -6    2    1    2    0  503  0.11762562538E+03 -0.29411310159E+02  0.21651838020E+02  0.21077844309E+03  0.17104951643E+03 0.  0.
        -24    2    3    3    0    0  0.18235474636E+02 -0.57143950241E+02 -0.22565819454E+02  0.98418340637E+02  0.74692636730E+02 0.  0.
          6    2    1    2  501    0 -0.11762562538E+03  0.29411310159E+02  0.16329315855E+03  0.26587426317E+03  0.17124151155E+03 0.  0.
         24    2    5    5    0    0 -0.47166163852E+02 -0.45686503515E+02  0.52870764900E+02  0.11481330741E+03  0.77941479076E+02 0.  0.
          5    1    5    5  501    0 -0.70459461527E+02  0.75097813674E+02  0.11042239365E+03  0.15106095577E+03  0.47000000000E+01 0. -1.
        -11    1    6    6    0    0 -0.47264613333E+02 -0.18013506228E+02 -0.48387078584E+01  0.50811840883E+02  0.00000000000E+00 0.  1.
         12    1    6    6    0    0  0.98449481205E-01 -0.27672997287E+02  0.57709472758E+02  0.64001466524E+02  0.00000000000E+00 0. -1.
         -5    1    3    3    0  503  0.99390150742E+02  0.27732640083E+02  0.44217657474E+02  0.11236010245E+03  0.47000000000E+01 0.  1.
         13    1    4    4    0    0  0.43467426460E+02 -0.53719257794E+02 -0.93580513268E+01  0.69733413408E+02  0.00000000000E+00 0. -1.
        -14    1    4    4    0    0 -0.25231951824E+02 -0.34246924477E+01 -0.13207768127E+02  0.28684927228E+02  0.00000000000E+00 0.  1.
</event>
<event>
12    1  0.1627564E-001  0.1889550E+03  0.7818608E-02  0.1161840E+00
         21   -1    0    0  501  502  0.00000000000E+00  0.00000000000E+00  0.34809983334E+03  0.34809983334E+03  0.00000000000E+00 0.  1.
         21   -1    0    0  502  503 -0.00000000000E+00 -0.00000000000E+00 -0.98206792436E+02  0.98206792436E+02  0.00000000000E+00 0.  1.
         -6    2    1    2    0  503  0.14791125710E+02  0.52221343293E+02  0.96775314576E+02  0.20310086347E+03  0.17011364770E+03 0.  0.
        -24    2    3    3    0    0 -0.94610852661E+01  0.51673947323E+02 -0.10798845667E+02  0.92725325725E+02  0.75641668390E+02 0.  0.
          6    2    1    2  501    0 -0.14791125710E+02 -0.52221343293E+02  0.15311772633E+03  0.24320576231E+03  0.18099215069E+03 0.  0.
         24    2    5    5    0    0  0.12643273168E+02  0.73812454468E+01  0.52278720171E+01  0.81345903684E+02  0.79846667179E+02 0.  0.
          5    1    5    5  501    0 -0.27434398879E+02 -0.59602588740E+02  0.14788985431E+03  0.16185985863E+03  0.47000000000E+01 0. -1.
        -11    1    6    6    0    0 -0.25089013732E+02 -0.13054941115E+02 -0.17021693625E+02  0.33009516074E+02  0.00000000000E+00 0.  1.
         12    1    6    6    0    0  0.37732286901E+02  0.20436186562E+02  0.22249565642E+02  0.48336387610E+02  0.00000000000E+00 0. -1.
         -5    1    3    3    0  503  0.24252210976E+02  0.54739596979E+00  0.10757416024E+03  0.11037553774E+03  0.47000000000E+01 0.  1.
         13    1    4    4    0    0  0.27214223181E+02  0.68980052226E+01 -0.19518803073E+02  0.34193275549E+02  0.00000000000E+00 0. -1.
        -14    1    4    4    0    0 -0.36675308447E+02  0.44775942100E+02  0.87199574063E+01  0.58532050176E+02  0.00000000000E+00 0.  1.
</event>
<event>
12    1  0.1627564E-001  0.2380079E+03  0.7818608E-02  0.1121411E+00
         21   -1    0    0  501  502  0.00000000000E+00  0.00000000000E+00  0.67712402827E+03  0.67712402827E+03  0.00000000000E+00 0. -1.
         21   -1    0    0  502  503 -0.00000000000E+00 -0.00000000000E+00 -0.83169121963E+02  0.83169121963E+02  0.00000000000E+00 0.  1.
         -6    2    1    2    0  503 -0.18613078743E+02  0.16182199309E+03  0.31111352969E+03  0.39171339363E+03  0.17353659628E+03 0.  0.
        -24    2    3    3    0    0 -0.21379694682E+02  0.89271801345E+01  0.12649118390E+03  0.15193854392E+03  0.80922899316E+02 0.  0.
          6    2    1    2  501    0  0.18613078743E+02 -0.16182199309E+03  0.28284137662E+03  0.36857975660E+03  0.17122788471E+03 0.  0.
         24    2    5    5    0    0 -0.45117761184E+02 -0.93104454069E+02  0.21962190747E+03  0.25543157320E+03  0.79419485063E+02 0.  0.
          5    1    5    5  501    0  0.63730839926E+02 -0.68717539018E+02  0.63219469150E+02  0.11314818340E+03  0.47000000000E+01 0. -1.
        -13    1    6    6    0    0 -0.18164062878E+02 -0.12893478905E+02  0.25142012313E+01  0.22416426708E+02  0.00000000000E+00 0.  1.
         14    1    6    6    0    0 -0.26953698305E+02 -0.80210975164E+02  0.21710770624E+03  0.23301514650E+03  0.00000000000E+00 0. -1.
         -5    1    3    3    0  503  0.27666159395E+01  0.15289481295E+03  0.18462234579E+03  0.23977484971E+03  0.47000000000E+01 0.  1.
         13    1    4    4    0    0  0.27552208822E+01  0.15316606657E+02  0.12601019979E+03  0.12696755543E+03  0.00000000000E+00 0. -1.
        -14    1    4    4    0    0 -0.24134915565E+02 -0.63894265230E+01  0.48098411917E+00  0.24970988493E+02  0.00000000000E+00 0.  1.
</event>
<event>
12    1  0.1627564E-001  0.1975098E+03  0.7818608E-02  0.1151956E+00
         21   -1    0    0  501  502  0.00000000000E+00  0.00000000000E+00  0.99148840034E+02  0.99148840034E+02  0.00000000000E+00 0. -1.
         21   -1    0    0  502  503 -0.00000000000E+00 -0.00000000000E+00 -0.87312305234E+03  0.87312305234E+03  0.00000000000E+00 0. -1.
         -6    2    1    2    0  503  0.93771341741E+02  0.20210091694E+02 -0.74745171103E+03  0.77298931025E+03  0.17212466734E+03 0.  0.
        -24    2    3    3    0    0  0.80478979439E+02  0.23298919741E+02 -0.74955476882E+03  0.75840368012E+03  0.79524114382E+02 0.  0.
          6    2    1    2  501    0 -0.93771341741E+02 -0.20210091694E+02 -0.26522501282E+02  0.19928258213E+03  0.17265164965E+03 0.  0.
         24    2    5    5    0    0 -0.97150257004E+02 -0.61884351382E+02 -0.53226918798E+02  0.14944909034E+03  0.78956192513E+02 0.  0.
          5    1    5    5  501    0  0.33789152632E+01  0.41674259688E+02  0.26704417517E+02  0.49833491788E+02  0.47000000000E+01 0. -1.
        -13    1    6    6    0    0 -0.74057951006E+02 -0.72827815751E+01 -0.50826966042E+02  0.90116588327E+02  0.00000000000E+00 0.  1.
         14    1    6    6    0    0 -0.23092305999E+02 -0.54601569807E+02 -0.23999527564E+01  0.59332502011E+02  0.00000000000E+00 0. -1.
         -5    1    3    3    0  503  0.13292362302E+02 -0.30888280471E+01  0.21030577905E+01  0.14585630132E+02  0.47000000000E+01 0.  1.
         11    1    4    4    0    0  0.92771628493E+02  0.63636163386E+01 -0.55619684240E+03  0.56391665888E+03  0.00000000000E+00 0. -1.
        -12    1    4    4    0    0 -0.12292649054E+02  0.16935303403E+02 -0.19335792642E+03  0.19448702124E+03  0.00000000000E+00 0.  1.
</event>
<event>
12    1  0.1627564E-001  0.2545478E+03  0.7818608E-02  0.1110802E+00
         21   -1    0    0  503  502  0.00000000000E+00  0.00000000000E+00  0.13621672829E+04  0.13621672829E+04  0.00000000000E+00 0.  1.
         21   -1    0    0  501  503 -0.00000000000E+00 -0.00000000000E+00 -0.56203808552E+02  0.56203808552E+02  0.00000000000E+00 0. -1.
          6    2    1    2  501    0  0.17996284150E+03 -0.39590375155E+02  0.37086897282E+03  0.44982038862E+03  0.17561481968E+03 0.  0.
         24    2    3    3    0    0  0.37963265728E+02 -0.61268463961E+02  0.19525924882E+03  0.22289598663E+03  0.79758462792E+02 0.  0.
         -6    2    1    2    0  502 -0.17996284150E+03  0.39590375155E+02  0.93509450153E+03  0.96855070283E+03  0.17243756853E+03 0.  0.
        -24    2    5    5    0    0 -0.17154538818E+03 -0.20087101458E+02  0.75755270616E+03  0.78099955291E+03  0.79011943275E+02 0.  0.
          5    1    3    3  501    0  0.14199957577E+03  0.21678088806E+02  0.17560972400E+03  0.22692440199E+03  0.47000000000E+01 0. -1.
        -11    1    4    4    0    0  0.53900032355E+02 -0.27200481123E+02  0.16127488146E+03  0.17220530494E+03  0.00000000000E+00 0.  1.
         12    1    4    4    0    0 -0.15936766627E+02 -0.34067982838E+02  0.33984367357E+02  0.50690681687E+02  0.00000000000E+00 0. -1.
         -5    1    5    5    0  502 -0.84174533203E+01  0.59677476613E+02  0.17754179536E+03  0.18755114992E+03  0.47000000000E+01 0.  1.
         13    1    6    6    0    0 -0.29884057499E+02 -0.27502563061E+02  0.93097236417E+02  0.10157038592E+03  0.00000000000E+00 0. -1.
        -14    1    6    6    0    0 -0.14166133068E+03  0.74154616028E+01  0.66445546975E+03  0.67942916699E+03  0.00000000000E+00 0.  1.
</event>
<event>
12    1  0.1627564E-001  0.1874176E+03  0.7818608E-02  0.1160838E+00
         21   -1    0    0  501  502  0.00000000000E+00  0.00000000000E+00  0.14337768732E+03  0.14337768732E+03  0.00000000000E+00 0. -1.
         21   -1    0    0  502  503 -0.00000000000E+00 -0.00000000000E+00 -0.27737743918E+03  0.27737743918E+03  0.00000000000E+00 0.  1.
         -6    2    1    2    0  503 -0.20907897856E+02  0.67862438748E+02 -0.13908079668E+03  0.23338558443E+03  0.17344426260E+03 0.  0.
        -24    2    3    3    0    0 -0.26105953849E+02  0.51863429608E+00 -0.40343997983E+01  0.82316636279E+02  0.77961287949E+02 0.  0.
          6    2    1    2  501    0  0.20907897856E+02 -0.67862438748E+02  0.50810448177E+01  0.18736954206E+03  0.17331785105E+03 0.  0.
         24    2    5    5    0    0  0.29525543290E+02  0.24356182719E+01 -0.49899160190E+02  0.97586505937E+02  0.78457058385E+02 0.  0.
          5    1    5    5  501    0 -0.86176454341E+01 -0.70298057020E+02  0.54980205008E+02  0.89783036128E+02  0.47000000000E+01 0. -1.
        -13    1    6    6    0    0  0.44410809371E+01  0.63116165328E+00 -0.67015339140E+02  0.67165297923E+02  0.00000000000E+00 0.  1.
         14    1    6    6    0    0  0.25084462353E+02  0.18044566186E+01  0.17116178950E+02  0.30421208014E+02  0.00000000000E+00 0. -1.
         -5    1    3    3    0  503  0.51980559933E+01  0.67343804452E+02 -0.13504639689E+03  0.15106894815E+03  0.47000000000E+01 0.  1.
         13    1    4    4    0    0 -0.22476564570E+02 -0.29282805740E+02 -0.25970522844E+02  0.45134761810E+02  0.00000000000E+00 0. -1.
        -14    1    4    4    0    0 -0.36293892787E+01  0.29801440036E+02  0.21936123045E+02  0.37181874469E+02  0.00000000000E+00 0.  1.
</event>
<event>
12    1  0.1627564E-001  0.3961400E+03  0.7818608E-02  0.1045224E+00
         21   -1    0    0  503  502  0.00000000000E+00  0.00000000000E+00  0.14847151272E+04  0.14847151272E+04  0.00000000000E+00 0.  1.
         21   -1    0    0  501  503 -0.00000000000E+00 -0.00000000000E+00 -0.12758992341E+03  0.12758992341E+03  0.00000000000E+00 0. -1.
          6    2    1    2  501    0  0.21244985977E+03 -0.28602322894E+03  0.34311312113E+03  0.52407392688E+03  0.17315494949E+03 0.  0.
         24    2    3    3    0    0  0.10889730158E+03 -0.89703736314E+02  0.79993303570E+02  0.17980861657E+03  0.77632643750E+02 0.  0.
         -6    2    1    2    0  502 -0.21244985977E+03  0.28602322894E+03  0.10140120827E+04  0.10882311237E+04  0.17053517080E+03 0.  0.
        -24    2    5    5    0    0 -0.22145576053E+03  0.20589726388E+03  0.77355901445E+03  0.83457575807E+03  0.81772917046E+02 0.  0.
          5    1    3    3  501    0  0.10355255820E+03 -0.19631949262E+03  0.26311981756E+03  0.34426531031E+03  0.47000000000E+01 0. -1.
        -11    1    4    4    0    0  0.94329365005E+01  0.59138353722E+01  0.31752092138E+02  0.33647423304E+02  0.00000000000E+00 0.  1.
         12    1    4    4    0    0  0.99464365076E+02 -0.95617571687E+02  0.48241211432E+02  0.14616119326E+03  0.00000000000E+00 0. -1.
         -5    1    5    5    0  502  0.90059007534E+01  0.80125965055E+02  0.24045306822E+03  0.25365536568E+03  0.47000000000E+01 0.  1.
         13    1    6    6    0    0 -0.57549418781E+02  0.70921480301E+02  0.14747226109E+03  0.17346428958E+03  0.00000000000E+00 0. -1.
        -14    1    6    6    0    0 -0.16390634175E+03  0.13497578358E+03  0.62608675337E+03  0.66111146848E+03  0.00000000000E+00 0.  1.
</event>
<event>
12    1  0.1627564E-001  0.1893915E+03  0.7818608E-02  0.1159304E+00
         21   -1    0    0  501  502  0.00000000000E+00  0.00000000000E+00  0.15516537872E+03  0.15516537872E+03  0.00000000000E+00 0.  1.
         21   -1    0    0  502  503 -0.00000000000E+00 -0.00000000000E+00 -0.26583961340E+03  0.26583961340E+03  0.00000000000E+00 0.  1.
         -6    2    1    2    0  503 -0.61870020375E+02 -0.45386554263E+02 -0.13322351923E+03  0.23155488170E+03  0.17315114333E+03 0.  0.
        -24    2    3    3    0    0  0.22829959776E+02 -0.31348326327E+02 -0.11510619203E+03  0.14368289512E+03  0.76755548860E+02 0.  0.
          6    2    1    2  501    0  0.61870020375E+02  0.45386554263E+02  0.22549284555E+02  0.18945011041E+03  0.17174118718E+03 0.  0.
         24    2    5    5    0    0  0.33598812052E+02  0.91576326104E+02 -0.90669258598E+01  0.12656584367E+03  0.80134886072E+02 0.  0.
          5    1    5    5  501    0  0.28271208323E+02 -0.46189771841E+02  0.31616210415E+02  0.62884266743E+02  0.47000000000E+01 0. -1.
        -11    1    6    6    0    0 -0.18604397967E+02  0.65093104913E+02 -0.53915416800E+01  0.67913950354E+02  0.00000000000E+00 0.  1.
         12    1    6    6    0    0  0.52203210019E+02  0.26483221191E+02 -0.36753841798E+01  0.58651893318E+02  0.00000000000E+00 0. -1.
         -5    1    3    3    0  503 -0.84699980151E+02 -0.14038227936E+02 -0.18117327201E+02  0.87871986583E+02  0.47000000000E+01 0.  1.
         11    1    4    4    0    0  0.33992939420E+01  0.57644416684E+01  0.98405916501E+01  0.11900471885E+02  0.00000000000E+00 0. -1.
        -12    1    4    4    0    0  0.19430665834E+02 -0.37112767996E+02 -0.12494678368E+03  0.13178242324E+03  0.00000000000E+00 0.  1.
</event>
<event>
12    1  0.1627564E-001  0.1770657E+03  0.7818608E-02  0.1171007E+00
         21   -1    0    0  501  502  0.00000000000E+00  0.00000000000E+00  0.14041650655E+04  0.14041650655E+04  0.00000000000E+00 0. -1.
         21   -1    0    0  502  503 -0.00000000000E+00 -0.00000000000E+00 -0.96236352150E+02  0.96236352150E+02  0.00000000000E+00 0. -1.
         -6    2    1    2    0  503 -0.31940763292E+02  0.23815036347E+02 -0.47980866308E+01  0.17578678515E+03  0.17114497913E+03 0.  0.
        -24    2    3    3    0    0 -0.34641555183E+01 -0.51701702584E+02  0.45034215018E+01  0.94409250763E+02  0.78789335579E+02 0.  0.
          6    2    1    2  501    0  0.31940763292E+02 -0.23815036347E+02  0.13127268000E+04  0.13246146325E+04  0.17252508494E+03 0.  0.
         24    2    5    5    0    0  0.75403837103E+01 -0.52818462698E+02  0.40189922767E+03  0.41298667453E+03  0.78666109309E+02 0.  0.
          5    1    5    5  501    0  0.24400379582E+02  0.29003426351E+02  0.91082757230E+03  0.91162795796E+03  0.47000000000E+01 0. -1.
        -13    1    6    6    0    0  0.98113291036E+00  0.16797606427E+02  0.16850200081E+03  0.16934003212E+03  0.00000000000E+00 0.  1.
         14    1    6    6    0    0  0.65592508000E+01 -0.69616069125E+02  0.23339722686E+03  0.24364664241E+03  0.00000000000E+00 0. -1.
         -5    1    3    3    0  503 -0.28476607774E+02  0.75516738931E+02 -0.93015081326E+01  0.81377534386E+02  0.47000000000E+01 0.  1.
         13    1    4    4    0    0 -0.32968022266E+01  0.28034761587E+01 -0.29731036144E+02  0.30044348781E+02  0.00000000000E+00 0. -1.
        -14    1    4    4    0    0 -0.16735329166E+00 -0.54505178743E+02  0.34234457645E+02  0.64364901982E+02  0.00000000000E+00 0.  1.
</event>
<event>
12    1  0.1627564E-001  0.2506731E+03  0.7818608E-02  0.1113103E+00
         21   -1    0    0  501  502  0.00000000000E+00  0.00000000000E+00  0.10174190297E+04  0.10174190297E+04  0.00000000000E+00 0. -1.
         21   -1    0    0  502  503 -0.00000000000E+00 -0.00000000000E+00 -0.72239554908E+02  0.72239554908E+02  0.00000000000E+00 0.  1.
         -6    2    1    2    0  503 -0.43915223080E+02  0.17748700735E+03  0.26055300693E+03  0.36058354003E+03  0.16941793095E+03 0.  0.
        -24    2    3    3    0    0 -0.70928013036E+02  0.48505851047E+02  0.12550408237E+03  0.17183468169E+03  0.79951751204E+02 0.  0.
          6    2    1    2  501    0  0.43915223080E+02 -0.17748700735E+03  0.68462646785E+03  0.72907504456E+03  0.17148421364E+03 0.  0.
         24    2    5    5    0    0  0.84955902749E+02 -0.16768909660E+03  0.50877578955E+03  0.54817206642E+03  0.79389368559E+02 0.  0.
          5    1    5    5  501    0 -0.41040679670E+02 -0.97979107468E+01  0.17585067830E+03  0.18090297814E+03  0.47000000000E+01 0. -1.
        -13    1    6    6    0    0  0.27355454958E+02 -0.55885721311E+02  0.80100409202E+02  0.10142785770E+03  0.00000000000E+00 0.  1.
         14    1    6    6    0    0  0.57600447791E+02 -0.11180337529E+03  0.42867538035E+03  0.44674420872E+03  0.00000000000E+00 0. -1.
         -5    1    3    3    0  503  0.27012789956E+02  0.12898115630E+03  0.13504892456E+03  0.18874885834E+03  0.47000000000E+01 0.  1.
         13    1    4    4    0    0 -0.35319245194E+02  0.21718883422E+02  0.31071180193E+01  0.41578999032E+02  0.00000000000E+00 0. -1.
        -14    1    4    4    0    0 -0.35608767842E+02  0.26786967625E+02  0.12239696435E+03  0.13025568266E+03  0.00000000000E+00 0.  1.
</event>
<event>
12    1  0.1627564E-001  0.1758707E+03  0.7818608E-02  0.1172076E+00
         21   -1    0    0  503  502  0.00000000000E+00  0.00000000000E+00  0.11623973869E+03  0.11623973869E+03  0.00000000000E+00 0.  1.
         21   -1    0    0  501  503 -0.00000000000E+00 -0.00000000000E+00 -0.18005965616E+04  0.18005965616E+04  0.00000000000E+00 0.  1.
          6    2    1    2  501    0 -0.19109066256E+02 -0.27413383488E+02 -0.17270203875E+04  0.17358647883E+04  0.17178618867E+03 0.  0.
         24    2    3    3    0    0  0.45691207473E+02 -0.17686649638E+02 -0.13434701549E+04  0.13467291362E+04  0.79792263167E+02 0.  0.
         -6    2    1    2    0  502  0.19109066256E+02  0.27413383488E+02  0.42663564504E+02  0.18097151201E+03  0.17266690017E+03 0.  0.
        -24    2    5    5    0    0  0.71046823386E+02  0.39404774697E+02  0.53216055255E+02  0.12643006777E+03  0.80945822109E+02 0.  0.
          5    1    3    3  501    0 -0.64800273729E+02 -0.97267338498E+01 -0.38355023260E+03  0.38913565212E+03  0.47000000000E+01 0. -1.
        -11    1    4    4    0    0 -0.10035772617E+02  0.20092675404E+02 -0.53079409221E+03  0.53126904734E+03  0.00000000000E+00 0.  1.
         12    1    4    4    0    0  0.55726980090E+02 -0.37779325042E+02 -0.81267606265E+03  0.81546008885E+03  0.00000000000E+00 0. -1.
         -5    1    5    5    0  502 -0.51937757130E+02 -0.11991391209E+02 -0.10552490751E+02  0.54541444240E+02  0.47000000000E+01 0.  1.
         13    1    6    6    0    0  0.57052520098E+02  0.57490591359E+02  0.15712914343E+02  0.82504871501E+02  0.00000000000E+00 0. -1.
        -14    1    6    6    0    0  0.13994303288E+02 -0.18085816662E+02  0.37503140912E+02  0.43925196267E+02  0.00000000000E+00 0.  1.
</event>
<event>
12    1  0.1627564E-001  0.2396937E+03  0.7818608E-02  0.1121300E+00
         21   -1    0    0  503  502  0.00000000000E+00  0.00000000000E+00  0.16685512959E+03  0.16685512959E+03  0.00000000000E+00 0.  1.
         21   -1    0    0  501  503 -0.00000000000E+00 -0.00000000000E+00 -0.94277299110E+03  0.94277299110E+03  0.00000000000E+00 0.  1.
          6    2    1    2  501    0 -0.40176489232E+02  0.14606911648E+03 -0.83176149053E+03  0.86351516690E+03  0.17572970511E+03 0.  0.
         24    2    3    3    0    0 -0.11629151390E+02  0.11772549678E+01 -0.21365849762E+03  0.22799805315E+03  0.78718076331E+02 0.  0.
         -6    2    1    2    0  502  0.40176489232E+02 -0.14606911648E+03  0.55843629028E+02  0.24611295379E+03  0.18574912663E+03 0.  0.
        -24    2    5    5    0    0 -0.11863072311E+02 -0.75036744797E+02  0.98831162006E+02  0.14801233308E+03  0.79804803152E+02 0.  0.
          5    1    3    3  501    0 -0.28547337843E+02  0.14489186151E+03 -0.61810299291E+03  0.63551711375E+03  0.47000000000E+01 0. -1.
        -11    1    4    4    0    0  0.30340149352E+02  0.16684826415E+02 -0.85012402870E+02  0.91793337106E+02  0.00000000000E+00 0.  1.
         12    1    4    4    0    0 -0.41969300742E+02 -0.15507571447E+02 -0.12864609475E+03  0.13620471604E+03  0.00000000000E+00 0. -1.
         -5    1    5    5    0  502  0.52039561544E+02 -0.71032371681E+02 -0.42987532978E+02  0.98100620711E+02  0.47000000000E+01 0.  1.
         11    1    6    6    0    0 -0.22738629838E+02 -0.12639112505E+01  0.59491481529E+02  0.63701484544E+02  0.00000000000E+00 0. -1.
        -12    1    6    6    0    0  0.10875557527E+02 -0.73772833547E+02  0.39339680477E+02  0.84310848537E+02  0.00000000000E+00 0.  1.
</event>
<event>
12    1  0.1627564E-001  0.2278898E+03  0.7818608E-02  0.1128806E+00
         21   -1    0    0  503  502  0.00000000000E+00  0.00000000000E+00  0.39317827489E+03  0.39317827489E+03  0.00000000000E+00 0.  1.
         21   -1    0    0  501  503 -0.00000000000E+00 -0.00000000000E+00 -0.20620903451E+03  0.20620903451E+03  0.00000000000E+00 0.  1.
          6    2    1    2  501    0 -0.58512370124E+02 -0.13048351564E+03 -0.88302414889E+02  0.24439938405E+03  0.17743758659E+03 0.  0.
         24    2    3    3    0    0 -0.74808711170E+02 -0.23902525985E+02 -0.70809307120E+02  0.13506879863E+03  0.84035399528E+02 0.  0.
         -6    2    1    2    0  502  0.58512370124E+02  0.13048351564E+03  0.27527165526E+03  0.35498792535E+03  0.17260445429E+03 0.  0.
        -24    2    5    5    0    0 -0.23164777349E+02  0.21946956766E+02  0.13505549128E+03  0.15970862877E+03  0.79047988948E+02 0.  0.
          5    1    3    3  501    0  0.16296341046E+02 -0.10658098966E+03 -0.17493107769E+02  0.10933058542E+03  0.47000000000E+01 0. -1.
        -11    1    4    4    0    0 -0.68211415368E+02  0.24232539957E+01 -0.10662357424E+02  0.69082235143E+02  0.00000000000E+00 0.  1.
         12    1    4    4    0    0 -0.65972958019E+01 -0.26325779981E+02 -0.60146949696E+02  0.65986563490E+02  0.00000000000E+00 0. -1.
         -5    1    5    5    0  502  0.81677147472E+02  0.10853655888E+03  0.14021616398E+03  0.19527929658E+03  0.47000000000E+01 0.  1.
         13    1    6    6    0    0 -0.38657933767E+02  0.22127733791E+02  0.30436758494E+02  0.53948760073E+02  0.00000000000E+00 0. -1.
        -14    1    6    6    0    0  0.15493156418E+02 -0.18077702505E+00  0.10461873279E+03  0.10575986870E+03  0.00000000000E+00 0.  1.
</event>
<event>
12    1  0.1627564E-001  0.2929974E+03  0.7818608E-02  0.1088809E+00
         21   -1    0    0  501  502  0.00000000000E+00  0.00000000000E+00  0.18990699925E+03  0.18990699925E+03  0.00000000000E+00 0.  1.
         21   -1    0    0  502  503 -0.00000000000E+00 -0.00000000000E+00 -0.58645269774E+03  0.58645269774E+03  0.00000000000E+00 0. -1.
         -6    2    1    2    0  503 -0.63586632907E+02  0.22834759121E+03 -0.38419519019E+03  0.48310209204E+03  0.17203431307E+03 0.  0.
        -24    2    3    3    0    0 -0.84854656550E+02  0.22800925044E+03 -0.29104519405E+03  0.38743885414E+03  0.78822773953E+02 0.  0.
          6    2    1    2  501    0  0.63586632907E+02 -0.22834759121E+03 -0.12350508304E+02  0.29325760495E+03  0.17222544966E+03 0.  0.
         24    2    5    5    0    0 -0.15407796746E+02 -0.15240734057E+03  0.33388550871E+02  0.17442497846E+03  0.76445275351E+02 0.  0.
          5    1    5    5  501    0  0.78994429653E+02 -0.75940250639E+02 -0.45739059175E+02  0.11883262649E+03  0.47000000000E+01 0. -1.
        -11    1    6    6    0    0  0.27136730806E+02 -0.95313162751E+02  0.10607833587E+02  0.99667082258E+02  0.00000000000E+00 0.  1.
         12    1    6    6    0    0 -0.42544527552E+02 -0.57094177817E+02  0.22780717284E+02  0.74757896207E+02  0.00000000000E+00 0. -1.
         -5    1    3    3    0  503  0.21268023644E+02  0.33834076679E+00 -0.93149996145E+02  0.95663237902E+02  0.47000000000E+01 0.  1.
         11    1    4    4    0    0 -0.22802222354E+02  0.19399084693E+02 -0.75081020081E+02  0.80829607247E+02  0.00000000000E+00 0. -1.
        -12    1    4    4    0    0 -0.62052434196E+02  0.20861016575E+03 -0.21596417396E+03  0.30660924689E+03  0.00000000000E+00 0.  1.
</event>
<event>
12    1  0.1627564E-001  0.1898660E+03  0.7818608E-02  0.1159681E+00
         21   -1    0    0  501  502  0.00000000000E+00  0.00000000000E+00  0.11114623572E+04  0.11114623572E+04  0.00000000000E+00 0. -1.
         21   -1    0    0  502  503 -0.00000000000E+00 -0.00000000000E+00 -0.50920126773E+02  0.50920126773E+02  0.00000000000E+00 0. -1.
         -6    2    1    2    0  503 -0.70863411659E+02 -0.35797452684E+02  0.16824848118E+03  0.25011210610E+03  0.16716887710E+03 0.  0.
        -24    2    3    3    0    0 -0.56802924184E+02  0.16623006686E+02  0.16840989555E+03  0.19563534112E+03  0.80052465466E+02 0.  0.
          6    2    1    2  501    0  0.70863411659E+02  0.35797452684E+02  0.89229374928E+03  0.91227037790E+03  0.17247036458E+03 0.  0.
         24    2    5    5    0    0  0.64746755221E+02  0.86378820769E+02  0.72003243995E+03  0.73257080368E+03  0.80992745555E+02 0.  0.
          5    1    5    5  501    0  0.61166564377E+01 -0.50581368085E+02  0.17226130933E+03  0.17969957422E+03  0.47000000000E+01 0. -1.
        -13    1    6    6    0    0  0.31876184721E+02  0.25003888536E+02  0.89936987894E+02  0.98640495668E+02  0.00000000000E+00 0.  1.
         14    1    6    6    0    0  0.32870570500E+02  0.61374932233E+02  0.63009545206E+03  0.63393030801E+03  0.00000000000E+00 0. -1.
         -5    1    3    3    0  503 -0.14060487475E+02 -0.52420459370E+02 -0.16141437553E+00  0.54476764985E+02  0.47000000000E+01 0.  1.
         13    1    4    4    0    0 -0.76606095497E+02  0.20389315830E+02  0.13021101185E+03  0.15244384433E+03  0.00000000000E+00 0. -1.
        -14    1    4    4    0    0  0.19803171313E+02 -0.37663091441E+01  0.38198883701E+02  0.43191496786E+02  0.00000000000E+00 0.  1.
</event>
<event>
12    1  0.1627564E-001  0.2427611E+03  0.7818608E-02  0.1118144E+00
         21   -1    0    0  501  502  0.00000000000E+00  0.00000000000E+00  0.26403556637E+03  0.26403556637E+03  0.00000000000E+00 0.  1.
         21   -1    0    0  502  503 -0.00000000000E+00 -0.00000000000E+00 -0.22584525998E+03  0.22584525998E+03  0.00000000000E+00 0.  1.
         -6    2    1    2    0  503  0.16476498333E+03 -0.48370352421E+02  0.50114039770E+02  0.24682703412E+03  0.17007344609E+03 0.  0.
        -24    2    3    3    0    0  0.13831880087E+03 -0.25545623556E+01  0.87456662564E+02  0.18190362799E+03  0.79382904880E+02 0.  0.
          6    2    1    2  501    0 -0.16476498333E+03  0.48370352421E+02 -0.11923733381E+02  0.24305379224E+03  0.17159772661E+03 0.  0.
         24    2    5    5    0    0 -0.87947333433E+02 -0.39726987735E+02 -0.78143977233E+01  0.12600222532E+03  0.80638259910E+02 0.  0.
          5    1    5    5  501    0 -0.76817649900E+02  0.88097340156E+02 -0.41093356574E+01  0.11705156692E+03  0.47000000000E+01 0. -1.
        -13    1    6    6    0    0 -0.65105641192E+02  0.11013675947E+02 -0.20090239928E+02  0.69019296673E+02  0.00000000000E+00 0.  1.
         14    1    6    6    0    0 -0.22841692241E+02 -0.50740663682E+02  0.12275842205E+02  0.56982928647E+02  0.00000000000E+00 0. -1.
         -5    1    3    3    0  503  0.26446182469E+02 -0.45815790065E+02 -0.37342622794E+02  0.64923406130E+02  0.47000000000E+01 0.  1.
         13    1    4    4    0    0  0.58195724940E+02 -0.38845297592E+02  0.51502103651E+02  0.86880183165E+02  0.00000000000E+00 0. -1.
        -14    1    4    4    0    0  0.80123075925E+02  0.36290735236E+02  0.35954558913E+02  0.95023444825E+02  0.00000000000E+00 0.  1.
</event>
<event>
12    1  0.1627564E-001  0.2170836E+03  0.7818608E-02  0.1136244E+00
         21   -1    0    0  501  502  0.00000000000E+00  0.00000000000E+00  0.24547205978E+03  0.24547205978E+03  0.00000000000E+00 0.  1.
         21   -1    0    0  502  503 -0.00000000000E+00 -0.00000000000E+00 -0.21085342354E+03  0.21085342354E+03  0.00000000000E+00 0.  1.
         -6    2    1    2    0  503  0.67462201750E+02  0.11291377913E+03  0.87000994296E+02  0.23386843876E+03  0.17269801232E+03 0.  0.
        -24    2    3    3    0    0 -0.27830949025E+02  0.35265020869E+02  0.18361790095E+02  0.93001321956E+02  0.79334148571E+02 0.  0.
          6    2    1    2  501    0 -0.67462201750E+02 -0.11291377913E+03 -0.52382358059E+02  0.22245704456E+03  0.17158833019E+03 0.  0.
         24    2    5    5    0    0 -0.10067712208E+03 -0.76863803335E+02 -0.25603993059E+01  0.15240599702E+03  0.84717796890E+02 0.  0.
          5    1    5    5  501    0  0.33214920332E+02 -0.36049975795E+02 -0.49821958753E+02  0.70051047540E+02  0.47000000000E+01 0. -1.
        -13    1    6    6    0    0 -0.61136290143E+01 -0.51012779798E+02 -0.15156498996E+02  0.53566777243E+02  0.00000000000E+00 0.  1.
         14    1    6    6    0    0 -0.94563493067E+02 -0.25851023537E+02  0.12596099690E+02  0.98839219778E+02  0.00000000000E+00 0. -1.
         -5    1    3    3    0  503  0.95293150775E+02  0.77648758260E+02  0.68639204201E+02  0.14086711681E+03  0.47000000000E+01 0.  1.
         11    1    4    4    0    0  0.64874878875E+01 -0.13966831409E+02 -0.17324603243E+02  0.23179770409E+02  0.00000000000E+00 0. -1.
        -12    1    4    4    0    0 -0.34318436913E+02  0.49231852278E+02  0.35686393338E+02  0.69821551547E+02  0.00000000000E+00 0.  1.
</event>
<event>
12    1  0.1627564E-001  0.1801085E+03  0.7818608E-02  0.1167722E+00
         21   -1    0    0  501  502  0.00000000000E+00  0.00000000000E+00  0.10917669349E+03  0.10917669349E+03  0.00000000000E+00 0. -1.
         21   -1    0    0  502  503 -0.00000000000E+00 -0.00000000000E+00 -0.30436430364E+03  0.30436430364E+03  0.00000000000E+00 0. -1.
         -6    2    1    2    0  503 -0.51763335528E+02 -0.11179576220E+02 -0.65370131486E+02  0.19160458286E+03  0.17214713548E+03 0.  0.
        -24    2    3    3    0    0  0.35508342111E+02 -0.21370175489E+02 -0.19709500865E+02  0.92472462837E+02  0.80281786221E+02 0.  0.
          6    2    1    2  501    0  0.51763335528E+02  0.11179576220E+02 -0.12981747866E+03  0.22193641427E+03  0.17204292600E+03 0.  0.
         24    2    5    5    0    0 -0.26770915901E+02  0.32425446238E+02 -0.10030889986E+03  0.13526541646E+03  0.80416204804E+02 0.  0.
          5    1    5    5  501    0  0.78534251430E+02 -0.21245870019E+02 -0.29508578796E+02  0.86670997819E+02  0.47000000000E+01 0. -1.
        -13    1    6    6    0    0 -0.14262537496E+02 -0.15952707672E+02  0.19128038823E+01  0.21484126154E+02  0.00000000000E+00 0.  1.
         14    1    6    6    0    0 -0.12508378406E+02  0.48378153910E+02 -0.10222170375E+03  0.11378129030E+03  0.00000000000E+00 0. -1.
         -5    1    3    3    0  503 -0.87271677639E+02  0.10190599270E+02 -0.45660630622E+02  0.99132120022E+02  0.47000000000E+01 0.  1.
         11    1    4    4    0    0 -0.98659237845E+01  0.16654121670E+02  0.14420895951E+02  0.24138319344E+02  0.00000000000E+00 0. -1.
        -12    1    4    4    0    0  0.45374265895E+02 -0.38024297159E+02 -0.34130396816E+02  0.68334143492E+02  0.00000000000E+00 0.  1.
</event>
<event>
12    1  0.1627564E-001  0.1767546E+03  0.7818608E-02  0.1171038E+00
         21   -1    0    0  503  502  0.00000000000E+00  0.00000000000E+00  0.16298958549E+03  0.16298958549E+03  0.00000000000E+00 0.  1.
         21   -1    0    0  501  503 -0.00000000000E+00 -0.00000000000E+00 -0.25757194034E+03  0.25757194034E+03  0.00000000000E+00 0. -1.
          6    2    1    2  501    0  0.47149045146E+02 -0.20027576384E+02 -0.15386941061E+03  0.23434585710E+03  0.16916869966E+03 0.  0.
         24    2    3    3    0    0  0.27659291549E+02  0.42664565748E+02 -0.40555696662E+02  0.10330295211E+03  0.80258543492E+02 0.  0.
         -6    2    1    2    0  502 -0.47149045146E+02  0.20027576384E+02  0.59287055756E+02  0.18621566872E+03  0.16892952384E+03 0.  0.
        -24    2    5    5    0    0 -0.23890272734E+02  0.57280618432E+02  0.87599236097E+02  0.13375206999E+03  0.79775783817E+02 0.  0.
          5    1    3    3  501    0  0.19489753596E+02 -0.62692142132E+02 -0.11331371395E+03  0.13104290499E+03  0.47000000000E+01 0. -1.
        -11    1    4    4    0    0 -0.10407986390E+02 -0.12399107613E+01 -0.43864349460E+02  0.45099276191E+02  0.00000000000E+00 0.  1.
         12    1    4    4    0    0  0.38067277939E+02  0.43904476509E+02  0.33086527974E+01  0.58203675920E+02  0.00000000000E+00 0. -1.
         -5    1    5    5    0  502 -0.23258772411E+02 -0.37253042048E+02 -0.28312180341E+02  0.52463598729E+02  0.47000000000E+01 0.  1.
         11    1    6    6    0    0  0.18119645721E+02  0.51159635587E+02  0.29432863704E+02  0.61740775346E+02  0.00000000000E+00 0. -1.
        -12    1    6    6    0    0 -0.42009918455E+02  0.61209828452E+01  0.58166372393E+02  0.72011294649E+02  0.00000000000E+00 0.  1.
</event>
<event>
12    1  0.1627564E-001  0.1767833E+03  0.7818608E-02  0.1171337E+00
         21   -1    0    0  501  502  0.00000000000E+00  0.00000000000E+00  0.11270375411E+04  0.11270375411E+04  0.00000000000E+00 0. -1.
         21   -1    0    0  502  503 -0.00000000000E+00 -0.00000000000E+00 -0.37564046444E+02  0.37564046444E+02  0.00000000000E+00 0. -1.
         -6    2    1    2    0  503 -0.31451549475E+02  0.20068391188E+02  0.24140887777E+03  0.29830721567E+03  0.17122210244E+03 0.  0.
        -24    2    3    3    0    0 -0.77932146505E+02  0.37482612909E+02  0.84960425332E+02  0.13410639567E+03  0.57340088571E+02 0.  0.
          6    2    1    2  501    0  0.31451549475E+02 -0.20068391188E+02  0.84806461685E+03  0.86629437184E+03  0.17280163205E+03 0.  0.
         24    2    5    5    0    0  0.15401310718E+02  0.22227139445E+02  0.16832157335E+03  0.18503141434E+03  0.71925142595E+02 0.  0.
          5    1    5    5  501    0  0.16050238757E+02 -0.42295530633E+02  0.67974304351E+03  0.68126295751E+03  0.47000000000E+01 0. -1.
        -13    1    6    6    0    0  0.12608744979E+00  0.42143182671E+02  0.56838962840E+02  0.70758260581E+02  0.00000000000E+00 0.  1.
         14    1    6    6    0    0  0.15275223268E+02 -0.19916043226E+02  0.11148261051E+03  0.11427315376E+03  0.00000000000E+00 0. -1.
         -5    1    3    3    0  503  0.46480597030E+02 -0.17414221721E+02  0.15644845244E+03  0.16420082000E+03  0.47000000000E+01 0.  1.
         13    1    4    4    0    0 -0.63542167836E+02  0.29523986984E+02  0.92479501167E+02  0.11602470011E+03  0.00000000000E+00 0. -1.
        -14    1    4    4    0    0 -0.14389978669E+02  0.79586259245E+01 -0.75190758344E+01  0.18081695554E+02  0.00000000000E+00 0.  1.
</event>
<event>
12    1  0.1627564E-001  0.2354665E+03  0.7818608E-02  0.1123361E+00
         21   -1    0    0  501  502  0.00000000000E+00  0.00000000000E+00  0.72346511445E+02  0.72346511445E+02  0.00000000000E+00 0. -1.
         21   -1    0    0  502  503 -0.00000000000E+00 -0.00000000000E+00 -0.94340677083E+03  0.94340677083E+03  0.00000000000E+00 0.  1.
         -6    2    1    2    0  503 -0.84324779976E+02 -0.13357054859E+03 -0.66365788144E+03  0.70419191329E+03  0.17462161141E+03 0.  0.
        -24    2    3    3    0    0 -0.26708518040E+02 -0.11169440860E+03 -0.26079341621E+03  0.29661361837E+03  0.82325250169E+02 0.  0.
          6    2    1    2  501    0  0.84324779976E+02  0.13357054859E+03 -0.20740237794E+03  0.31156136898E+03  0.17059595628E+03 0.  0.
         24    2    5    5    0    0  0.46859269088E+01  0.16685677179E+02 -0.12120330258E+03  0.14586046169E+03  0.79275872725E+02 0.  0.
          5    1    5    5  501    0  0.79638853068E+02  0.11688487141E+03 -0.86199075361E+02  0.16570090729E+03  0.47000000000E+01 0. -1.
        -11    1    6    6    0    0 -0.18719601468E+02  0.39364979157E+02 -0.43418244096E+02  0.61523726996E+02  0.00000000000E+00 0.  1.
         12    1    6    6    0    0  0.23405528376E+02 -0.22679301978E+02 -0.77785058479E+02  0.84336734697E+02  0.00000000000E+00 0. -1.
         -5    1    3    3    0  503 -0.57616261936E+02 -0.21876139986E+02 -0.40286446523E+03  0.40757829491E+03  0.47000000000E+01 0.  1.
         11    1    4    4    0    0  0.27621703075E+02 -0.20074075170E+02 -0.76013243935E+02  0.83330307981E+02  0.00000000000E+00 0. -1.
        -12    1    4    4    0    0 -0.54330221115E+02 -0.91620333434E+02 -0.18478017228E+03  0.21328331039E+03  0.00000000000E+00 0.  1.
</event>
<event>
12    1  0.1627564E-001  0.2275921E+03  0.7818608E-02  0.1130704E+00
         21   -1    0    0  503  502  0.00000000000E+00  0.00000000000E+00  0.58080762242E+02  0.58080762242E+02  0.00000000000E+00 0.  1.
         21   -1    0    0  501  503 -0.00000000000E+00 -0.00000000000E+00 -0.91065353423E+03  0.91065353423E+03  0.00000000000E+00 0.  1.
          6    2    1    2  501    0  0.12601117704E+03 -0.13750663549E+01 -0.54750372178E+03  0.58812259350E+03  0.17391708390E+03 0.  0.
         24    2    3    3    0    0  0.11526391725E+03  0.62106796289E+02 -0.39214933122E+03  0.41988904410E+03  0.73366795020E+02 0.  0.
         -6    2    1    2    0  502 -0.12601117704E+03  0.13750663549E+01 -0.30506905021E+03  0.38061170298E+03  0.18951895815E+03 0.  0.
        -24    2    5    5    0    0 -0.11249221426E+03  0.61866882595E+02 -0.27184070922E+03  0.31012599640E+03  0.76149543802E+02 0.  0.
          5    1    3    3  501    0  0.10747259796E+02 -0.63481862644E+02 -0.15535439056E+03  0.16823354940E+03  0.47000000000E+01 0. -1.
        -13    1    4    4    0    0  0.59276445987E+01  0.36988685208E+02 -0.84799134374E+02  0.92704870392E+02  0.00000000000E+00 0.  1.
         14    1    4    4    0    0  0.10933627265E+03  0.25118111081E+02 -0.30735019685E+03  0.32718417371E+03  0.00000000000E+00 0. -1.
         -5    1    5    5    0  502 -0.13518962788E+02 -0.60491816240E+02 -0.33228340987E+02  0.70485706577E+02  0.47000000000E+01 0.  1.
         13    1    6    6    0    0 -0.34769556313E+02 -0.11075283489E+02 -0.11374042564E+03  0.11945069433E+03  0.00000000000E+00 0. -1.
        -14    1    6    6    0    0 -0.77722657944E+02  0.72942166084E+02 -0.15810028358E+03  0.19067530207E+03  0.00000000000E+00 0.  1.
</event>
<event>
12    1  0.1627564E-001  0.1851676E+03  0.7818608E-02  0.1163068E+00
         21   -1    0    0  503  502  0.00000000000E+00  0.00000000000E+00  0.65201038346E+02  0.65201038346E+02  0.00000000000E+00 0.  1.
         21   -1    0    0  501  503 -0.00000000000E+00 -0.00000000000E+00 -0.12724759021E+04  0.12724759021E+04  0.00000000000E+00 0. -1.
          6    2    1    2  501    0 -0.38350822524E+01  0.70226020643E+02 -0.11161832851E+04  0.11313162875E+04  0.17048464593E+03 0.  0.
         24    2    3    3    0    0 -0.38875904378E+02  0.47798351570E+02 -0.34442612418E+03  0.35842427366E+03  0.77734076046E+02 0.  0.
         -6    2    1    2    0  502  0.38350822524E+01 -0.70226020643E+02 -0.91091578681E+02  0.20636065302E+03  0.17129110186E+03 0.  0.
        -24    2    5    5    0    0  0.37912129506E+02  0.17460188472E+02 -0.46658965624E+02  0.10221429676E+03  0.80799230466E+02 0.  0.
          5    1    3    3  501    0  0.35040822126E+02  0.22427669073E+02 -0.77175716093E+03  0.77289201380E+03  0.47000000000E+01 0. -1.
        -11    1    4    4    0    0  0.18344609881E+02 -0.39322181666E+01 -0.37212081914E+02  0.41674045781E+02  0.00000000000E+00 0.  1.
         12    1    4    4    0    0 -0.57220514259E+02  0.51730569736E+02 -0.30721404226E+03  0.31675022788E+03  0.00000000000E+00 0. -1.
         -5    1    5    5    0  502 -0.34077047254E+02 -0.87686209115E+02 -0.44432613057E+02  0.10414635626E+03  0.47000000000E+01 0.  1.
         13    1    6    6    0    0 -0.24747434457E+02  0.77587943888E+01 -0.51842282266E+01  0.26448263174E+02  0.00000000000E+00 0. -1.
        -14    1    6    6    0    0  0.62659563964E+02  0.97013940828E+01 -0.41474737398E+02  0.75766033587E+02  0.00000000000E+00 0.  1.
</event>
<event>
12    1  0.1627564E-001  0.2789897E+03  0.7818608E-02  0.1096467E+00
         21   -1    0    0  503  502  0.00000000000E+00  0.00000000000E+00  0.11443103829E+03  0.11443103829E+03  0.00000000000E+00 0. -1.
         21   -1    0    0  501  503 -0.00000000000E+00 -0.00000000000E+00 -0.96526415902E+03  0.96526415902E+03  0.00000000000E+00 0. -1.
          6    2    1    2  501    0 -0.77368901905E+02  0.20546990709E+03 -0.72170584074E+03  0.77375356937E+03  0.17213783965E+03 0.  0.
         24    2    3    3    0    0  0.10740378521E+02  0.15131424691E+03 -0.38084944082E+03  0.41752154358E+03  0.79161769370E+02 0.  0.
         -6    2    1    2    0  502  0.77368901905E+02 -0.20546990709E+03 -0.12912727999E+03  0.30594162794E+03  0.16947741905E+03 0.  0.
        -24    2    5    5    0    0  0.79897135096E+02 -0.14094448700E+03 -0.15302299711E+03  0.23692701283E+03  0.80433022771E+02 0.  0.
          5    1    3    3  501    0 -0.88109280426E+02  0.54155660176E+02 -0.34085639992E+03  0.35623202579E+03  0.47000000000E+01 0. -1.
        -11    1    4    4    0    0 -0.27007526907E+02  0.28196507232E+02 -0.12716964747E+03  0.13302845097E+03  0.00000000000E+00 0.  1.
         12    1    4    4    0    0  0.37747905428E+02  0.12311773968E+03 -0.25367979335E+03  0.28449309261E+03  0.00000000000E+00 0. -1.
         -5    1    5    5    0  502 -0.25282331908E+01 -0.64525420094E+02  0.23895717128E+02  0.69014615107E+02  0.47000000000E+01 0.  1.
         11    1    6    6    0    0  0.42925620696E+02 -0.12163687737E+03 -0.14567586235E+03  0.19457542424E+03  0.00000000000E+00 0. -1.
        -12    1    6    6    0    0  0.36971514399E+02 -0.19307609631E+02 -0.73471347605E+01  0.42351588587E+02  0.00000000000E+00 0.  1.
</event>
<event>
12    1  0.1627564E-001  0.1967982E+03  0.7818608E-02  0.1152572E+00
         21   -1    0    0  501  502  0.00000000000E+00  0.00000000000E+00  0.50053363342E+03  0.50053363342E+03  0.00000000000E+00 0. -1.
         21   -1    0    0  502  503 -0.00000000000E+00 -0.00000000000E+00 -0.37345189892E+03  0.37345189892E+03  0.00000000000E+00 0. -1.
         -6    2    1    2    0  503  0.33780629689E+02  0.88361304146E+02 -0.32566326795E+03  0.38050768125E+03  0.17257079820E+03 0.  0.
        -24    2    3    3    0    0  0.87485870503E+02  0.71503334061E+02 -0.20227148505E+03  0.24480187396E+03  0.79042390594E+02 0.  0.
          6    2    1    2  501    0 -0.33780629689E+02 -0.88361304146E+02  0.45274500245E+03  0.49347785109E+03  0.17202761774E+03 0.  0.
         24    2    5    5    0    0 -0.86211416960E+02 -0.82766090415E+02  0.32023629324E+03  0.35078607878E+03  0.78847672249E+02 0.  0.
          5    1    5    5  501    0  0.52430787271E+02 -0.55952137307E+01  0.13250870920E+03  0.14269177231E+03  0.47000000000E+01 0. -1.
        -11    1    6    6    0    0 -0.46834853109E+01 -0.52775691648E+02  0.86592679213E+02  0.10151601232E+03  0.00000000000E+00 0.  1.
         12    1    6    6    0    0 -0.81527931649E+02 -0.29990398767E+02  0.23364361403E+03  0.24927006646E+03  0.00000000000E+00 0. -1.
         -5    1    3    3    0  503 -0.53705240814E+02  0.16857970085E+02 -0.12339178290E+03  0.13570580729E+03  0.47000000000E+01 0.  1.
         13    1    4    4    0    0  0.54189852533E+02  0.52936887136E+02 -0.19033102236E+03  0.20485300147E+03  0.00000000000E+00 0. -1.
        -14    1    4    4    0    0  0.33296017969E+02  0.18566446925E+02 -0.11940462685E+02  0.39948872489E+02  0.00000000000E+00 0.  1.
</event>
<event>
12    1  0.1627564E-001  0.2296319E+03  0.7818608E-02  0.1126940E+00
         21   -1    0    0  503  502  0.00000000000E+00  0.00000000000E+00  0.20910165497E+03  0.20910165497E+03  0.00000000000E+00 0. -1.
         21   -1    0    0  501  503 -0.00000000000E+00 -0.00000000000E+00 -0.26433067506E+03  0.26433067506E+03  0.00000000000E+00 0. -1.
          6    2    1    2  501    0  0.83154771823E+02 -0.12748286088E+03 -0.78912230395E+02  0.24281254168E+03  0.17194241593E+03 0.  0.
         24    2    3    3    0    0 -0.13476528255E+02 -0.30334945482E+02 -0.58064573203E+02  0.10413290932E+03  0.79814424830E+02 0.  0.
         -6    2    1    2    0  502 -0.83154771823E+02  0.12748286088E+03  0.23683210302E+02  0.23061978834E+03  0.17163331969E+03 0.  0.
        -24    2    5    5    0    0 -0.57173834506E+02  0.35827601783E+01 -0.12649414680E+02  0.98830586596E+02  0.79534857972E+02 0.  0.
          5    1    3    3  501    0  0.96631300078E+02 -0.97147915403E+02 -0.20847657192E+02  0.13867963236E+03  0.47000000000E+01 0. -1.
        -13    1    4    4    0    0 -0.84273362156E+00 -0.53287641396E+02 -0.17980283759E+02  0.56245653428E+02  0.00000000000E+00 0.  1.
         14    1    4    4    0    0 -0.12633794634E+02  0.22952695914E+02 -0.40084289444E+02  0.47887255892E+02  0.00000000000E+00 0. -1.
         -5    1    5    5    0  502 -0.25980937317E+02  0.12390010071E+03  0.36332624982E+02  0.13178920175E+03  0.47000000000E+01 0.  1.
         13    1    6    6    0    0 -0.41761807075E+02  0.38360650585E+02  0.49400004576E+01  0.56920924518E+02  0.00000000000E+00 0. -1.
        -14    1    6    6    0    0 -0.15412027431E+02 -0.34777890406E+02 -0.17589415138E+02  0.41909662078E+02  0.00000000000E+00 0.  1.
</event>
<event>
12    1  0.1627564E-001  0.1996308E+03  0.7818608E-02  0.1150112E+00
         21   -1    0    0  503  502  0.00000000000E+00  0.00000000000E+00  0.72618357147E+03  0.72618357147E+03  0.00000000000E+00 0.  1.
         21   -1    0    0  501  503 -0.00000000000E+00 -0.00000000000E+00 -0.98141917341E+02  0.98141917341E+02  0.00000000000E+00 0. -1.
          6    2    1    2  501    0  0.96154996696E+02 -0.31538389751E+02  0.39990526655E+02  0.20331294145E+03  0.17174532460E+03 0.  0.
         24    2    3    3    0    0 -0.96958645361E+01  0.13333307888E+02  0.35982677240E+02  0.88178120784E+02  0.78796199371E+02 0.  0.
         -6    2    1    2    0  502 -0.96154996696E+02  0.31538389751E+02  0.58805112748E+03  0.62101254736E+03  0.17208138203E+03 0.  0.
        -24    2    5    5    0    0 -0.54689285041E+02 -0.50496598860E+02  0.29797486864E+03  0.31668464766E+03  0.77196627692E+02 0.  0.
          5    1    3    3  501    0  0.10585086123E+03 -0.44871697640E+02  0.40078494153E+01  0.11513482066E+03  0.47000000000E+01 0. -1.
        -13    1    4    4    0    0 -0.55611231778E+01 -0.33076379312E+02  0.19243874218E+02  0.38669104648E+02  0.00000000000E+00 0.  1.
         14    1    4    4    0    0 -0.41347413583E+01  0.46409687200E+02  0.16738803022E+02  0.49509016136E+02  0.00000000000E+00 0. -1.
         -5    1    5    5    0  502 -0.41465711654E+02  0.82034988611E+02  0.29007625883E+03  0.30432789970E+03  0.47000000000E+01 0.  1.
         13    1    6    6    0    0 -0.48907913890E+02 -0.32229741194E+02  0.87229442867E+02  0.10507005264E+03  0.00000000000E+00 0. -1.
        -14    1    6    6    0    0 -0.57813711511E+01 -0.18266857666E+02  0.21074542578E+03  0.21161459502E+03  0.00000000000E+00 0.  1.
</event>
<event>
12    1  0.1627564E-001  0.2439192E+03  0.7818608E-02  0.1118109E+00
         21   -1    0    0  503  502  0.00000000000E+00  0.00000000000E+00  0.49169528075E+02  0.49169528075E+02  0.00000000000E+00 0.  1.
         21   -1    0    0  501  503 -0.00000000000E+00 -0.00000000000E+00 -0.11832698356E+04  0.11832698356E+04  0.00000000000E+00 0. -1.
          6    2    1    2  501    0 -0.44819963528E+02  0.16696995462E+03 -0.55384012399E+03  0.60299638816E+03  0.16424970723E+03 0.  0.
         24    2    3    3    0    0  0.23141584476E+02  0.91815078339E+02 -0.20584420155E+03  0.24051841716E+03  0.80695304299E+02 0.  0.
         -6    2    1    2    0  502  0.44819963528E+02 -0.16696995462E+03 -0.58026018357E+03  0.62944297554E+03  0.17207203128E+03 0.  0.
        -24    2    5    5    0    0  0.10789588068E+02 -0.18647438878E+03 -0.47267922703E+03  0.51483825655E+03  0.82119826230E+02 0.  0.
          5    1    3    3  501    0 -0.67961548004E+02  0.75154876278E+02 -0.34799592243E+03  0.36247797101E+03  0.47000000000E+01 0. -1.
        -11    1    4    4    0    0  0.13766838372E+02  0.20832410001E+02 -0.26881115377E+01  0.25114559300E+02  0.00000000000E+00 0.  1.
         12    1    4    4    0    0  0.93747461041E+01  0.70982668338E+02 -0.20315609002E+03  0.21540385786E+03  0.00000000000E+00 0. -1.
         -5    1    5    5    0  502  0.34030375459E+02  0.19504434158E+02 -0.10758095654E+03  0.11460471899E+03  0.47000000000E+01 0.  1.
         11    1    6    6    0    0 -0.31710839094E+02 -0.63456110306E+02 -0.21047962647E+03  0.22211242290E+03  0.00000000000E+00 0. -1.
        -12    1    6    6    0    0  0.42500427162E+02 -0.12301827847E+03 -0.26219960057E+03  0.29272583364E+03  0.00000000000E+00 0.  1.
</event>
<event>
12    1  0.1627564E-001  0.2040612E+03  0.7818608E-02  0.1146405E+00
         21   -1    0    0  501  502  0.00000000000E+00  0.00000000000E+00  0.92911942441E+03  0.92911942441E+03  0.00000000000E+00 0. -1.
         21   -1    0    0  502  503 -0.00000000000E+00 -0.00000000000E+00 -0.63214946123E+02  0.63214946123E+02  0.00000000000E+00 0.  1.
         -6    2    1    2    0  503 -0.98095462868E+02 -0.47724653891E+02  0.70116605449E+03  0.73025666907E+03  0.17245464423E+03 0.  0.
        -24    2    3    3    0    0 -0.97113167657E+02 -0.90316749855E+02  0.57444328324E+03  0.59648147593E+03  0.90647574917E+02 0.  0.
          6    2    1    2  501    0  0.98095462868E+02  0.47724653891E+02  0.16473842379E+03  0.26207770146E+03  0.17217900832E+03 0.  0.
         24    2    5    5    0    0  0.12924885497E+03  0.64637120661E+02  0.15020892420E+03  0.22348026981E+03  0.80606986092E+02 0.  0.
          5    1    5    5  501    0 -0.31153392104E+02 -0.16912466771E+02  0.14529499589E+02  0.38597431652E+02  0.47000000000E+01 0. -1.
        -13    1    6    6    0    0  0.91259434513E+02  0.72598012755E+02  0.74438949606E+02  0.13834707464E+03  0.00000000000E+00 0.  1.
         14    1    6    6    0    0  0.37989420459E+02 -0.79608920936E+01  0.75769974595E+02  0.85133195170E+02  0.00000000000E+00 0. -1.
         -5    1    3    3    0  503 -0.98229521074E+00  0.42592095964E+02  0.12672277126E+03  0.13377519313E+03  0.47000000000E+01 0.  1.
         13    1    4    4    0    0  0.39072139654E+01 -0.12763602483E+02  0.21004832232E+03  0.21047202565E+03  0.00000000000E+00 0. -1.
        -14    1    4    4    0    0 -0.10102038162E+03 -0.77553147371E+02  0.36439496091E+03  0.38600945028E+03  0.00000000000E+00 0.  1.
</event>
<event>
12    1  0.1627564E-001  0.1913625E+03  0.7818608E-02  0.1158162E+00
         21   -1    0    0  501  502  0.00000000000E+00  0.00000000000E+00  0.13152729958E+03  0.13152729958E+03  0.00000000000E+00 0. -1.
         21   -1    0    0  502  503 -0.00000000000E+00 -0.00000000000E+00 -0.27580964629E+03  0.27580964629E+03  0.00000000000E+00 0. -1.
         -6    2    1    2    0  503 -0.49893403488E+02 -0.58772460992E+02 -0.49065701781E+02  0.19359452989E+03  0.17066881680E+03 0.  0.
        -24    2    3    3    0    0 -0.44041561689E+02  0.90730902335E+01  0.17754076348E+02  0.98073665032E+02  0.85330278469E+02 0.  0.
          6    2    1    2  501    0  0.49893403488E+02  0.58772460992E+02 -0.95216644936E+02  0.21374241598E+03  0.17514581649E+03 0.  0.
         24    2    5    5    0    0  0.47371126402E+02  0.97542812314E+02 -0.10882292991E+03  0.17230905968E+03  0.78034339389E+02 0.  0.
          5    1    5    5  501    0  0.25222770861E+01 -0.38770351322E+02  0.13606284976E+02  0.41433356299E+02  0.47000000000E+01 0. -1.
        -13    1    6    6    0    0 -0.29264267332E+01  0.33490897684E+02  0.32451611996E+01  0.33774772720E+02  0.00000000000E+00 0.  1.
         14    1    6    6    0    0  0.50297553136E+02  0.64051914630E+02 -0.11206809111E+03  0.13853428696E+03  0.00000000000E+00 0. -1.
         -5    1    3    3    0  503 -0.58518417997E+01 -0.67845551226E+02 -0.66819778130E+02  0.95520864856E+02  0.47000000000E+01 0.  1.
         13    1    4    4    0    0 -0.11402794456E+02 -0.35579230597E+02 -0.60697168953E+01  0.37851642428E+02  0.00000000000E+00 0. -1.
        -14    1    4    4    0    0 -0.32638767233E+02  0.44652320831E+02  0.23823793244E+02  0.60222022605E+02  0.00000000000E+00 0.  1.
</event>
<event>
12    1  0.1627564E-001  0.2128892E+03  0.7818608E-02  0.1139396E+00
         21   -1    0    0  501  502  0.00000000000E+00  0.00000000000E+00  0.89823062020E+02  0.89823062020E+02  0.00000000000E+00 0. -1.
         21   -1    0    0  502  503 -0.00000000000E+00 -0.00000000000E+00 -0.58308669549E+03  0.58308669549E+03  0.00000000000E+00 0.  1.
         -6    2    1    2    0  503 -0.97755633205E+02  0.80829115248E+02 -0.37128204908E+03  0.42798618353E+03  0.17097457011E+03 0.  0.
        -24    2    3    3    0    0 -0.59398667763E+02  0.11915926486E+03 -0.23826796547E+03  0.28426668726E+03  0.79427916913E+02 0.  0.
          6    2    1    2  501    0  0.97755633205E+02 -0.80829115248E+02 -0.12198158439E+03  0.24492357398E+03  0.17034829165E+03 0.  0.
         24    2    5    5    0    0  0.11671964442E+03 -0.59442470785E+02 -0.14238313445E+03  0.20949285951E+03  0.80358064225E+02 0.  0.
          5    1    5    5  501    0 -0.18964011216E+02 -0.21386644463E+02  0.20401550059E+02  0.35430714466E+02  0.47000000000E+01 0. -1.
        -11    1    6    6    0    0  0.12041378660E+03 -0.71969089670E+02 -0.12617129775E+03  0.18867492215E+03  0.00000000000E+00 0.  1.
         12    1    6    6    0    0 -0.36941421803E+01  0.12526618885E+02 -0.16211836696E+02  0.20817937367E+02  0.00000000000E+00 0. -1.
         -5    1    3    3    0  503 -0.38356965442E+02 -0.38330149611E+02 -0.13301408361E+03  0.14371949627E+03  0.47000000000E+01 0.  1.
         13    1    4    4    0    0 -0.14186701712E+02 -0.10252485345E+02 -0.34395918239E+02  0.38593459974E+02  0.00000000000E+00 0. -1.
        -14    1    4    4    0    0 -0.45211966050E+02  0.12941175020E+03 -0.20387204723E+03  0.24567322729E+03  0.00000000000E+00 0.  1.
</event>
<event>
12    1  0.1627564E-001  0.2853729E+03  0.7818608E-02  0.1092923E+00
         21   -1    0    0  503  502  0.00000000000E+00  0.00000000000E+00  0.20911143888E+03  0.20911143888E+03  0.00000000000E+00 0.  1.
         21   -1    0    0  501  503 -0.00000000000E+00 -0.00000000000E+00 -0.38810848169E+03  0.38810848169E+03  0.00000000000E+00 0.  1.
          6    2    1    2  501    0 -0.10525853897E+03  0.20153354690E+03 -0.87040486180E+02  0.29739717549E+03  0.17080369786E+03 0.  0.
         24    2    3    3    0    0  0.38186974708E+01  0.12072604961E+03 -0.15347165363E+01  0.13689477124E+03  0.64408551705E+02 0.  0.
         -6    2    1    2    0  502  0.10525853897E+03 -0.20153354690E+03 -0.91956556631E+02  0.29982274508E+03  0.17246025514E+03 0.  0.
        -24    2    5    5    0    0  0.97579912533E+02 -0.21451975710E+03 -0.11331696252E+03  0.27325283919E+03  0.79283129454E+02 0.  0.
          5    1    3    3  501    0 -0.10907723644E+03  0.80807497289E+02 -0.85505769643E+02  0.16050240425E+03  0.47000000000E+01 0. -1.
        -13    1    4    4    0    0 -0.13274410831E+02  0.94585649986E+01  0.16145172354E+02  0.22942123378E+02  0.00000000000E+00 0.  1.
         14    1    4    4    0    0  0.17093108302E+02  0.11126748462E+03 -0.17679888890E+02  0.11395264786E+03  0.00000000000E+00 0. -1.
         -5    1    5    5    0  502  0.76786264393E+01  0.12986210196E+02  0.21360405885E+02  0.26569905886E+02  0.47000000000E+01 0.  1.
         11    1    6    6    0    0  0.91470632519E+02 -0.19788235703E+03 -0.74156453842E+02  0.23026828589E+03  0.00000000000E+00 0. -1.
        -12    1    6    6    0    0  0.61092800132E+01 -0.16637400068E+02 -0.39160508674E+02  0.42984553306E+02  0.00000000000E+00 0.  1.
</event>
<event>
12    1  0.1627564E-001  0.1996499E+03  0.7818608E-02  0.1150089E+00
         21   -1    0    0  503  502  0.00000000000E+00  0.00000000000E+00  0.10478080434E+04  0.10478080434E+04  0.00000000000E+00 0.  1.
         21   -1    0    0  501  503 -0.00000000000E+00 -0.00000000000E+00 -0.40675370082E+02  0.40675370082E+02  0.00000000000E+00 0.  1.
          6    2    1    2  501    0  0.76961022064E+02  0.64679120854E+02  0.36348376615E+03  0.41458133261E+03  0.17219420869E+03 0.  0.
         24    2    3    3    0    0  0.16302889098E+02  0.34861845930E+02  0.32453251689E+03  0.33642911705E+03  0.79887819993E+02 0.  0.
         -6    2    1    2    0  502 -0.76961022064E+02 -0.64679120854E+02  0.64364890715E+03  0.67390208085E+03  0.17249264132E+03 0.  0.
        -24    2    5    5    0    0  0.46233461943E+01  0.14041808511E+02  0.34854409300E+03  0.35773450630E+03  0.79198765868E+02 0.  0.
          5    1    3    3  501    0  0.60658132966E+02  0.29817274924E+02  0.38951249257E+02  0.78152215564E+02  0.47000000000E+01 0. -1.
        -11    1    4    4    0    0  0.25811352355E+02 -0.19916463066E+02  0.10361550782E+03  0.10862350055E+03  0.00000000000E+00 0.  1.
         12    1    4    4    0    0 -0.95084632568E+01  0.54778308996E+02  0.22091700908E+03  0.22780561650E+03  0.00000000000E+00 0. -1.
         -5    1    5    5    0  502 -0.81584368258E+02 -0.78720929365E+02  0.29510481415E+03  0.31616757455E+03  0.47000000000E+01 0.  1.
         11    1    6    6    0    0  0.48005177464E+01  0.44197292315E+02  0.13651204057E+03  0.14356873907E+03  0.00000000000E+00 0. -1.
        -12    1    6    6    0    0 -0.17717155202E+00 -0.30155483804E+02  0.21203205243E+03  0.21416576722E+03  0.00000000000E+00 0.  1.
</event>
<event>
12    1  0.1627564E-001  0.2359319E+03  0.7818608E-02  0.1122969E+00
         21   -1    0    0  501  502  0.00000000000E+00  0.00000000000E+00  0.21446262644E+03  0.21446262644E+03  0.00000000000E+00 0. -1.
         21   -1    0    0  502  503 -0.00000000000E+00 -0.00000000000E+00 -0.28943423359E+03  0.28943423359E+03  0.00000000000E+00 0.  1.
         -6    2    1    2    0  503 -0.13356890150E+03  0.83938224515E+02 -0.12231981073E+03  0.26575553096E+03  0.17543542731E+03 0.  0.
        -24    2    3    3    0    0 -0.33508692428E+02  0.75850122344E+02 -0.11883006979E+03  0.16519842714E+03  0.79333859822E+02 0.  0.
          6    2    1    2  501    0  0.13356890150E+03 -0.83938224515E+02  0.47348203574E+02  0.23814132907E+03  0.17199756756E+03 0.  0.
         24    2    5    5    0    0  0.52181285888E+02 -0.75641927872E+02  0.85186198991E+02  0.14788294215E+03  0.78537177380E+02 0.  0.
          5    1    5    5  501    0  0.81387615611E+02 -0.82962966431E+01 -0.37837995418E+02  0.90258386924E+02  0.47000000000E+01 0. -1.
        -13    1    6    6    0    0 -0.11578063314E+02  0.85417519733E+01  0.16571225844E+02  0.21945810599E+02  0.00000000000E+00 0.  1.
         14    1    6    6    0    0  0.63759349201E+02 -0.84183679845E+02  0.68614973147E+02  0.12593713155E+03  0.00000000000E+00 0. -1.
         -5    1    3    3    0  503 -0.10006020907E+03  0.80881021710E+01 -0.34897409336E+01  0.10055710382E+03  0.47000000000E+01 0.  1.
         13    1    4    4    0    0 -0.25974897717E+02  0.49206501955E+02 -0.14841576308E+02  0.57586869453E+02  0.00000000000E+00 0. -1.
        -14    1    4    4    0    0 -0.75337947104E+01  0.26643620389E+02 -0.10398849349E+03  0.10761155769E+03  0.00000000000E+00 0.  1.
</event>
<event>
12    1  0.1627564E-001  0.1987948E+03  0.7818608E-02  0.1152100E+00
         21   -1    0    0  501  502  0.00000000000E+00  0.00000000000E+00  0.47523735153E+03  0.47523735153E+03  0.00000000000E+00 0.  1.
         21   -1    0    0  502  503 -0.00000000000E+00 -0.00000000000E+00 -0.21888651729E+03  0.21888651729E+03  0.00000000000E+00 0.  1.
         -6    2    1    2    0  503 -0.35078625311E+02 -0.80503044445E+02 -0.14693924638E+03  0.24720538074E+03  0.17834827732E+03 0.  0.
        -24    2    3    3    0    0 -0.92829744195E+01  0.47681460009E+01 -0.56983514530E+01  0.80149486127E+02  0.79262602069E+02 0.  0.
          6    2    1    2  501    0  0.35078625311E+02  0.80503044445E+02  0.40329008063E+03  0.44691848808E+03  0.17141177245E+03 0.  0.
         24    2    5    5    0    0  0.81110287680E+02  0.89611580640E+02  0.32055833284E+03  0.35168975573E+03  0.79491668628E+02 0.  0.
          5    1    5    5  501    0 -0.46031662369E+02 -0.91085361952E+01  0.82731747789E+02  0.95228732346E+02  0.47000000000E+01 0. -1.
        -13    1    6    6    0    0  0.29068174675E+02  0.69202501018E+02  0.10544592147E+03  0.12943255881E+03  0.00000000000E+00 0.  1.
         14    1    6    6    0    0  0.52042113005E+02  0.20409079622E+02  0.21511241137E+03  0.22225719692E+03  0.00000000000E+00 0. -1.
         -5    1    3    3    0  503 -0.25795650891E+02 -0.85271190446E+02 -0.14124089493E+03  0.16705589461E+03  0.47000000000E+01 0.  1.
         13    1    4    4    0    0 -0.32605485631E+02  0.30555324711E+02 -0.76061489408E+01  0.45327685394E+02  0.00000000000E+00 0. -1.
        -14    1    4    4    0    0  0.23322511212E+02 -0.25787178710E+02  0.19077974878E+01  0.34821800733E+02  0.00000000000E+00 0.  1.
</event>
<event>
12    1  0.1627564E-001  0.2453230E+03  0.7818608E-02  0.1116430E+00
         21   -1    0    0  501  502  0.00000000000E+00  0.00000000000E+00  0.26819923476E+03  0.26819923476E+03  0.00000000000E+00 0. -1.
         21   -1    0    0  502  503 -0.00000000000E+00 -0.00000000000E+00 -0.22655949450E+03  0.22655949450E+03  0.00000000000E+00 0.  1.
         -6    2    1    2    0  503  0.82212362630E+02  0.15320232610E+03  0.48832142220E+02  0.24933032439E+03  0.17190464582E+03 0.  0.
        -24    2    3    3    0    0  0.10826796818E+03  0.92253762076E+02 -0.50484390686E+01  0.16378016906E+03  0.81029300192E+02 0.  0.
          6    2    1    2  501    0 -0.82212362630E+02 -0.15320232610E+03 -0.71924019552E+01  0.24542840487E+03  0.17307092760E+03 0.  0.
         24    2    5    5    0    0 -0.45578199962E+02 -0.14918099657E+03  0.44408395618E+02  0.18184408860E+03  0.82236396484E+02 0.  0.
          5    1    5    5  501    0 -0.36634162668E+02 -0.40213295289E+01 -0.51600797573E+02  0.63584316272E+02  0.47000000000E+01 0. -1.
        -13    1    6    6    0    0  0.10895951295E+02 -0.21377288047E+01 -0.10253576057E+02  0.15113816892E+02  0.00000000000E+00 0.  1.
         14    1    6    6    0    0 -0.56474151258E+02 -0.14704326776E+03  0.54661971675E+02  0.16673027170E+03  0.00000000000E+00 0. -1.
         -5    1    3    3    0  503 -0.26055605549E+02  0.60948564023E+02  0.53880581288E+02  0.85550155330E+02  0.47000000000E+01 0.  1.
         11    1    4    4    0    0 -0.13296954515E+02  0.66783853267E+01  0.16086762026E+01  0.14966551676E+02  0.00000000000E+00 0. -1.
        -12    1    4    4    0    0  0.12156492269E+03  0.85575376749E+02 -0.66571152712E+01  0.14881361738E+03  0.00000000000E+00 0.  1.
</event>
<event>
12    1  0.1627564E-001  0.2531788E+03  0.7818608E-02  0.1111539E+00
         21   -1    0    0  501  502  0.00000000000E+00  0.00000000000E+00  0.18930596036E+03  0.18930596036E+03  0.00000000000E+00 0. -1.
         21   -1    0    0  502  503 -0.00000000000E+00 -0.00000000000E+00 -0.33716854820E+03  0.33716854820E+03  0.00000000000E+00 0.  1.
         -6    2    1    2    0  503 -0.83314984478E+02  0.16548994629E+03 -0.83937681833E+02  0.26535020448E+03  0.17040213504E+03 0.  0.
        -24    2    3    3    0    0 -0.61484497546E+02  0.14988658415E+03 -0.27069572776E+01  0.17967316157E+03  0.77645256301E+02 0.  0.
          6    2    1    2  501    0  0.83314984478E+02 -0.16548994629E+03 -0.63924906001E+02  0.26112430408E+03  0.17254332678E+03 0.  0.
         24    2    5    5    0    0  0.83331600087E+02 -0.18835578486E+03 -0.76722018251E+02  0.23450282908E+03  0.81751155949E+02 0.  0.
          5    1    5    5  501    0 -0.16615608518E-01  0.22865838570E+02  0.12797112250E+02  0.26621475007E+02  0.47000000000E+01 0. -1.
        -13    1    6    6    0    0  0.99192698402E+02 -0.15042966821E+03 -0.57669130788E+02  0.18919303671E+03  0.00000000000E+00 0.  1.
         14    1    6    6    0    0 -0.15861098315E+02 -0.37926116645E+02 -0.19052887463E+02  0.45309792365E+02  0.00000000000E+00 0. -1.
         -5    1    3    3    0  503 -0.21830486933E+02  0.15603362138E+02 -0.81230724555E+02  0.85677042908E+02  0.47000000000E+01 0.  1.
         13    1    4    4    0    0 -0.66361929703E+02  0.73234394297E+02  0.17231963642E+02  0.10032010164E+03  0.00000000000E+00 0. -1.
        -14    1    4    4    0    0  0.48774321576E+01  0.76652189850E+02 -0.19938920920E+02  0.79353059932E+02  0.00000000000E+00 0.  1.
</event>
<event>
12    1  0.1627564E-001  0.2192971E+03  0.7818608E-02  0.1134462E+00
         21   -1    0    0  503  502  0.00000000000E+00  0.00000000000E+00  0.43877176257E+03  0.43877176257E+03  0.00000000000E+00 0. -1.
         21   -1    0    0  501  503 -0.00000000000E+00 -0.00000000000E+00 -0.11052551719E+03  0.11052551719E+03  0.00000000000E+00 0. -1.
          6    2    1    2  501    0 -0.52702902503E+02  0.12567367791E+03  0.13727694849E+03  0.25872027470E+03  0.17181312728E+03 0.  0.
         24    2    3    3    0    0 -0.53356171055E+02  0.13624481217E+03  0.54038976995E+02  0.17467965633E+03  0.78633589942E+02 0.  0.
         -6    2    1    2    0  502  0.52702902503E+02 -0.12567367791E+03  0.19096929689E+03  0.29057700505E+03  0.17144752624E+03 0.  0.
        -24    2    5    5    0    0  0.25529323276E+02 -0.55177118802E+02  0.19291276040E+03  0.21485359186E+03  0.72460140947E+02 0.  0.
          5    1    3    3  501    0  0.65326855222E+00 -0.10571134257E+02  0.83237971490E+02  0.84040618376E+02  0.47000000000E+01 0. -1.
        -13    1    4    4    0    0 -0.32213194081E+02  0.20170125795E+02 -0.11507009971E+02  0.39710642478E+02  0.00000000000E+00 0.  1.
         14    1    4    4    0    0 -0.21142976974E+02  0.11607468637E+03  0.65545986966E+02  0.13496901385E+03  0.00000000000E+00 0. -1.
         -5    1    5    5    0  502  0.27173579227E+02 -0.70496559110E+02 -0.19434635025E+01  0.75723413188E+02  0.47000000000E+01 0.  1.
         11    1    6    6    0    0  0.36834409209E+02 -0.45477846675E+02  0.70894712671E+02  0.91929693379E+02  0.00000000000E+00 0. -1.
        -12    1    6    6    0    0 -0.11305085933E+02 -0.96992721265E+01  0.12201804772E+03  0.12292389848E+03  0.00000000000E+00 0.  1.
</event>
<event>
12    1  0.1627564E-001  0.1861022E+03  0.7818608E-02  0.1162145E+00
         21   -1    0    0  501  502  0.00000000000E+00  0.00000000000E+00  0.43463220307E+03  0.43463220307E+03  0.00000000000E+00 0. -1.
         21   -1    0    0  502  503 -0.00000000000E+00 -0.00000000000E+00 -0.18391297679E+03  0.18391297679E+03  0.00000000000E+00 0.  1.
         -6    2    1    2    0  503 -0.61650399905E+02  0.33056324665E+02 -0.10763577184E+03  0.21498714846E+03  0.17245440619E+03 0.  0.
        -24    2    3    3    0    0 -0.62488948408E+01 -0.36791345278E+02 -0.85468934032E+02  0.12300083177E+03  0.80197345077E+02 0.  0.
          6    2    1    2  501    0  0.61650399905E+02 -0.33056324665E+02  0.35835499812E+03  0.40355803140E+03  0.17189324482E+03 0.  0.
         24    2    5    5    0    0  0.10262552608E+03 -0.51292746958E+02  0.24272567557E+03  0.27944615325E+03  0.77533570092E+02 0.  0.
          5    1    5    5  501    0 -0.40975126175E+02  0.18236422292E+02  0.11562932255E+03  0.12411187814E+03  0.47000000000E+01 0. -1.
        -13    1    6    6    0    0  0.54175768306E+01 -0.14509681066E+02  0.91514301977E-01  0.15488362025E+02  0.00000000000E+00 0.  1.
         14    1    6    6    0    0  0.97207949249E+02 -0.36783065892E+02  0.24263416127E+03  0.26395779123E+03  0.00000000000E+00 0. -1.
         -5    1    3    3    0  503 -0.55401505064E+02  0.69847669943E+02 -0.22166837813E+02  0.91986316691E+02  0.47000000000E+01 0.  1.
         11    1    4    4    0    0 -0.21885625077E+02  0.69574232806E+01  0.29158653756E+01  0.23149267690E+02  0.00000000000E+00 0. -1.
        -12    1    4    4    0    0  0.15636730236E+02 -0.43748768559E+02 -0.88384799408E+02  0.99851564080E+02  0.00000000000E+00 0.  1.
</event>
<event>
12    1  0.1627564E-001  0.2197748E+03  0.7818608E-02  0.1134177E+00
         21   -1    0    0  501  502  0.00000000000E+00  0.00000000000E+00  0.22591911200E+03  0.22591911200E+03  0.00000000000E+00 0. -1.
         21   -1    0    0  502  503 -0.00000000000E+00 -0.00000000000E+00 -0.10160716275E+04  0.10160716275E+04  0.00000000000E+00 0. -1.
         -6    2    1    2    0  503  0.13404485628E+03  0.24855057965E+02 -0.94698157374E+03  0.97199754594E+03  0.17152064278E+03 0.  0.
        -24    2    3    3    0    0  0.74117458473E+02 -0.26728206444E+02 -0.77413080125E+03  0.78186178989E+03  0.76299189907E+02 0.  0.
          6    2    1    2  501    0 -0.13404485628E+03 -0.24855057965E+02  0.15682905827E+03  0.26999319353E+03  0.17238089696E+03 0.  0.
         24    2    5    5    0    0 -0.74904535030E+02 -0.77546143260E+02  0.12981541932E+03  0.18617341808E+03  0.78640986807E+02 0.  0.
          5    1    5    5  501    0 -0.59140321253E+02  0.52691085295E+02  0.27013638953E+02  0.83819775452E+02  0.47000000000E+01 0. -1.
        -11    1    6    6    0    0 -0.62539801581E+01 -0.44590391270E+02  0.13246039659E+02  0.46934772058E+02  0.00000000000E+00 0.  1.
         12    1    6    6    0    0 -0.68650554872E+02 -0.32955751989E+02  0.11656937966E+03  0.13923864602E+03  0.00000000000E+00 0. -1.
         -5    1    3    3    0  503  0.59927397810E+02  0.51583264409E+02 -0.17285077249E+03  0.19013575604E+03  0.47000000000E+01 0.  1.
         11    1    4    4    0    0  0.69491171394E+02 -0.32984077411E+02 -0.76829418420E+03  0.77213530274E+03  0.00000000000E+00 0. -1.
        -12    1    4    4    0    0  0.46262870789E+01  0.62558709670E+01 -0.58366170469E+01  0.97264871482E+01  0.00000000000E+00 0.  1.
</event>
<event>
12    1  0.1627564E-001  0.2587761E+03  0.7818608E-02  0.1108062E+00
         21   -1    0    0  503  502  0.00000000000E+00  0.00000000000E+00  0.78967073419E+03  0.78967073419E+03  0.00000000000E+00 0.  1.
         21   -1    0    0  501  503 -0.00000000000E+00 -0.00000000000E+00 -0.91518241295E+02  0.91518241295E+02  0.00000000000E+00 0. -1.
          6    2    1    2  501    0 -0.19314477761E+03 -0.12018162930E+01  0.22702491025E+03  0.34424612773E+03  0.17221712198E+03 0.  0.
         24    2    3    3    0    0 -0.10428159638E+03  0.57213771150E+02  0.17338170374E+03  0.22504575257E+03  0.80226607828E+02 0.  0.
         -6    2    1    2    0  502  0.19314477761E+03  0.12018162930E+01  0.47112758264E+03  0.53694284775E+03  0.17041148186E+03 0.  0.
        -24    2    5    5    0    0  0.87550045048E+02  0.42855168656E+02  0.13926410677E+03  0.18617126121E+03  0.75918846137E+02 0.  0.
          5    1    3    3  501    0 -0.88863181224E+02 -0.58415587443E+02  0.53643206513E+02  0.11920037516E+03  0.47000000000E+01 0. -1.
        -11    1    4    4    0    0 -0.34247125781E+02  0.19175635851E+01  0.11097611686E+03  0.11615610697E+03  0.00000000000E+00 0.  1.
         12    1    4    4    0    0 -0.70034470603E+02  0.55296207564E+02  0.62405586882E+02  0.10888964559E+03  0.00000000000E+00 0. -1.
         -5    1    5    5    0  502  0.10559473256E+03 -0.41653352363E+02  0.33186347587E+03  0.35077158654E+03  0.47000000000E+01 0.  1.
         13    1    6    6    0    0 -0.12325626393E+02  0.10716043935E+02  0.33099394464E+02  0.36909681352E+02  0.00000000000E+00 0. -1.
        -14    1    6    6    0    0  0.99875671441E+02  0.32139124721E+02  0.10616471230E+03  0.14926157986E+03  0.00000000000E+00 0.  1.
</event>
<event>
12    1  0.1627564E-001  0.1800211E+03  0.7818608E-02  0.1168134E+00
         21   -1    0    0  501  502  0.00000000000E+00  0.00000000000E+00  0.55712080397E+02  0.55712080397E+02  0.00000000000E+00 0. -1.
         21   -1    0    0  502  503 -0.00000000000E+00 -0.00000000000E+00 -0.23339644919E+04  0.23339644919E+04  0.00000000000E+00 0. -1.
         -6    2    1    2    0  503  0.36595494785E+02 -0.31594795730E+02 -0.21769268544E+04  0.21843576035E+04  0.17340746567E+03 0.  0.
        -24    2    3    3    0    0  0.20017194400E+02  0.50392450715E+02 -0.11473235960E+04  0.11513514523E+04  0.79489909302E+02 0.  0.
          6    2    1    2  501    0 -0.36595494785E+02  0.31594795730E+02 -0.10132555706E+03  0.20531896877E+03  0.17190564001E+03 0.  0.
         24    2    5    5    0    0  0.35408564437E+02  0.35138610083E+02 -0.19675567385E+02  0.96296246463E+02  0.79983440642E+02 0.  0.
          5    1    5    5  501    0 -0.72004059222E+02 -0.35438143527E+01 -0.81649989677E+02  0.10902272231E+03  0.47000000000E+01 0. -1.
        -13    1    6    6    0    0 -0.33298301158E+01  0.51460013674E+02 -0.16487350627E+02  0.54139204895E+02  0.00000000000E+00 0.  1.
         14    1    6    6    0    0  0.38738394553E+02 -0.16321403591E+02 -0.31882167580E+01  0.42157041569E+02  0.00000000000E+00 0. -1.
         -5    1    3    3    0  503  0.16578300385E+02 -0.81987246445E+02 -0.10296032584E+04  0.10330061512E+04  0.47000000000E+01 0.  1.
         11    1    4    4    0    0  0.36043879099E+02  0.30514950100E+02 -0.10384680279E+04  0.10395413260E+04  0.00000000000E+00 0. -1.
        -12    1    4    4    0    0 -0.16026684699E+02  0.19877500615E+02 -0.10885556811E+03  0.11181012638E+03  0.00000000000E+00 0.  1.
</event>
<event>
12    1  0.1627564E-001  0.2072804E+03  0.7818608E-02  0.1143739E+00
         21   -1    0    0  501  502  0.00000000000E+00  0.00000000000E+00  0.23794609220E+03  0.23794609220E+03  0.00000000000E+00 0. -1.
         21   -1    0    0  502  503 -0.00000000000E+00 -0.00000000000E+00 -0.19015251186E+03  0.19015251186E+03  0.00000000000E+00 0. -1.
         -6    2    1    2    0  503  0.10344032782E+03 -0.53632803680E+02  0.71966733654E+02  0.21941344151E+03  0.17142540218E+03 0.  0.
        -24    2    3    3    0    0  0.13221195407E+03 -0.97965077511E+01  0.44049794246E+02  0.15982424095E+03  0.77636533027E+02 0.  0.
          6    2    1    2  501    0 -0.10344032782E+03  0.53632803680E+02 -0.24173153313E+02  0.20868516254E+03  0.17143155099E+03 0.  0.
         24    2    5    5    0    0 -0.23464769402E+02  0.83621751305E+02  0.70745553025E+01  0.11761411216E+03  0.78992641127E+02 0.  0.
          5    1    5    5  501    0 -0.79975558420E+02 -0.29988947624E+02 -0.31247708616E+02  0.91071050384E+02  0.47000000000E+01 0. -1.
        -11    1    6    6    0    0  0.22745013429E+02  0.74767903454E+01 -0.11605278248E+02  0.26606775697E+02  0.00000000000E+00 0.  1.
         12    1    6    6    0    0 -0.46209782831E+02  0.76144960959E+02  0.18679833550E+02  0.91007336464E+02  0.00000000000E+00 0. -1.
         -5    1    3    3    0  503 -0.28771626244E+02 -0.43836295929E+02  0.27916939408E+02  0.59589200560E+02  0.47000000000E+01 0.  1.
         13    1    4    4    0    0  0.14041216303E+02  0.24335467092E+02  0.20016980626E+02  0.34497104621E+02  0.00000000000E+00 0. -1.
        -14    1    4    4    0    0  0.11817073776E+03 -0.34131974843E+02  0.24032813620E+02  0.12532713633E+03  0.00000000000E+00 0.  1.
</event>
<event>
12    1  0.1627564E-001  0.1971326E+03  0.7818608E-02  0.1152213E+00
         21   -1    0    0  501  502  0.00000000000E+00  0.00000000000E+00  0.72831462525E+02  0.72831462525E+02  0.00000000000E+00 0.  1.
         21   -1    0    0  502  503 -0.00000000000E+00 -0.00000000000E+00 -0.10909188465E+04  0.10909188465E+04  0.00000000000E+00 0.  1.
         -6    2    1    2    0  503 -0.10628513181E+02 -0.96324135872E+02 -0.92500560224E+03  0.94574689130E+03  0.17149493809E+03 0.  0.
        -24    2    3    3    0    0 -0.41730527107E+02 -0.74764380839E+00 -0.32203533928E+03  0.33443892545E+03  0.80003995185E+02 0.  0.
          6    2    1    2  501    0  0.10628513181E+02  0.96324135872E+02 -0.93081781783E+02  0.21800341777E+03  0.17166819046E+03 0.  0.
         24    2    5    5    0    0  0.54864093274E+02  0.52520411462E+02 -0.10805696501E+03  0.15380140120E+03  0.78804193890E+02 0.  0.
          5    1    5    5  501    0 -0.44235580093E+02  0.43803724409E+02  0.14975183224E+02  0.64202016564E+02  0.47000000000E+01 0. -1.
        -11    1    6    6    0    0  0.16869838342E+02  0.65354546201E+02 -0.80941855076E+02  0.10539161284E+03  0.00000000000E+00 0.  1.
         12    1    6    6    0    0  0.37994254933E+02 -0.12834134739E+02 -0.27115109931E+02  0.48409788359E+02  0.00000000000E+00 0. -1.
         -5    1    3    3    0  503  0.31102013926E+02 -0.95576492063E+02 -0.60297026296E+03  0.61130796585E+03  0.47000000000E+01 0.  1.
         11    1    4    4    0    0  0.15594942978E+01  0.24335281842E+02 -0.32599910840E+02  0.40711081434E+02  0.00000000000E+00 0. -1.
        -12    1    4    4    0    0 -0.43290021404E+02 -0.25082925650E+02 -0.28943542844E+03  0.29372784402E+03  0.00000000000E+00 0.  1.
</event>
<event>
12    1  0.1627564E-001  0.2987199E+03  0.7818608E-02  0.1085905E+00
         21   -1    0    0  501  502  0.00000000000E+00  0.00000000000E+00  0.97353352477E+03  0.97353352477E+03  0.00000000000E+00 0.  1.
         21   -1    0    0  502  503 -0.00000000000E+00 -0.00000000000E+00 -0.14974520506E+03  0.14974520506E+03  0.00000000000E+00 0.  1.
         -6    2    1    2    0  503 -0.22474438208E+03  0.95179648925E+02  0.61854266661E+02  0.30487963024E+03  0.17191985279E+03 0.  0.
        -24    2    3    3    0    0 -0.74299848995E+02  0.49574745632E+02  0.84407883809E+02  0.14599564619E+03  0.78815702068E+02 0.  0.
          6    2    1    2  501    0  0.22474438208E+03 -0.95179648925E+02  0.76193405305E+03  0.81839909959E+03  0.17223351060E+03 0.  0.
         24    2    5    5    0    0  0.10000678103E+03 -0.11307166505E+03  0.39220299738E+03  0.42775509684E+03  0.79778907191E+02 0.  0.
          5    1    5    5  501    0  0.12473760105E+03  0.17892016130E+02  0.36973105567E+03  0.39064400275E+03  0.47000000000E+01 0. -1.
        -11    1    6    6    0    0  0.12980615128E+02 -0.47251284864E+02  0.20769919464E+03  0.21340134897E+03  0.00000000000E+00 0.  1.
         12    1    6    6    0    0  0.87026165905E+02 -0.65820380191E+02  0.18450380274E+03  0.21435374787E+03  0.00000000000E+00 0. -1.
         -5    1    3    3    0  503 -0.15044453308E+03  0.45604903293E+02 -0.22553617149E+02  0.15888398404E+03  0.47000000000E+01 0.  1.
         11    1    4    4    0    0  0.10322061298E+02  0.22423240352E+02  0.39103477472E+02  0.46243146602E+02  0.00000000000E+00 0. -1.
        -12    1    4    4    0    0 -0.84621910293E+02  0.27151505280E+02  0.45304406338E+02  0.99752499589E+02  0.00000000000E+00 0.  1.
</event>
<event>
12    1  0.1627564E-001  0.2036908E+03  0.7818608E-02  0.1146760E+00
         21   -1    0    0  503  502  0.00000000000E+00  0.00000000000E+00  0.22242319623E+04  0.22242319623E+04  0.00000000000E+00 0. -1.
         21   -1    0    0  501  503 -0.00000000000E+00 -0.00000000000E+00 -0.48218744611E+02  0.48218744611E+02  0.00000000000E+00 0. -1.
          6    2    1    2  501    0 -0.85294057533E+02  0.66954961733E+02  0.19715395711E+03  0.28313576603E+03  0.17186662285E+03 0.  0.
         24    2    3    3    0    0 -0.94498844233E+02  0.10201980367E+03  0.13113125409E+03  0.20766816668E+03  0.81194764309E+02 0.  0.
         -6    2    1    2    0  502  0.85294057533E+02 -0.66954961733E+02  0.19788592606E+04  0.19893149409E+04  0.17242945712E+03 0.  0.
        -24    2    5    5    0    0  0.13377007470E+02 -0.95986404359E+02  0.11133793684E+04  0.11203544006E+04  0.78664038012E+02 0.  0.
          5    1    3    3  501    0  0.92047866997E+01 -0.35064841933E+02  0.66022703019E+02  0.75467599351E+02  0.47000000000E+01 0. -1.
        -11    1    4    4    0    0 -0.20878199736E+02 -0.67890126752E+01  0.46420566411E+02  0.51350354460E+02  0.00000000000E+00 0.  1.
         12    1    4    4    0    0 -0.73620644498E+02  0.10880881634E+03  0.84710687681E+02  0.15631781222E+03  0.00000000000E+00 0. -1.
         -5    1    5    5    0  502  0.71917050064E+02  0.29031442626E+02  0.86547989224E+03  0.86896054032E+03  0.47000000000E+01 0.  1.
         11    1    6    6    0    0  0.17192245043E+02 -0.85500822370E+02  0.10974272524E+04  0.11008871596E+04  0.00000000000E+00 0. -1.
        -12    1    6    6    0    0 -0.38152375731E+01 -0.10485581989E+02  0.15952115997E+02  0.19467241001E+02  0.00000000000E+00 0.  1.
</event>
<event>
12    1  0.1627564E-001  0.1747316E+03  0.7818608E-02  0.1173092E+00
         21   -1    0    0  501  502  0.00000000000E+00  0.00000000000E+00  0.32633824344E+03  0.32633824344E+03  0.00000000000E+00 0.  1.
         21   -1    0    0  502  503 -0.00000000000E+00 -0.00000000000E+00 -0.15026799536E+03  0.15026799536E+03  0.00000000000E+00 0.  1.
         -6    2    1    2    0  503  0.72213743440E+01 -0.26505781708E+02 -0.58666710508E+02  0.18397578559E+03  0.17219350176E+03 0.  0.
        -24    2    3    3    0    0  0.30686722359E+02  0.15648459678E+02 -0.90393349632E+02  0.12604244239E+03  0.80803405906E+02 0.  0.
          6    2    1    2  501    0 -0.72213743440E+01  0.26505781708E+02  0.23473695859E+03  0.29263045322E+03  0.17255850519E+03 0.  0.
         24    2    5    5    0    0  0.35282816807E+02  0.34802048599E+02  0.23066096310E+03  0.24887958981E+03  0.79249672428E+02 0.  0.
          5    1    5    5  501    0 -0.42504191151E+02 -0.82962668913E+01  0.40759954926E+01  0.43750863408E+02  0.47000000000E+01 0. -1.
        -13    1    6    6    0    0 -0.16556073943E+02  0.10670470684E+02  0.14212948344E+03  0.14348781339E+03  0.00000000000E+00 0.  1.
         14    1    6    6    0    0  0.51838890750E+02  0.24131577915E+02  0.88531479653E+02  0.10539177642E+03  0.00000000000E+00 0. -1.
         -5    1    3    3    0  503 -0.23465348015E+02 -0.42154241386E+02  0.31726639124E+02  0.57933343201E+02  0.47000000000E+01 0.  1.
         13    1    4    4    0    0  0.25352450311E+02 -0.66622067279E+01  0.60551622849E+01  0.26903470512E+02  0.00000000000E+00 0. -1.
        -14    1    4    4    0    0  0.53342720480E+01  0.22310666406E+02 -0.96448511917E+02  0.99138971877E+02  0.00000000000E+00 0.  1.
</event>
<event>
12    1  0.1627564E-001  0.1739497E+03  0.7818608E-02  0.1173940E+00
         21   -1    0    0  501  502  0.00000000000E+00  0.00000000000E+00  0.54205023128E+02  0.54205023128E+02  0.00000000000E+00 0.  1.
         21   -1    0    0  502  503 -0.00000000000E+00 -0.00000000000E+00 -0.63044175513E+03  0.63044175513E+03  0.00000000000E+00 0.  1.
         -6    2    1    2    0  503  0.24427533436E+02  0.90500667195E+01 -0.40505446128E+03  0.44059377441E+03  0.17139180070E+03 0.  0.
        -24    2    3    3    0    0 -0.83972153631E+01  0.64596604668E+02 -0.22810444185E+03  0.25218920602E+03  0.85583436968E+02 0.  0.
          6    2    1    2  501    0 -0.24427533436E+02 -0.90500667195E+01 -0.17118227073E+03  0.24405300386E+03  0.17198805418E+03 0.  0.
         24    2    5    5    0    0 -0.44829086952E+02 -0.47287079427E+02 -0.49353607307E+02  0.11465978240E+03  0.80407538382E+02 0.  0.
          5    1    5    5  501    0  0.20401553516E+02  0.38237012708E+02 -0.12182866342E+03  0.12939322145E+03  0.47000000000E+01 0. -1.
        -13    1    6    6    0    0  0.69605289156E+01 -0.12009158249E+02  0.17956519995E+02  0.22695934768E+02  0.00000000000E+00 0.  1.
         14    1    6    6    0    0 -0.51789615868E+02 -0.35277921178E+02 -0.67310127302E+02  0.91963847635E+02  0.00000000000E+00 0. -1.
         -5    1    3    3    0  503  0.32824748799E+02 -0.55546537948E+02 -0.17695001943E+03  0.18840456838E+03  0.47000000000E+01 0.  1.
         11    1    4    4    0    0  0.36294059329E+02  0.14716745114E+02 -0.65246618256E+02  0.76098373985E+02  0.00000000000E+00 0. -1.
        -12    1    4    4    0    0 -0.44691274692E+02  0.49879859553E+02 -0.16285782359E+03  0.17609083204E+03  0.00000000000E+00 0.  1.
</event>
<event>
12    1  0.1627564E-001  0.2418747E+03  0.7818608E-02  0.1119721E+00
         21   -1    0    0  501  502  0.00000000000E+00  0.00000000000E+00  0.31517557106E+03  0.31517557106E+03  0.00000000000E+00 0. -1.
         21   -1    0    0  502  503 -0.00000000000E+00 -0.00000000000E+00 -0.20232749249E+03  0.20232749249E+03  0.00000000000E+00 0.  1.
         -6    2    1    2    0  503 -0.74680992543E+02 -0.13855906989E+03 -0.28216803987E+02  0.24351502929E+03  0.18365052400E+03 0.  0.
        -24    2    3    3    0    0 -0.11530573533E+03 -0.82709676520E+02  0.13045424756E+02  0.16292851685E+03  0.78988703661E+02 0.  0.
          6    2    1    2  501    0  0.74680992543E+02  0.13855906989E+03  0.14106488256E+03  0.27398803427E+03  0.17433954037E+03 0.  0.
         24    2    5    5    0    0  0.77406191902E+02  0.69691814674E+02  0.18248932644E+02  0.13307681007E+03  0.80794469228E+02 0.  0.
          5    1    5    5  501    0 -0.27251993593E+01  0.68867255220E+02  0.12281594991E+03  0.14091122420E+03  0.47000000000E+01 0. -1.
        -11    1    6    6    0    0  0.51733399438E+01 -0.16443343748E+02 -0.56700638812E+01  0.18146532016E+02  0.00000000000E+00 0.  1.
         12    1    6    6    0    0  0.72232851958E+02  0.86135158421E+02  0.23918996525E+02  0.11493027805E+03  0.00000000000E+00 0. -1.
         -5    1    3    3    0  503  0.40624742784E+02 -0.55849393374E+02 -0.41262228743E+02  0.80586512441E+02  0.47000000000E+01 0.  1.
         13    1    4    4    0    0 -0.90964787264E+02 -0.92094579061E+02 -0.75884226915E+01  0.12966722089E+03  0.00000000000E+00 0. -1.
        -14    1    4    4    0    0 -0.24340948063E+02  0.93849025415E+01  0.20633847448E+02  0.33261295958E+02  0.00000000000E+00 0.  1.
</event>
<event>
12    1  0.1627564E-001  0.2238082E+03  0.7818608E-02  0.1131205E+00
         21   -1    0    0  503  502  0.00000000000E+00  0.00000000000E+00  0.45236950998E+03  0.45236950998E+03  0.00000000000E+00 0.  1.
         21   -1    0    0  501  503 -0.00000000000E+00 -0.00000000000E+00 -0.15226516577E+03  0.15226516577E+03  0.00000000000E+00 0.  1.
          6    2    1    2  501    0  0.11936771052E+03 -0.77558533010E+02 -0.86840665372E+01  0.22326820483E+03  0.17178271717E+03 0.  0.
         24    2    3    3    0    0  0.53415836745E+02 -0.24114554767E+02 -0.67868108766E+02  0.11967887468E+03  0.79260264265E+02 0.  0.
         -6    2    1    2    0  502 -0.11936771052E+03  0.77558533010E+02  0.30878841075E+03  0.38136647092E+03  0.17270242086E+03 0.  0.
        -24    2    5    5    0    0 -0.10459289579E+03 -0.10783741407E+02  0.20781201657E+03  0.24630731803E+03  0.80159202543E+02 0.  0.
          5    1    3    3  501    0  0.65951873780E+02 -0.53443978242E+02  0.59184042229E+02  0.10358933015E+03  0.47000000000E+01 0. -1.
        -11    1    4    4    0    0  0.54251231427E+02  0.17063205547E+02 -0.45348122653E+02  0.72737894684E+02  0.00000000000E+00 0.  1.
         12    1    4    4    0    0 -0.83539468280E+00 -0.41177760315E+02 -0.22519986113E+02  0.46940980000E+02  0.00000000000E+00 0. -1.
         -5    1    5    5    0  502 -0.14774814732E+02  0.88342274416E+02  0.10097639418E+03  0.13505915289E+03  0.47000000000E+01 0.  1.
         11    1    6    6    0    0 -0.79399674523E+02  0.26466003023E+02  0.10640380805E+03  0.13537550738E+03  0.00000000000E+00 0. -1.
        -12    1    6    6    0    0 -0.25193221270E+02 -0.37249744430E+02  0.10140820852E+03  0.11093181064E+03  0.00000000000E+00 0.  1.
</event>
<event>
12    1  0.1627564E-001  0.2963265E+03  0.7818608E-02  0.1087128E+00
         21   -1    0    0  501  502  0.00000000000E+00  0.00000000000E+00  0.23932729593E+03  0.23932729593E+03  0.00000000000E+00 0.  1.
         21   -1    0    0  502  503 -0.00000000000E+00 -0.00000000000E+00 -0.36664276391E+03  0.36664276391E+03  0.00000000000E+00 0. -1.
         -6    2    1    2    0  503  0.88686592207E+02 -0.22429166366E+03 -0.68744864069E+02  0.30419607970E+03  0.17215497827E+03 0.  0.
        -24    2    3    3    0    0  0.11168675664E+03 -0.12071761679E+03 -0.76805937377E+02  0.19768945243E+03  0.78328111007E+02 0.  0.
          6    2    1    2  501    0 -0.88686592207E+02  0.22429166366E+03 -0.58570603905E+02  0.30177398014E+03  0.17165359717E+03 0.  0.
         24    2    5    5    0    0 -0.20020480466E+02  0.20409972852E+03 -0.64483323137E+02  0.22980315692E+03  0.81202667109E+02 0.  0.
          5    1    5    5  501    0 -0.68666111741E+02  0.20191935142E+02  0.59127192313E+01  0.71970823221E+02  0.47000000000E+01 0. -1.
        -13    1    6    6    0    0 -0.42819616391E+02  0.73049576528E+02 -0.72175028329E+01  0.84981483430E+02  0.00000000000E+00 0.  1.
         14    1    6    6    0    0  0.22799135925E+02  0.13105015199E+03 -0.57265820304E+02  0.14482167349E+03  0.00000000000E+00 0. -1.
         -5    1    3    3    0  503 -0.23000164433E+02 -0.10357404687E+03  0.80610733081E+01  0.10650662727E+03  0.47000000000E+01 0.  1.
         13    1    4    4    0    0 -0.24001960279E+01 -0.44005883136E+02 -0.25708110590E+02  0.51021423360E+02  0.00000000000E+00 0. -1.
        -14    1    4    4    0    0  0.11408695267E+03 -0.76711733653E+02 -0.51097826787E+02  0.14666802907E+03  0.00000000000E+00 0.  1.
</event>
<event>
12    1  0.1627564E-001  0.1953313E+03  0.7818608E-02  0.1154967E+00
         21   -1    0    0  503  502  0.00000000000E+00  0.00000000000E+00  0.21426106269E+03  0.21426106269E+03  0.00000000000E+00 0.  1.
         21   -1    0    0  501  503 -0.00000000000E+00 -0.00000000000E+00 -0.24848289429E+03  0.24848289429E+03  0.00000000000E+00 0.  1.
          6    2    1    2  501    0 -0.80209360766E+02  0.32426640685E+01 -0.14441570234E+03  0.23847399631E+03  0.17195899340E+03 0.  0.
         24    2    3    3    0    0 -0.44264346679E+02  0.65872589807E+02 -0.10936136569E+03  0.15806598581E+03  0.82014737022E+02 0.  0.
         -6    2    1    2    0  502  0.80209360766E+02 -0.32426640685E+01  0.11019387073E+03  0.22426996066E+03  0.17807377596E+03 0.  0.
        -24    2    5    5    0    0  0.57428794002E+02  0.66678751501E+02  0.85159301867E+02  0.14644465491E+03  0.80310696516E+02 0.  0.
          5    1    3    3  501    0 -0.35945014087E+02 -0.62629925738E+02 -0.35054336645E+02  0.80408010505E+02  0.47000000000E+01 0. -1.
        -13    1    4    4    0    0 -0.44486371553E+02  0.36134328950E+02 -0.11435248319E+03  0.12791097449E+03  0.00000000000E+00 0.  1.
         14    1    4    4    0    0  0.22202487402E+00  0.29738260857E+02  0.49911174983E+01  0.30155011321E+02  0.00000000000E+00 0. -1.
         -5    1    5    5    0  502  0.22780566764E+02 -0.69921415570E+02  0.25034568865E+02  0.77825305753E+02  0.47000000000E+01 0.  1.
         13    1    6    6    0    0  0.12668969913E+02  0.57274441549E+02  0.11553046548E+02  0.59785762001E+02  0.00000000000E+00 0. -1.
        -14    1    6    6    0    0  0.44759824089E+02  0.94043099517E+01  0.73606255319E+02  0.86658892909E+02  0.00000000000E+00 0.  1.
</event>
<event>
12    1  0.1627564E-001  0.1875192E+03  0.7818608E-02  0.1161116E+00
         21   -1    0    0  501  502  0.00000000000E+00  0.00000000000E+00  0.10702741977E+04  0.10702741977E+04  0.00000000000E+00 0.  1.
         21   -1    0    0  502  503 -0.00000000000E+00 -0.00000000000E+00 -0.33815498601E+02  0.33815498601E+02  0.00000000000E+00 0.  1.
         -6    2    1    2    0  503 -0.70945447056E+02  0.31286668015E+02  0.40925914041E+03  0.44945793822E+03  0.16884099671E+03 0.  0.
        -24    2    3    3    0    0 -0.36942374054E+02 -0.96056281368E+01  0.92674121828E+02  0.12840256473E+03  0.80260318215E+02 0.  0.
          6    2    1    2  501    0  0.70945447056E+02 -0.31286668015E+02  0.62719955865E+03  0.65463175804E+03  0.17073763560E+03 0.  0.
         24    2    5    5    0    0  0.55070245401E+01 -0.38111372996E+02  0.16196357522E+03  0.18474307546E+03  0.80093696138E+02 0.  0.
          5    1    5    5  501    0  0.65438422516E+02  0.68247049814E+01  0.46523598343E+03  0.46988868258E+03  0.47000000000E+01 0. -1.
        -13    1    6    6    0    0  0.21898282230E+02 -0.26814347521E+02  0.17273622959E+02  0.38690076864E+02  0.00000000000E+00 0.  1.
         14    1    6    6    0    0 -0.16391257690E+02 -0.11297025475E+02  0.14468995226E+03  0.14605299860E+03  0.00000000000E+00 0. -1.
         -5    1    3    3    0  503 -0.34003073002E+02  0.40892296152E+02  0.31658501858E+03  0.32105537349E+03  0.47000000000E+01 0.  1.
         11    1    4    4    0    0 -0.43720669987E+02  0.93302275126E+01  0.97898348614E+02  0.10762265928E+03  0.00000000000E+00 0. -1.
        -12    1    4    4    0    0  0.67782959328E+01 -0.18935855649E+02 -0.52242267856E+01  0.20779905448E+02  0.00000000000E+00 0.  1.
</event>
<event>
12    1  0.1627564E-001  0.1959479E+03  0.7818608E-02  0.1153389E+00
         21   -1    0    0  501  502  0.00000000000E+00  0.00000000000E+00  0.82004257480E+03  0.82004257480E+03  0.00000000000E+00 0.  1.
         21   -1    0    0  502  503 -0.00000000000E+00 -0.00000000000E+00 -0.48463824360E+02  0.48463824360E+02  0.00000000000E+00 0.  1.
         -6    2    1    2    0  503  0.85415882929E+02  0.37538941037E+02  0.46974184551E+03  0.50864379554E+03  0.17133611461E+03 0.  0.
        -24    2    3    3    0    0  0.12614307871E+03  0.15770534478E+02  0.35863519935E+03  0.38823057027E+03  0.77090747911E+02 0.  0.
          6    2    1    2  501    0 -0.85415882929E+02 -0.37538941037E+02  0.30183690493E+03  0.35986260362E+03  0.17230940530E+03 0.  0.
         24    2    5    5    0    0 -0.94947808014E+02 -0.73683609490E+02  0.17217851940E+03  0.22484156232E+03  0.80398538869E+02 0.  0.
          5    1    5    5  501    0  0.95319250855E+01  0.36144668453E+02  0.12965838553E+03  0.13502104130E+03  0.47000000000E+01 0. -1.
        -11    1    6    6    0    0 -0.11833354737E+02 -0.52771130195E+02  0.95947826880E+02  0.11013993803E+03  0.00000000000E+00 0.  1.
         12    1    6    6    0    0 -0.83114453278E+02 -0.20912479295E+02  0.76230692517E+02  0.11470162429E+03  0.00000000000E+00 0. -1.
         -5    1    3    3    0  503 -0.40727195777E+02  0.21768406559E+02  0.11110664616E+03  0.12041322528E+03  0.47000000000E+01 0.  1.
         11    1    4    4    0    0  0.67346619398E+02 -0.13000348572E+02  0.98784874822E+02  0.12026232869E+03  0.00000000000E+00 0. -1.
        -12    1    4    4    0    0  0.58796459308E+02  0.28770883050E+02  0.25985032453E+03  0.26796824158E+03  0.00000000000E+00 0.  1.
</event>
<event>
12    1  0.1627564E-001  0.2268999E+03  0.7818608E-02  0.1128858E+00
         21   -1    0    0  503  502  0.00000000000E+00  0.00000000000E+00  0.19431374942E+03  0.19431374942E+03  0.00000000000E+00 0. -1.
         21   -1    0    0  501  503 -0.00000000000E+00 -0.00000000000E+00 -0.61583085302E+03  0.61583085302E+03  0.00000000000E+00 0. -1.
          6    2    1    2  501    0 -0.11548864447E+03 -0.91977495043E+02 -0.51658802615E+03  0.56422224835E+03  0.17229646011E+03 0.  0.
         24    2    3    3    0    0 -0.92116759697E+02  0.96095198620E+01 -0.28915987641E+03  0.31399870851E+03  0.80024462059E+02 0.  0.
         -6    2    1    2    0  502  0.11548864447E+03  0.91977495043E+02  0.95070922547E+02  0.24592235409E+03  0.17216804969E+03 0.  0.
        -24    2    5    5    0    0  0.78957793177E+02  0.66234025781E+02 -0.13921878320E+02  0.12802939440E+03  0.74675483654E+02 0.  0.
          5    1    3    3  501    0 -0.23371884772E+02 -0.10158701491E+03 -0.22742814974E+03  0.25022353984E+03  0.47000000000E+01 0. -1.
        -13    1    4    4    0    0 -0.74384394693E+02  0.81434950965E+01 -0.10474732496E+03  0.12872978199E+03  0.00000000000E+00 0.  1.
         14    1    4    4    0    0 -0.17732365004E+02  0.14660247655E+01 -0.18441255146E+03  0.18526892652E+03  0.00000000000E+00 0. -1.
         -5    1    5    5    0  502  0.36530851292E+02  0.25743469262E+02  0.10899280087E+03  0.11789295970E+03  0.47000000000E+01 0.  1.
         13    1    6    6    0    0  0.39779380177E+02  0.45325501333E+02  0.28422826804E+02  0.66668262629E+02  0.00000000000E+00 0. -1.
        -14    1    6    6    0    0  0.39178413000E+02  0.20908524448E+02 -0.42344705124E+02  0.61361131767E+02  0.00000000000E+00 0.  1.
</event>
<event>
12    1  0.1627564E-001  0.1808350E+03  0.7818608E-02  0.1167385E+00
         21   -1    0    0  503  502  0.00000000000E+00  0.00000000000E+00  0.10086509387E+03  0.10086509387E+03  0.00000000000E+00 0. -1.
         21   -1    0    0  501  503 -0.00000000000E+00 -0.00000000000E+00 -0.43745629317E+03  0.43745629317E+03  0.00000000000E+00 0.  1.
          6    2    1    2  501    0 -0.52054132344E+02 -0.10109727481E+02 -0.30641755135E+03  0.35498630503E+03  0.17120666371E+03 0.  0.
         24    2    3    3    0    0 -0.49830638648E+02  0.47512340636E+02 -0.26073868794E+03  0.28127134576E+03  0.79927413901E+02 0.  0.
         -6    2    1    2    0  502  0.52054132344E+02  0.10109727481E+02 -0.30173647953E+02  0.18333508202E+03  0.17288569630E+03 0.  0.
        -24    2    5    5    0    0  0.94311821125E+02  0.22990974889E+02  0.56038947360E+01  0.12629333102E+03  0.80593407262E+02 0.  0.
          5    1    3    3  501    0 -0.22234936965E+01 -0.57622068118E+02 -0.45678863403E+02  0.73714959270E+02  0.47000000000E+01 0. -1.
        -11    1    4    4    0    0 -0.59058533837E+02  0.23215117888E+02 -0.23932670246E+03  0.24759669349E+03  0.00000000000E+00 0.  1.
         12    1    4    4    0    0  0.92278951893E+01  0.24297222749E+02 -0.21411985485E+02  0.33674652267E+02  0.00000000000E+00 0. -1.
         -5    1    5    5    0  502 -0.42257688781E+02 -0.12881247407E+02 -0.35777542689E+02  0.57041750996E+02  0.47000000000E+01 0.  1.
         11    1    6    6    0    0  0.55203355515E+02  0.29114033257E+02  0.39768538705E+02  0.74003878704E+02  0.00000000000E+00 0. -1.
        -12    1    6    6    0    0  0.39108465611E+02 -0.61230583683E+01 -0.34164643969E+02  0.52289452318E+02  0.00000000000E+00 0.  1.
</event>
<event>
12    1  0.1627564E-001  0.2555665E+03  0.7818608E-02  0.1109901E+00
         21   -1    0    0  503  502  0.00000000000E+00  0.00000000000E+00  0.73291683512E+03  0.73291683512E+03  0.00000000000E+00 0.  1.
         21   -1    0    0  501  503 -0.00000000000E+00 -0.00000000000E+00 -0.14422723080E+03  0.14422723080E+03  0.00000000000E+00 0.  1.
          6    2    1    2  501    0  0.18671233392E+03 -0.29896431160E+02  0.56596255423E+03  0.62098942047E+03  0.17192718026E+03 0.  0.
         24    2    3    3    0    0  0.11447093893E+03  0.37884472568E+02  0.24024148353E+03  0.28050538860E+03  0.80177761906E+02 0.  0.
         -6    2    1    2    0  502 -0.18671233392E+03  0.29896431160E+02  0.22727050087E+02  0.25615464545E+03  0.17129912827E+03 0.  0.
        -24    2    5    5    0    0 -0.68423134557E+02  0.72600470029E+02  0.20409639995E+01  0.12861651868E+03  0.81151030508E+02 0.  0.
          5    1    3    3  501    0  0.72241394994E+02 -0.67780903728E+02  0.32572107069E+03  0.34048403187E+03  0.47000000000E+01 0. -1.
        -11    1    4    4    0    0  0.10253219430E+03  0.58495423468E+02  0.21804172082E+03  0.24794506943E+03  0.00000000000E+00 0.  1.
         12    1    4    4    0    0  0.11938744629E+02 -0.20610950900E+02  0.22199762709E+02  0.32560319173E+02  0.00000000000E+00 0. -1.
         -5    1    5    5    0  502 -0.11828919936E+03 -0.42704038869E+02  0.20686086087E+02  0.12753812677E+03  0.47000000000E+01 0.  1.
         13    1    6    6    0    0 -0.84243297061E+02  0.74661881989E+02  0.29521779226E+00  0.11256738815E+03  0.00000000000E+00 0. -1.
        -14    1    6    6    0    0  0.15820162504E+02 -0.20614119599E+01  0.17457462072E+01  0.16049130529E+02  0.00000000000E+00 0.  1.
</event>
<event>
12    1  0.1627564E-001  0.1938061E+03  0.7818608E-02  0.1156371E+00
         21   -1    0    0  503  502  0.00000000000E+00  0.00000000000E+00  0.10836366419E+03  0.10836366419E+03  0.00000000000E+00 0. -1.
         21   -1    0    0  501  503 -0.00000000000E+00 -0.00000000000E+00 -0.33647826103E+03  0.33647826103E+03  0.00000000000E+00 0. -1.
          6    2    1    2  501    0  0.73518250218E+02 -0.10823440216E+02 -0.12088791210E+03  0.22841778762E+03  0.17899362680E+03 0.  0.
         24    2    3    3    0    0 -0.16820929748E+02 -0.43316053720E+02 -0.81203853479E+02  0.12442811564E+03  0.82030884154E+02 0.  0.
         -6    2    1    2    0  502 -0.73518250218E+02  0.10823440216E+02 -0.10722668474E+03  0.21642413760E+03  0.17268400460E+03 0.  0.
        -24    2    5    5    0    0 -0.79810752188E+02 -0.14596806039E+02 -0.13511620449E+03  0.17787936087E+03  0.82473361736E+02 0.  0.
          5    1    3    3  501    0  0.90339179965E+02  0.32492613504E+02 -0.39684058619E+02  0.10398967198E+03  0.47000000000E+01 0. -1.
        -13    1    4    4    0    0 -0.97922995253E+01  0.21777081090E+02 -0.58092947191E+01  0.24573935296E+02  0.00000000000E+00 0.  1.
         14    1    4    4    0    0 -0.70286302223E+01 -0.65093134810E+02 -0.75394558760E+02  0.99854180347E+02  0.00000000000E+00 0. -1.
         -5    1    5    5    0  502  0.62925019701E+01  0.25420246255E+02  0.27889519757E+02  0.38544776728E+02  0.47000000000E+01 0.  1.
         11    1    6    6    0    0 -0.38987953511E+02 -0.19547770312E+02 -0.80836263177E+01  0.44356745345E+02  0.00000000000E+00 0. -1.
        -12    1    6    6    0    0 -0.40822798676E+02  0.49509642729E+01 -0.12703257818E+03  0.13352261553E+03  0.00000000000E+00 0.  1.
</event>
<event>
12    1  0.1627564E-001  0.2012098E+03  0.7818608E-02  0.1148818E+00
         21   -1    0    0  503  502  0.00000000000E+00  0.00000000000E+00  0.16291384497E+04  0.16291384497E+04  0.00000000000E+00 0. -1.
         21   -1    0    0  501  503 -0.00000000000E+00 -0.00000000000E+00 -0.26305677461E+02  0.26305677461E+02  0.00000000000E+00 0.  1.
          6    2    1    2  501    0  0.42801600499E+02  0.93793841230E+02  0.10006618925E+04  0.10206907454E+04  0.17278921551E+03 0.  0.
         24    2    3    3    0    0  0.88548371827E+02  0.54568138179E+02  0.81941890678E+03  0.82963438529E+03  0.77636155337E+02 0.  0.
         -6    2    1    2    0  502 -0.42801600499E+02 -0.93793841230E+02  0.60217087971E+03  0.63475338173E+03  0.17225802038E+03 0.  0.
        -24    2    5    5    0    0 -0.29773412887E+02 -0.68753041213E+02  0.59536430837E+03  0.60533918870E+03  0.79771153319E+02 0.  0.
          5    1    3    3  501    0 -0.45746771328E+02  0.39225703051E+02  0.18124298575E+03  0.19105636014E+03  0.47000000000E+01 0. -1.
        -13    1    4    4    0    0  0.14955850390E+02  0.37445859385E+02  0.13057812821E+03  0.13666205550E+03  0.00000000000E+00 0.  1.
         14    1    4    4    0    0  0.73592521437E+02  0.17122278794E+02  0.68884077857E+03  0.69297232979E+03  0.00000000000E+00 0. -1.
         -5    1    5    5    0  502 -0.13028187612E+02 -0.25040800017E+02  0.68065713364E+01  0.29414193025E+02  0.47000000000E+01 0.  1.
         11    1    6    6    0    0 -0.20614797672E+02 -0.19823500321E+02  0.46366371022E+03  0.46454491411E+03  0.00000000000E+00 0. -1.
        -12    1    6    6    0    0 -0.91586152151E+01 -0.48929540891E+02  0.13170059815E+03  0.14079427459E+03  0.00000000000E+00 0.  1.
</event>
<event>
12    1  0.1627564E-001  0.2139022E+03  0.7818608E-02  0.1140858E+00
         21   -1    0    0  503  502  0.00000000000E+00  0.00000000000E+00  0.47057745695E+02  0.47057745695E+02  0.00000000000E+00 0.  1.
         21   -1    0    0  501  503 -0.00000000000E+00 -0.00000000000E+00 -0.92137306881E+03  0.92137306881E+03  0.00000000000E+00 0.  1.
          6    2    1    2  501    0  0.21650187675E+02 -0.12370281904E+03 -0.47113079884E+03  0.51741508470E+03  0.17315606311E+03 0.  0.
         24    2    3    3    0    0  0.75372512384E+02 -0.11078949106E+03 -0.30633140089E+03  0.34353646676E+03  0.78886309776E+02 0.  0.
         -6    2    1    2    0  502 -0.21650187675E+02  0.12370281904E+03 -0.40318452428E+03  0.45101572981E+03  0.15838658356E+03 0.  0.
        -24    2    5    5    0    0  0.42157554045E+02  0.48227166763E+02 -0.22712322088E+03  0.24905614339E+03  0.79629681170E+02 0.  0.
          5    1    3    3  501    0 -0.53722324709E+02 -0.12913327984E+02 -0.16479939795E+03  0.17387861794E+03  0.47000000000E+01 0. -1.
        -11    1    4    4    0    0  0.39539148674E+02 -0.22877064304E+02 -0.39744418857E+02  0.60550170762E+02  0.00000000000E+00 0.  1.
         12    1    4    4    0    0  0.35833363710E+02 -0.87912426755E+02 -0.26658698203E+03  0.28298629600E+03  0.00000000000E+00 0. -1.
         -5    1    5    5    0  502 -0.63807741720E+02  0.75475652279E+02 -0.17606130341E+03  0.20195958642E+03  0.47000000000E+01 0.  1.
         13    1    6    6    0    0  0.18646474789E+02  0.46695705861E+02 -0.21810910154E+03  0.22382975705E+03  0.00000000000E+00 0. -1.
        -14    1    6    6    0    0  0.23511079256E+02  0.15314609023E+01 -0.90141193342E+01  0.25226386337E+02  0.00000000000E+00 0.  1.
</event>
<event>
12    1  0.1627564E-001  0.2084846E+03  0.7818608E-02  0.1143009E+00
         21   -1    0    0  503  502  0.00000000000E+00  0.00000000000E+00  0.66428229594E+02  0.66428229594E+02  0.00000000000E+00 0.  1.
         21   -1    0    0  501  503 -0.00000000000E+00 -0.00000000000E+00 -0.10994399414E+04  0.10994399414E+04  0.00000000000E+00 0.  1.
          6    2    1    2  501    0 -0.85723417276E+02  0.78579833306E+02 -0.88808601327E+03  0.91196017882E+03  0.17161382904E+03 0.  0.
         24    2    3    3    0    0 -0.78123623387E+02 -0.69645906667E+01 -0.34636681929E+03  0.36345550202E+03  0.77318318615E+02 0.  0.
         -6    2    1    2    0  502  0.85723417276E+02 -0.78579833306E+02 -0.14492569853E+03  0.25390799217E+03  0.17303905895E+03 0.  0.
        -24    2    5    5    0    0  0.59088893994E+02  0.20909293264E+02 -0.83152955719E+02  0.13371878346E+03  0.83890422973E+02 0.  0.
          5    1    3    3  501    0 -0.75997938891E+01  0.85544423973E+02 -0.54171919398E+03  0.54850467680E+03  0.47000000000E+01 0. -1.
        -11    1    4    4    0    0 -0.56885688866E+02  0.19793062067E+02 -0.29928628038E+03  0.30528679062E+03  0.00000000000E+00 0.  1.
         12    1    4    4    0    0 -0.21237934521E+02 -0.26757652734E+02 -0.47080538912E+02  0.58168711407E+02  0.00000000000E+00 0. -1.
         -5    1    5    5    0  502  0.26634523283E+02 -0.99489126570E+02 -0.61772742816E+02  0.12018920871E+03  0.47000000000E+01 0.  1.
         13    1    6    6    0    0  0.41783473930E+01  0.91518170436E+01 -0.76513913322E+02  0.77172490397E+02  0.00000000000E+00 0. -1.
        -14    1    6    6    0    0  0.54910546601E+02  0.11757476221E+02 -0.66390423964E+01  0.56546293062E+02  0.00000000000E+00 0.  1.
</event>
<event>
12    1  0.1627564E-001  0.2142316E+03  0.7818608E-02  0.1138677E+00
         21   -1    0    0  501  502  0.00000000000E+00  0.00000000000E+00  0.15504248325E+03  0.15504248325E+03  0.00000000000E+00 0.  1.
         21   -1    0    0  502  503 -0.00000000000E+00 -0.00000000000E+00 -0.30782126131E+03  0.30782126131E+03  0.00000000000E+00 0. -1.
         -6    2    1    2    0  503 -0.61244845228E+02 -0.10866299667E+03 -0.12747578237E+03  0.24928951843E+03  0.17417408244E+03 0.  0.
        -24    2    3    3    0    0 -0.10473310124E+03 -0.57341336354E+02 -0.70541392506E+02  0.16103558946E+03  0.81849384041E+02 0.  0.
          6    2    1    2  501    0  0.61244845228E+02  0.10866299667E+03 -0.25302995685E+02  0.21357422613E+03  0.17150839794E+03 0.  0.
         24    2    5    5    0    0  0.80884456381E+02  0.13637508806E+03 -0.29190525450E+02  0.17906513713E+03  0.77921605684E+02 0.  0.
          5    1    5    5  501    0 -0.19639611153E+02 -0.27712091394E+02  0.38875297650E+01  0.34509088996E+02  0.47000000000E+01 0. -1.
        -11    1    6    6    0    0  0.64856601084E+02  0.76951097260E+02 -0.52184516233E+02  0.11336257675E+03  0.00000000000E+00 0.  1.
         12    1    6    6    0    0  0.16027855297E+02  0.59423990801E+02  0.22993990784E+02  0.65702560378E+02  0.00000000000E+00 0. -1.
         -5    1    3    3    0  503  0.43488256010E+02 -0.51321660313E+02 -0.56934389866E+02  0.88253928964E+02  0.47000000000E+01 0.  1.
         11    1    4    4    0    0 -0.53962137099E+02 -0.61061740367E+02 -0.10256535893E+02  0.82131875088E+02  0.00000000000E+00 0. -1.
        -12    1    4    4    0    0 -0.50770964139E+02  0.37204040133E+01 -0.60284856613E+02  0.78903714377E+02  0.00000000000E+00 0.  1.
</event>
<event>
12    1  0.1627564E-001  0.2100190E+03  0.7818608E-02  0.1141869E+00
         21   -1    0    0  503  502  0.00000000000E+00  0.00000000000E+00  0.21040607824E+03  0.21040607824E+03  0.00000000000E+00 0. -1.
         21   -1    0    0  501  503 -0.00000000000E+00 -0.00000000000E+00 -0.24000474695E+03  0.24000474695E+03  0.00000000000E+00 0.  1.
          6    2    1    2  501    0 -0.47304126011E+02  0.10708416627E+03 -0.97037891490E+02  0.23135330472E+03  0.17436542151E+03 0.  0.
         24    2    3    3    0    0 -0.12001660931E+02  0.13661516979E+03 -0.39890158915E+02  0.15782577554E+03  0.67156579459E+02 0.  0.
         -6    2    1    2    0  502  0.47304126011E+02 -0.10708416627E+03  0.67439222781E+02  0.21905752047E+03  0.17243389894E+03 0.  0.
        -24    2    5    5    0    0 -0.11071982171E+02 -0.60574390882E+02 -0.19484741369E+02  0.10438932629E+03  0.82009942553E+02 0.  0.
          5    1    3    3  501    0 -0.35302465080E+02 -0.29531003521E+02 -0.57147732575E+02  0.73527529186E+02  0.47000000000E+01 0. -1.
        -13    1    4    4    0    0  0.25639438952E+02  0.84088891189E+02 -0.19307731451E+02  0.90006171705E+02  0.00000000000E+00 0.  1.
         14    1    4    4    0    0 -0.37641099883E+02  0.52526278599E+02 -0.20582427464E+02  0.67819603834E+02  0.00000000000E+00 0. -1.
         -5    1    5    5    0  502  0.58376108182E+02 -0.46509775385E+02  0.86923964150E+02  0.11466819418E+03  0.47000000000E+01 0.  1.
         11    1    6    6    0    0 -0.28856078361E+02 -0.58950990246E+02  0.13381534964E+02  0.66984759366E+02  0.00000000000E+00 0. -1.
        -12    1    6    6    0    0  0.17784096190E+02 -0.16234006368E+01 -0.32866276333E+02  0.37404566926E+02  0.00000000000E+00 0.  1.
</event>
<event>
12    1  0.1627564E-001  0.1866238E+03  0.7818608E-02  0.1161630E+00
         21   -1    0    0  503  502  0.00000000000E+00  0.00000000000E+00  0.23218555085E+03  0.23218555085E+03  0.00000000000E+00 0.  1.
         21   -1    0    0  501  503 -0.00000000000E+00 -0.00000000000E+00 -0.46337936086E+03  0.46337936086E+03  0.00000000000E+00 0.  1.
          6    2    1    2  501    0  0.48346202991E+02 -0.51492573988E+02 -0.40177872826E+03  0.44300631350E+03  0.17274144494E+03 0.  0.
         24    2    3    3    0    0 -0.22332991659E+02 -0.55746840364E+02 -0.31788510727E+03  0.33312511866E+03  0.79466537141E+02 0.  0.
         -6    2    1    2    0  502 -0.48346202991E+02  0.51492573988E+02  0.17058491824E+03  0.25255859821E+03  0.17233046939E+03 0.  0.
        -24    2    5    5    0    0 -0.88230869091E+01 -0.36982425450E+02  0.48529214863E+02  0.96643278382E+02  0.74426419411E+02 0.  0.
          5    1    3    3  501    0  0.70679194650E+02  0.42542663767E+01 -0.83893620982E+02  0.10988119484E+03  0.47000000000E+01 0. -1.
        -11    1    4    4    0    0 -0.27282381750E+01 -0.66766530051E+02 -0.15633590041E+03  0.17001801838E+03  0.00000000000E+00 0.  1.
         12    1    4    4    0    0 -0.19604753484E+02  0.11019689686E+02 -0.16154920687E+03  0.16310710027E+03  0.00000000000E+00 0. -1.
         -5    1    5    5    0  502 -0.39523116082E+02  0.88474999438E+02  0.12205570338E+03  0.15591531983E+03  0.47000000000E+01 0.  1.
         13    1    6    6    0    0  0.15297508716E+02 -0.52639068636E+02  0.32152864348E+02  0.63550704210E+02  0.00000000000E+00 0. -1.
        -14    1    6    6    0    0 -0.24120595625E+02  0.15656643185E+02  0.16376350515E+02  0.33092574172E+02  0.00000000000E+00 0.  1.
</event>
<event>
12    1  0.1627564E-001  0.1925181E+03  0.7818608E-02  0.1156217E+00
         21   -1    0    0  503  502  0.00000000000E+00  0.00000000000E+00  0.84391033838E+02  0.84391033838E+02  0.00000000000E+00 0. -1.
         21   -1    0    0  501  503 -0.00000000000E+00 -0.00000000000E+00 -0.66373717912E+03  0.66373717912E+03  0.00000000000E+00 0. -1.
          6    2    1    2  501    0  0.44234543638E+01  0.87140266533E+02 -0.50726658778E+03  0.54255907047E+03  0.17157494245E+03 0.  0.
         24    2    3    3    0    0 -0.15162032382E+01  0.18654951446E+02 -0.94799573714E+02  0.12437651990E+03  0.78308706026E+02 0.  0.
         -6    2    1    2    0  502 -0.44234543638E+01 -0.87140266533E+02 -0.72079557501E+02  0.20556914248E+03  0.17161065448E+03 0.  0.
        -24    2    5    5    0    0 -0.94251799206E+00 -0.86670723765E+02  0.15024945863E+02  0.11826724162E+03  0.79048647958E+02 0.  0.
          5    1    3    3  501    0  0.59396576020E+01  0.68485315087E+02 -0.41246701406E+03  0.41818255058E+03  0.47000000000E+01 0. -1.
        -11    1    4    4    0    0 -0.14818189649E+02  0.33908735249E+02 -0.11644687713E+02  0.38794069426E+02  0.00000000000E+00 0.  1.
         12    1    4    4    0    0  0.13301986411E+02 -0.15253783803E+02 -0.83154886000E+02  0.85582450470E+02  0.00000000000E+00 0. -1.
         -5    1    5    5    0  502 -0.34809363717E+01 -0.46954276890E+00 -0.87104503364E+02  0.87301900865E+02  0.47000000000E+01 0.  1.
         13    1    6    6    0    0  0.12969518486E+02 -0.37720417453E+01  0.29986575860E+02  0.32888165660E+02  0.00000000000E+00 0. -1.
        -14    1    6    6    0    0 -0.13912036478E+02 -0.82898682019E+02 -0.14961629997E+02  0.85379075959E+02  0.00000000000E+00 0.  1.
</event>
<event>
12    1  0.1627564E-001  0.3294001E+03  0.7818608E-02  0.1071465E+00
         21   -1    0    0  503  502  0.00000000000E+00  0.00000000000E+00  0.29295797727E+03  0.29295797727E+03  0.00000000000E+00 0. -1.
         21   -1    0    0  501  503 -0.00000000000E+00 -0.00000000000E+00 -0.64083789307E+03  0.64083789307E+03  0.00000000000E+00 0.  1.
          6    2    1    2  501    0 -0.13644006260E+03 -0.24503391936E+03 -0.47752952789E+03  0.57979948528E+03  0.17168424739E+03 0.  0.
         24    2    3    3    0    0 -0.75549695690E+02 -0.47388540156E+02 -0.14246462554E+03  0.18602047176E+03  0.79712082682E+02 0.  0.
         -6    2    1    2    0  502  0.13644006260E+03  0.24503391936E+03  0.12964961209E+03  0.35399638506E+03  0.17276257235E+03 0.  0.
        -24    2    5    5    0    0  0.50978034646E+02  0.19960196074E+03  0.41607159085E+02  0.22307127434E+03  0.74765867883E+02 0.  0.
          5    1    3    3  501    0 -0.60890366912E+02 -0.19764537920E+03 -0.33506490235E+03  0.39377901352E+03  0.47000000000E+01 0. -1.
        -11    1    4    4    0    0 -0.56078233349E+02 -0.21843705249E+01 -0.11884012863E+03  0.13142494399E+03  0.00000000000E+00 0.  1.
         12    1    4    4    0    0 -0.19471462341E+02 -0.45204169631E+02 -0.23624496908E+02  0.54595527764E+02  0.00000000000E+00 0. -1.
         -5    1    5    5    0  502  0.85462027957E+02  0.45431958613E+02  0.88042453007E+02  0.13092511072E+03  0.47000000000E+01 0.  1.
         13    1    6    6    0    0  0.60811328773E+02  0.13325724569E+03  0.47772318127E+01  0.14655488112E+03  0.00000000000E+00 0. -1.
        -14    1    6    6    0    0 -0.98332941273E+01  0.66344715054E+02  0.36829927272E+02  0.76516393223E+02  0.00000000000E+00 0.  1.
</event>
<event>
12    1  0.1627564E-001  0.1972797E+03  0.7818608E-02  0.1152215E+00
         21   -1    0    0  503  502  0.00000000000E+00  0.00000000000E+00  0.33862145722E+02  0.33862145722E+02  0.00000000000E+00 0.  1.
         21   -1    0    0  501  503 -0.00000000000E+00 -0.00000000000E+00 -0.11823303970E+04  0.11823303970E+04  0.00000000000E+00 0. -1.
          6    2    1    2  501    0 -0.15619459861E+02 -0.94071056984E+02 -0.68331625024E+03  0.71122456577E+03  0.17270192191E+03 0.  0.
         24    2    3    3    0    0 -0.72246940413E+02 -0.86561118321E+02 -0.52492370426E+03  0.54278063043E+03  0.79708656185E+02 0.  0.
         -6    2    1    2    0  502  0.15619459861E+02  0.94071056984E+02 -0.46515200105E+03  0.50496797696E+03  0.17185151261E+03 0.  0.
        -24    2    5    5    0    0 -0.42066988398E+02  0.34183259336E+02 -0.34997888664E+03  0.36283701305E+03  0.78913561643E+02 0.  0.
          5    1    3    3  501    0  0.56627480553E+02 -0.75099386630E+01 -0.15839254598E+03  0.16844393535E+03  0.47000000000E+01 0. -1.
        -13    1    4    4    0    0  0.17488286602E+01 -0.12393774516E+02 -0.69476123483E+01  0.14315493906E+02  0.00000000000E+00 0.  1.
         14    1    4    4    0    0 -0.73995769074E+02 -0.74167343805E+02 -0.51797609191E+03  0.52846513652E+03  0.00000000000E+00 0. -1.
         -5    1    5    5    0  502  0.57686448259E+02  0.59887797648E+02 -0.11517311441E+03  0.14213096391E+03  0.47000000000E+01 0.  1.
         13    1    6    6    0    0 -0.20692111341E+02  0.39265516998E+02 -0.33052388148E+03  0.33349060035E+03  0.00000000000E+00 0. -1.
        -14    1    6    6    0    0 -0.21374877058E+02 -0.50822576622E+01 -0.19455005166E+02  0.29346412697E+02  0.00000000000E+00 0.  1.
</event>
<event>
12    1  0.1627564E-001  0.3032169E+03  0.7818608E-02  0.1083684E+00
         21   -1    0    0  501  502  0.00000000000E+00  0.00000000000E+00  0.10049303776E+04  0.10049303776E+04  0.00000000000E+00 0. -1.
         21   -1    0    0  502  503 -0.00000000000E+00 -0.00000000000E+00 -0.10033933382E+03  0.10033933382E+03  0.00000000000E+00 0.  1.
         -6    2    1    2    0  503  0.84389097005E+02 -0.23437392398E+03  0.28747820014E+03  0.41783278229E+03  0.17288106451E+03 0.  0.
        -24    2    3    3    0    0  0.98426415571E+02 -0.83989297965E+02  0.15794437939E+03  0.21880091858E+03  0.78647654352E+02 0.  0.
          6    2    1    2  501    0 -0.84389097005E+02  0.23437392398E+03  0.61711284367E+03  0.68743692916E+03  0.17230384157E+03 0.  0.
         24    2    5    5    0    0 -0.23339807964E+02  0.32472852727E+02  0.13567877064E+03  0.16180215583E+03  0.78561924797E+02 0.  0.
          5    1    5    5  501    0 -0.61049289041E+02  0.20190107126E+03  0.48143407303E+03  0.52563477333E+03  0.47000000000E+01 0. -1.
        -13    1    6    6    0    0 -0.15433029696E+02  0.58726945222E+02  0.92097262845E+02  0.11031291096E+03  0.00000000000E+00 0.  1.
         14    1    6    6    0    0 -0.79067782685E+01 -0.26254092496E+02  0.43581507798E+02  0.51489244870E+02  0.00000000000E+00 0. -1.
         -5    1    3    3    0  503 -0.14037318566E+02 -0.15038462602E+03  0.12953382075E+03  0.19903186371E+03  0.47000000000E+01 0.  1.
         11    1    4    4    0    0  0.60073775933E+02 -0.38008668245E+02  0.13878872051E+03  0.15593532749E+03  0.00000000000E+00 0. -1.
        -12    1    4    4    0    0  0.38352639638E+02 -0.45980629720E+02  0.19155658882E+02  0.62865591096E+02  0.00000000000E+00 0.  1.
</event>
<event>
12    1  0.1627564E-001  0.3680946E+03  0.7818608E-02  0.1055429E+00
         21   -1    0    0  503  502  0.00000000000E+00  0.00000000000E+00  0.16922356324E+03  0.16922356324E+03  0.00000000000E+00 0.  1.
         21   -1    0    0  501  503 -0.00000000000E+00 -0.00000000000E+00 -0.85956807968E+03  0.85956807968E+03  0.00000000000E+00 0. -1.
          6    2    1    2  501    0 -0.30440589936E+03 -0.11549888862E+03 -0.21037588888E+03  0.42392511664E+03  0.17161452461E+03 0.  0.
         24    2    3    3    0    0 -0.30411868065E+03 -0.11179487352E+03 -0.15413561962E+03  0.36736665035E+03  0.78830202874E+02 0.  0.
         -6    2    1    2    0  502  0.30440589936E+03  0.11549888862E+03 -0.47996862756E+03  0.60486652629E+03  0.17172852515E+03 0.  0.
        -24    2    5    5    0    0  0.14452689203E+03  0.12331745629E+03 -0.29320396992E+03  0.35884710769E+03  0.81899091430E+02 0.  0.
          5    1    3    3  501    0 -0.28721870391E+00 -0.37040151023E+01 -0.56240269261E+02  0.56558466289E+02  0.47000000000E+01 0. -1.
        -11    1    4    4    0    0 -0.60670364130E+02  0.60530523079E+01 -0.13224186917E+02  0.62389194942E+02  0.00000000000E+00 0.  1.
         12    1    4    4    0    0 -0.24344831652E+03 -0.11784792583E+03 -0.14091143270E+03  0.30497745540E+03  0.00000000000E+00 0. -1.
         -5    1    5    5    0  502  0.15987900733E+03 -0.78185676664E+01 -0.18676465764E+03  0.24601941860E+03  0.47000000000E+01 0.  1.
         13    1    6    6    0    0  0.10244481711E+03  0.56642522132E+02 -0.22893368203E+03  0.25712632427E+03  0.00000000000E+00 0. -1.
        -14    1    6    6    0    0  0.42082074912E+02  0.66674934155E+02 -0.64270287893E+02  0.10172078342E+03  0.00000000000E+00 0.  1.
</event>
<event>
12    1  0.1627564E-001  0.2137464E+03  0.7818608E-02  0.1138694E+00
         21   -1    0    0  501  502  0.00000000000E+00  0.00000000000E+00  0.51210713769E+02  0.51210713769E+02  0.00000000000E+00 0.  1.
         21   -1    0    0  502  503 -0.00000000000E+00 -0.00000000000E+00 -0.99787585270E+03  0.99787585270E+03  0.00000000000E+00 0. -1.
         -6    2    1    2    0  503  0.78063715369E+02  0.98577130842E+02 -0.30184849746E+03  0.36986491267E+03  0.17284716898E+03 0.  0.
        -24    2    3    3    0    0  0.49843263876E+02  0.10385314206E+03 -0.12377471862E+03  0.18943046229E+03  0.85404291465E+02 0.  0.
          6    2    1    2  501    0 -0.78063715369E+02 -0.98577130842E+02 -0.64481664148E+03  0.67922165381E+03  0.17245915310E+03 0.  0.
         24    2    5    5    0    0 -0.47024866277E+02 -0.38003532747E+02 -0.14917284244E+03  0.17890431804E+03  0.78093607567E+02 0.  0.
          5    1    5    5  501    0 -0.31038849092E+02 -0.60573598095E+02 -0.49564379904E+03  0.50031733577E+03  0.47000000000E+01 0. -1.
        -13    1    6    6    0    0 -0.52382055403E+02 -0.16210489480E+02 -0.14635086207E+03  0.15628574639E+03  0.00000000000E+00 0.  1.
         14    1    6    6    0    0  0.53571891263E+01 -0.21793043267E+02 -0.28219803695E+01  0.22618571647E+02  0.00000000000E+00 0. -1.
         -5    1    3    3    0  503  0.28220451492E+02 -0.52760112226E+01 -0.17807377883E+03  0.18043445038E+03  0.47000000000E+01 0.  1.
         13    1    4    4    0    0 -0.60029223794E+01  0.57587464743E+02 -0.95319759878E+02  0.11152671337E+03  0.00000000000E+00 0. -1.
        -14    1    4    4    0    0  0.55846186256E+02  0.46265677322E+02 -0.28454958746E+02  0.77903748912E+02  0.00000000000E+00 0.  1.
</event>
<event>
12    1  0.1627564E-001  0.1860456E+03  0.7818608E-02  0.1162287E+00
         21   -1    0    0  503  502  0.00000000000E+00  0.00000000000E+00  0.20425335844E+03  0.20425335844E+03  0.00000000000E+00 0. -1.
         21   -1    0    0  501  503 -0.00000000000E+00 -0.00000000000E+00 -0.20822098888E+03  0.20822098888E+03  0.00000000000E+00 0. -1.
          6    2    1    2  501    0  0.13760547030E+02 -0.66628570941E+02 -0.91905524399E+02  0.20750808972E+03  0.17315964531E+03 0.  0.
         24    2    3    3    0    0  0.14080676489E+02 -0.12030361177E+01 -0.11291382616E+03  0.13863108461E+03  0.79179118051E+02 0.  0.
         -6    2    1    2    0  502 -0.13760547030E+02  0.66628570941E+02  0.87937893961E+02  0.20496625761E+03  0.17218993712E+03 0.  0.
        -24    2    5    5    0    0 -0.41243421907E+02  0.28799414788E+02  0.11647781434E+03  0.14998471051E+03  0.79986911496E+02 0.  0.
          5    1    3    3  501    0 -0.32012945951E+00 -0.65425534823E+02  0.21008301761E+02  0.68877005108E+02  0.47000000000E+01 0. -1.
        -11    1    4    4    0    0 -0.75096638435E+01 -0.20161731856E+02  0.61403917199E+00  0.21523650401E+02  0.00000000000E+00 0.  1.
         12    1    4    4    0    0  0.21590340333E+02  0.18958695738E+02 -0.11352786533E+03  0.11710743421E+03  0.00000000000E+00 0. -1.
         -5    1    5    5    0  502  0.27482874877E+02  0.37829156153E+02 -0.28539920375E+02  0.54981547102E+02  0.47000000000E+01 0.  1.
         11    1    6    6    0    0  0.29792623806E+01  0.45360293645E+02  0.42567499748E+02  0.62276996384E+02  0.00000000000E+00 0. -1.
        -12    1    6    6    0    0 -0.44222684288E+02 -0.16560878856E+02  0.73910314589E+02  0.87707714123E+02  0.00000000000E+00 0.  1.
</event>
<event>
12    1  0.1627564E-001  0.1852740E+03  0.7818608E-02  0.1164919E+00
         21   -1    0    0  501  502  0.00000000000E+00  0.00000000000E+00  0.10606895659E+04  0.10606895659E+04  0.00000000000E+00 0.  1.
         21   -1    0    0  502  503 -0.00000000000E+00 -0.00000000000E+00 -0.32313000928E+02  0.32313000928E+02  0.00000000000E+00 0.  1.
         -6    2    1    2    0  503  0.13272773939E+02  0.26281701462E+02  0.38506524076E+03  0.42354315410E+03  0.17391569620E+03 0.  0.
        -24    2    3    3    0    0  0.71547985188E+02  0.42915335442E+02  0.23984037938E+03  0.26611053871E+03  0.79564885663E+02 0.  0.
          6    2    1    2  501    0 -0.13272773939E+02 -0.26281701462E+02  0.64331132422E+03  0.66945941273E+03  0.18291952076E+03 0.  0.
         24    2    5    5    0    0 -0.41744628344E+02  0.50020754514E+02  0.32427655041E+03  0.34016017468E+03  0.79429046444E+02 0.  0.
          5    1    5    5  501    0  0.28471854405E+02 -0.76302455976E+02  0.31903477381E+03  0.32929923805E+03  0.47000000000E+01 0. -1.
        -13    1    6    6    0    0 -0.16443002026E+02  0.24451545460E+02  0.24749937693E+02  0.38481291647E+02  0.00000000000E+00 0.  1.
         14    1    6    6    0    0 -0.25301626318E+02  0.25569209054E+02  0.29952661272E+03  0.30167888304E+03  0.00000000000E+00 0. -1.
         -5    1    3    3    0  503 -0.58275211250E+02 -0.16633633980E+02  0.14522486138E+03  0.15743261539E+03  0.47000000000E+01 0.  1.
         13    1    4    4    0    0  0.35411468538E+02  0.76894478222E+01  0.21761712153E+02  0.42269041007E+02  0.00000000000E+00 0. -1.
        -14    1    4    4    0    0  0.36136516650E+02  0.35225887620E+02  0.21807866723E+03  0.22384149771E+03  0.00000000000E+00 0.  1.
</event>
<event>
12    1  0.1627564E-001  0.2259805E+03  0.7818608E-02  0.1129825E+00
         21   -1    0    0  503  502  0.00000000000E+00  0.00000000000E+00  0.21345806980E+03  0.21345806980E+03  0.00000000000E+00 0.  1.
         21   -1    0    0  501  503 -0.00000000000E+00 -0.00000000000E+00 -0.53735670462E+03  0.53735670462E+03  0.00000000000E+00 0.  1.
          6    2    1    2  501    0  0.88703359425E+01  0.14385220910E+03 -0.44216852860E+03  0.49575604359E+03  0.17172334189E+03 0.  0.
         24    2    3    3    0    0 -0.22813629689E+02  0.82700428713E+02 -0.39540643032E+03  0.41237620335E+03  0.79674747205E+02 0.  0.
         -6    2    1    2    0  502 -0.88703359425E+01 -0.14385220910E+03  0.11826989378E+03  0.25505873083E+03  0.17405472552E+03 0.  0.
        -24    2    5    5    0    0  0.41985328007E+02 -0.99984230403E+02  0.12911217868E+03  0.18686530554E+03  0.80554786548E+02 0.  0.
          5    1    3    3  501    0  0.31683965631E+02  0.61151780387E+02 -0.46762098276E+02  0.83379840236E+02  0.47000000000E+01 0. -1.
        -13    1    4    4    0    0  0.28730147354E+02  0.44034778996E+02 -0.17070822844E+03  0.17862189784E+03  0.00000000000E+00 0.  1.
         14    1    4    4    0    0 -0.51543777043E+02  0.38665649717E+02 -0.22469820188E+03  0.23375430552E+03  0.00000000000E+00 0. -1.
         -5    1    5    5    0  502 -0.50855663950E+02 -0.43867978697E+02 -0.10842284894E+02  0.68193425288E+02  0.47000000000E+01 0.  1.
         11    1    6    6    0    0  0.58789780592E+02 -0.67130203203E+02  0.57073510122E+02  0.10592491700E+03  0.00000000000E+00 0. -1.
        -12    1    6    6    0    0 -0.16804452585E+02 -0.32854027200E+02  0.72038668557E+02  0.80940388543E+02  0.00000000000E+00 0.  1.
</event>
<event>
12    1  0.1627564E-001  0.2103301E+03  0.7818608E-02  0.1142353E+00
         21   -1    0    0  501  502  0.00000000000E+00  0.00000000000E+00  0.10853546248E+03  0.10853546248E+03  0.00000000000E+00 0. -1.
         21   -1    0    0  502  503 -0.00000000000E+00 -0.00000000000E+00 -0.15891390720E+04  0.15891390720E+04  0.00000000000E+00 0. -1.
         -6    2    1    2    0  503 -0.62596789749E+02  0.10199953680E+03 -0.14776626815E+04  0.14925567788E+04  0.17296379422E+03 0.  0.
        -24    2    3    3    0    0  0.23023839069E+02  0.71380475230E+02 -0.58149888476E+03  0.59177930375E+03  0.80227937515E+02 0.  0.
          6    2    1    2  501    0  0.62596789749E+02 -0.10199953680E+03 -0.29409280110E+01  0.20511775565E+03  0.16656044257E+03 0.  0.
         24    2    5    5    0    0  0.96710393714E+01 -0.54220747620E+02 -0.66064048802E+02  0.10977329526E+03  0.68207765926E+02 0.  0.
          5    1    5    5  501    0  0.52925750377E+02 -0.47778789183E+02  0.63123120791E+02  0.95344460391E+02  0.47000000000E+01 0. -1.
        -13    1    6    6    0    0 -0.26637178087E+02 -0.86487104063E+01 -0.12659347571E+02  0.30734321679E+02  0.00000000000E+00 0.  1.
         14    1    6    6    0    0  0.36308217459E+02 -0.45572037214E+02 -0.53404701231E+02  0.79038973579E+02  0.00000000000E+00 0. -1.
         -5    1    3    3    0  503 -0.85620628818E+02  0.30619061573E+02 -0.89616379673E+03  0.90077747506E+03  0.47000000000E+01 0.  1.
         13    1    4    4    0    0  0.13247942093E+02  0.65330892276E+02 -0.21492760866E+03  0.22502779922E+03  0.00000000000E+00 0. -1.
        -14    1    4    4    0    0  0.97758969757E+01  0.60495829541E+01 -0.36657127610E+03  0.36675150453E+03  0.00000000000E+00 0.  1.
</event>
<event>
12    1  0.1627564E-001  0.1933399E+03  0.7818608E-02  0.1155682E+00
         21   -1    0    0  503  502  0.00000000000E+00  0.00000000000E+00  0.10956960366E+04  0.10956960366E+04  0.00000000000E+00 0.  1.
         21   -1    0    0  501  503 -0.00000000000E+00 -0.00000000000E+00 -0.12165227050E+03  0.12165227050E+03  0.00000000000E+00 0.  1.
          6    2    1    2  501    0 -0.14005825908E+02  0.85770171472E+02 -0.30084414515E+02  0.19477619282E+03  0.17169743102E+03 0.  0.
         24    2    3    3    0    0 -0.10188512193E+02  0.22404695941E+02 -0.78946675074E+02  0.11453053325E+03  0.79239443207E+02 0.  0.
         -6    2    1    2    0  502  0.14005825908E+02 -0.85770171472E+02  0.10041281806E+04  0.10225721142E+04  0.17270680447E+03 0.  0.
        -24    2    5    5    0    0 -0.15088562452E+02 -0.91438598773E+02  0.40954369508E+03  0.42723068707E+03  0.78812053231E+02 0.  0.
          5    1    3    3  501    0 -0.38173137152E+01  0.63365475531E+02  0.48862260559E+02  0.80245659572E+02  0.47000000000E+01 0. -1.
        -11    1    4    4    0    0 -0.44941420418E+02  0.11554804865E+02 -0.40651109211E+02  0.61690821560E+02  0.00000000000E+00 0.  1.
         12    1    4    4    0    0  0.34752908225E+02  0.10849891076E+02 -0.38295565862E+02  0.52839711687E+02  0.00000000000E+00 0. -1.
         -5    1    5    5    0  502  0.29094388360E+02  0.56684273007E+01  0.59458448551E+03  0.59534142718E+03  0.47000000000E+01 0.  1.
         11    1    6    6    0    0 -0.80135274482E+01 -0.40351508090E+02  0.53589660185E+02  0.67559695870E+02  0.00000000000E+00 0. -1.
        -12    1    6    6    0    0 -0.70750350036E+01 -0.51087090682E+02  0.35595403489E+03  0.35967099120E+03  0.00000000000E+00 0.  1.
</event>
<event>
12    1  0.1627564E-001  0.2108748E+03  0.7818608E-02  0.1141181E+00
         21   -1    0    0  501  502  0.00000000000E+00  0.00000000000E+00  0.57122804659E+03  0.57122804659E+03  0.00000000000E+00 0.  1.
         21   -1    0    0  502  503 -0.00000000000E+00 -0.00000000000E+00 -0.85019526981E+02  0.85019526981E+02  0.00000000000E+00 0.  1.
         -6    2    1    2    0  503 -0.10772960451E+03  0.56233297446E+02  0.14327254252E+03  0.25366432421E+03  0.17044270740E+03 0.  0.
        -24    2    3    3    0    0 -0.91944829296E+02  0.80971441997E+02  0.49898633528E+02  0.15567497885E+03  0.82064604779E+02 0.  0.
          6    2    1    2  501    0  0.10772960451E+03 -0.56233297446E+02  0.34293597709E+03  0.40258324936E+03  0.17233785670E+03 0.  0.
         24    2    5    5    0    0  0.67591108802E+02  0.25678563781E+02  0.11332642140E+03  0.15547337519E+03  0.78109832792E+02 0.  0.
          5    1    5    5  501    0  0.40138495712E+02 -0.81911861227E+02  0.22960955569E+03  0.24710987417E+03  0.47000000000E+01 0. -1.
        -13    1    6    6    0    0 -0.11655881759E+02 -0.56257207983E+01  0.43272489118E+02  0.45166543243E+02  0.00000000000E+00 0.  1.
         14    1    6    6    0    0  0.79246990561E+02  0.31304284579E+02  0.70053932280E+02  0.11030683195E+03  0.00000000000E+00 0. -1.
         -5    1    3    3    0  503 -0.15784775219E+02 -0.24738144551E+02  0.93373908995E+02  0.97989345367E+02  0.47000000000E+01 0.  1.
         11    1    4    4    0    0  0.93725736308E+01  0.93398993292E+01 -0.11228163340E+02  0.17353688597E+02  0.00000000000E+00 0. -1.
        -12    1    4    4    0    0 -0.10131740293E+03  0.71631542668E+02  0.61126796868E+02  0.13832129025E+03  0.00000000000E+00 0.  1.
</event>
<event>
12    1  0.1627564E-001  0.1936327E+03  0.7818608E-02  0.1155319E+00
         21   -1    0    0  501  502  0.00000000000E+00  0.00000000000E+00  0.11521083320E+04  0.11521083320E+04  0.00000000000E+00 0.  1.
         21   -1    0    0  502  503 -0.00000000000E+00 -0.00000000000E+00 -0.12628742274E+03  0.12628742274E+03  0.00000000000E+00 0.  1.
         -6    2    1    2    0  503  0.49224722369E+02 -0.73108346683E+02 -0.37869446694E+02  0.19730111296E+03  0.17241151509E+03 0.  0.
        -24    2    3    3    0    0  0.24714276808E+02 -0.74053374455E+02  0.37514011346E+02  0.11788819987E+03  0.79972675810E+02 0.  0.
          6    2    1    2  501    0 -0.49224722369E+02  0.73108346683E+02  0.10636903560E+04  0.10810946418E+04  0.17193181054E+03 0.  0.
         24    2    5    5    0    0 -0.75014238476E+02  0.10297055028E+03  0.75654717794E+03  0.77139176457E+03  0.80321552565E+02 0.  0.
          5    1    5    5  501    0  0.25789516107E+02 -0.29862203594E+02  0.30714317807E+03  0.30970287725E+03  0.47000000000E+01 0. -1.
        -11    1    6    6    0    0  0.32613300824E+01  0.37074537322E+02  0.35763069218E+03  0.35956205247E+03  0.00000000000E+00 0.  1.
         12    1    6    6    0    0 -0.78275568558E+02  0.65896012955E+02  0.39891648576E+03  0.41182971210E+03  0.00000000000E+00 0. -1.
         -5    1    3    3    0  503  0.24510445561E+02  0.94502777181E+00 -0.75383458040E+02  0.79412913088E+02  0.47000000000E+01 0.  1.
         13    1    4    4    0    0 -0.17610407193E+02 -0.22671958269E+01 -0.11551051673E+02  0.21182384502E+02  0.00000000000E+00 0. -1.
        -14    1    4    4    0    0  0.42324684002E+02 -0.71786178628E+02  0.49065063019E+02  0.96705815373E+02  0.00000000000E+00 0.  1.
</event>
<event>
12    1  0.1627564E-001  0.2043784E+03  0.7818608E-02  0.1146454E+00
         21   -1    0    0  503  502  0.00000000000E+00  0.00000000000E+00  0.19145959644E+03  0.19145959644E+03  0.00000000000E+00 0.  1.
         21   -1    0    0  501  503 -0.00000000000E+00 -0.00000000000E+00 -0.43511619375E+03  0.43511619375E+03  0.00000000000E+00 0.  1.
          6    2    1    2  501    0  0.60897150810E+02  0.91598900541E+02 -0.34424159487E+03  0.40034084292E+03  0.17225473379E+03 0.  0.
         24    2    3    3    0    0 -0.27449845494E+02  0.30860505216E+02 -0.19815930257E+03  0.21907730399E+03  0.83796725042E+02 0.  0.
         -6    2    1    2    0  502 -0.60897150810E+02 -0.91598900541E+02  0.10058499756E+03  0.22623494726E+03  0.17019426569E+03 0.  0.
        -24    2    5    5    0    0 -0.33675473981E+02 -0.12692339041E+03  0.66678701430E+02  0.17001603416E+03  0.84945971454E+02 0.  0.
          5    1    3    3  501    0  0.88346996304E+02  0.60738395325E+02 -0.14608229230E+03  0.18126353893E+03  0.47000000000E+01 0. -1.
        -13    1    4    4    0    0  0.10833586419E+02 -0.24046376462E+02 -0.51269717341E+02  0.57655691236E+02  0.00000000000E+00 0.  1.
         14    1    4    4    0    0 -0.38283431913E+02  0.54906881679E+02 -0.14688958523E+03  0.16142161275E+03  0.00000000000E+00 0. -1.
         -5    1    5    5    0  502 -0.27221676829E+02  0.35324489865E+02  0.33906296127E+02  0.56218913105E+02  0.47000000000E+01 0.  1.
         13    1    6    6    0    0 -0.17429264978E+02 -0.69207739425E+01 -0.14943824904E+02  0.23979038604E+02  0.00000000000E+00 0. -1.
        -14    1    6    6    0    0 -0.16246209003E+02 -0.12000261646E+03  0.81622526334E+02  0.14603699555E+03  0.00000000000E+00 0.  1.
</event>
<event>
12    1  0.1627564E-001  0.3169975E+03  0.7818608E-02  0.1077102E+00
         21   -1    0    0  503  502  0.00000000000E+00  0.00000000000E+00  0.14817465884E+04  0.14817465884E+04  0.00000000000E+00 0.  1.
         21   -1    0    0  501  503 -0.00000000000E+00 -0.00000000000E+00 -0.67736290667E+02  0.67736290667E+02  0.00000000000E+00 0.  1.
          6    2    1    2  501    0  0.79259301603E+02  0.25390359968E+03  0.68894129210E+03  0.75814700698E+03  0.17145759071E+03 0.  0.
         24    2    3    3    0    0  0.10625230815E+03  0.15355506306E+03  0.36359734191E+03  0.41657823333E+03  0.80409496118E+02 0.  0.
         -6    2    1    2    0  502 -0.79259301603E+02 -0.25390359968E+03  0.72506900562E+03  0.79133587208E+03  0.17244803480E+03 0.  0.
        -24    2    5    5    0    0 -0.11123677306E+03 -0.24403673381E+03  0.67109509043E+03  0.72765551997E+03  0.84772567604E+02 0.  0.
          5    1    3    3  501    0 -0.26993006546E+02  0.10034853662E+03  0.32534395019E+03  0.34156877365E+03  0.47000000000E+01 0. -1.
        -13    1    4    4    0    0  0.10475006040E+03  0.16135596235E+03  0.35926686947E+03  0.40753037339E+03  0.00000000000E+00 0.  1.
         14    1    4    4    0    0  0.15022477503E+01 -0.78008992884E+01  0.43304724446E+01  0.90478599461E+01  0.00000000000E+00 0. -1.
         -5    1    5    5    0  502  0.31977471461E+02 -0.98668658634E+01  0.53973915193E+02  0.63680352105E+02  0.47000000000E+01 0.  1.
         11    1    6    6    0    0 -0.33812911184E+02 -0.17188311921E+02  0.57294126325E+02  0.68712211002E+02  0.00000000000E+00 0. -1.
        -12    1    6    6    0    0 -0.77423861879E+02 -0.22684842189E+03  0.61380096410E+03  0.65894330897E+03  0.00000000000E+00 0.  1.
</event>
<event>
12    1  0.1627564E-001  0.1850760E+03  0.7818608E-02  0.1163418E+00
         21   -1    0    0  503  502  0.00000000000E+00  0.00000000000E+00  0.12159685519E+03  0.12159685519E+03  0.00000000000E+00 0.  1.
         21   -1    0    0  501  503 -0.00000000000E+00 -0.00000000000E+00 -0.31963036065E+03  0.31963036065E+03  0.00000000000E+00 0. -1.
          6    2    1    2  501    0 -0.43870253815E+02  0.50981079369E+02 -0.17825187934E+03  0.25695695063E+03  0.17242236620E+03 0.  0.
         24    2    3    3    0    0 -0.44373587927E+02 -0.35913185490E+02 -0.74730720602E+02  0.12171795139E+03  0.77277466899E+02 0.  0.
         -6    2    1    2    0  502  0.43870253815E+02 -0.50981079369E+02 -0.19781626123E+02  0.18427026521E+03  0.17041287593E+03 0.  0.
        -24    2    5    5    0    0  0.83551217716E+02 -0.59559344348E+02 -0.43405702326E+02  0.13706483647E+03  0.79841047841E+02 0.  0.
          5    1    3    3  501    0  0.50333411243E+00  0.86894264860E+02 -0.10352115874E+03  0.13523899924E+03  0.47000000000E+01 0. -1.
        -11    1    4    4    0    0 -0.83849375703E+01 -0.12658417819E+01  0.16019969347E+02  0.18125919324E+02  0.00000000000E+00 0.  1.
         12    1    4    4    0    0 -0.35988650357E+02 -0.34647343709E+02 -0.90750689949E+02  0.10359203206E+03  0.00000000000E+00 0. -1.
         -5    1    5    5    0  502 -0.39680963901E+02  0.85782649790E+01  0.23624076204E+02  0.47205428741E+02  0.47000000000E+01 0.  1.
         13    1    6    6    0    0  0.21557019167E+02 -0.18473486191E+02 -0.54902816916E+02  0.61808527509E+02  0.00000000000E+00 0. -1.
        -14    1    6    6    0    0  0.61994198549E+02 -0.41085858157E+02  0.11497114590E+02  0.75256308958E+02  0.00000000000E+00 0.  1.
</event>
<event>
12    1  0.1627564E-001  0.1823977E+03  0.7818608E-02  0.1165770E+00
         21   -1    0    0  503  502  0.00000000000E+00  0.00000000000E+00  0.16145830442E+03  0.16145830442E+03  0.00000000000E+00 0.  1.
         21   -1    0    0  501  503 -0.00000000000E+00 -0.00000000000E+00 -0.27878438336E+03  0.27878438336E+03  0.00000000000E+00 0.  1.
          6    2    1    2  501    0  0.50559319632E+02  0.32363199577E+02 -0.17193485768E+03  0.24984566620E+03  0.17104864847E+03 0.  0.
         24    2    3    3    0    0  0.89258758668E+02  0.57651040783E+02 -0.14388862721E+03  0.19557041826E+03  0.79076437428E+02 0.  0.
         -6    2    1    2    0  502 -0.50559319632E+02 -0.32363199577E+02  0.54608778745E+02  0.19039702158E+03  0.17223613332E+03 0.  0.
        -24    2    5    5    0    0  0.22756650398E+01  0.36856940049E+02 -0.26840938323E+01  0.86053710423E+02  0.77681555318E+02 0.  0.
          5    1    3    3  501    0 -0.38699439036E+02 -0.25287841206E+02 -0.28046230471E+02  0.54275247934E+02  0.47000000000E+01 0. -1.
        -11    1    4    4    0    0  0.49178112597E+02  0.46270028339E+02 -0.29234211358E+02  0.73580169848E+02  0.00000000000E+00 0.  1.
         12    1    4    4    0    0  0.40080646071E+02  0.11381012444E+02 -0.11465441585E+03  0.12199024842E+03  0.00000000000E+00 0. -1.
         -5    1    5    5    0  502 -0.52834984672E+02 -0.69220139626E+02  0.57292872577E+02  0.10434331116E+03  0.47000000000E+01 0.  1.
         11    1    6    6    0    0  0.28291291560E+02  0.31681721216E+02  0.23701046997E+02  0.48640191879E+02  0.00000000000E+00 0. -1.
        -12    1    6    6    0    0 -0.26015626520E+02  0.51752188336E+01 -0.26385140830E+02  0.37413518543E+02  0.00000000000E+00 0.  1.
</event>
<event>
12    1  0.1627564E-001  0.2618832E+03  0.7818608E-02  0.1106051E+00
         21   -1    0    0  503  502  0.00000000000E+00  0.00000000000E+00  0.16904301557E+03  0.16904301557E+03  0.00000000000E+00 0. -1.
         21   -1    0    0  501  503 -0.00000000000E+00 -0.00000000000E+00 -0.10510784624E+04  0.10510784624E+04  0.00000000000E+00 0. -1.
          6    2    1    2  501    0  0.59560051178E+02 -0.18820155040E+03 -0.91910823525E+03  0.95562726242E+03  0.17174484945E+03 0.  0.
         24    2    3    3    0    0 -0.34267377127E+02 -0.10976331711E+03 -0.49487343308E+03  0.51409198623E+03  0.78540541300E+02 0.  0.
         -6    2    1    2    0  502 -0.59560051178E+02  0.18820155040E+03  0.37072788378E+02  0.26449421559E+03  0.17209176381E+03 0.  0.
        -24    2    5    5    0    0  0.15106788978E+02  0.59473351862E+02  0.54371665513E+02  0.11460283068E+03  0.80076439327E+02 0.  0.
          5    1    3    3  501    0  0.93827428305E+02 -0.78438233296E+02 -0.42423480217E+03  0.44153527619E+03  0.47000000000E+01 0. -1.
        -13    1    4    4    0    0 -0.38644341427E+02 -0.11375355268E+02 -0.12496352432E+03  0.13129610139E+03  0.00000000000E+00 0.  1.
         14    1    4    4    0    0  0.43769642994E+01 -0.98387961840E+02 -0.36990990876E+03  0.38279588484E+03  0.00000000000E+00 0. -1.
         -5    1    5    5    0  502 -0.74666840156E+02  0.12872819854E+03 -0.17298877136E+02  0.14989138490E+03  0.47000000000E+01 0.  1.
         11    1    6    6    0    0  0.19553577046E+02  0.74181866370E+02  0.60858513403E+02  0.97923696453E+02  0.00000000000E+00 0. -1.
        -12    1    6    6    0    0 -0.44467880685E+01 -0.14708514508E+02 -0.64868478894E+01  0.16679134231E+02  0.00000000000E+00 0.  1.
</event>
<event>
12    1  0.1627564E-001  0.2074697E+03  0.7818608E-02  0.1143715E+00
         21   -1    0    0  501  502  0.00000000000E+00  0.00000000000E+00  0.15950741979E+03  0.15950741979E+03  0.00000000000E+00 0.  1.
         21   -1    0    0  502  503 -0.00000000000E+00 -0.00000000000E+00 -0.27015114564E+03  0.27015114564E+03  0.00000000000E+00 0.  1.
         -6    2    1    2    0  503 -0.25684865539E+02 -0.11145488716E+03 -0.41498201368E+02  0.21157920495E+03  0.17309464191E+03 0.  0.
        -24    2    3    3    0    0 -0.78686648035E+02 -0.83105639543E+02 -0.33669601281E+01  0.14024232566E+03  0.80984181062E+02 0.  0.
          6    2    1    2  501    0  0.25684865539E+02  0.11145488716E+03 -0.69145524480E+02  0.21807936048E+03  0.17232411242E+03 0.  0.
         24    2    5    5    0    0  0.69421933796E+02  0.89124739844E+02 -0.89602768423E+02  0.16467378541E+03  0.79537257608E+02 0.  0.
          5    1    5    5  501    0 -0.43737068257E+02  0.22330147312E+02  0.20457243943E+02  0.53405575069E+02  0.47000000000E+01 0. -1.
        -11    1    6    6    0    0  0.44577305343E+01  0.26709757926E+02 -0.66304752970E+02  0.71621245426E+02  0.00000000000E+00 0.  1.
         12    1    6    6    0    0  0.64964203262E+02  0.62414981918E+02 -0.23298015453E+02  0.93052539984E+02  0.00000000000E+00 0. -1.
         -5    1    3    3    0  503  0.53001782496E+02 -0.28349247613E+02 -0.38131241240E+02  0.71336879288E+02  0.47000000000E+01 0.  1.
         13    1    4    4    0    0 -0.61235291458E+02 -0.74967636171E+02 -0.35232418810E+02  0.10301082821E+03  0.00000000000E+00 0. -1.
        -14    1    4    4    0    0 -0.17451356578E+02 -0.81380033717E+01  0.31865458681E+02  0.37231497448E+02  0.00000000000E+00 0.  1.
</event>
